Title
29469
    1NLYS     N    1   2.013   2.602   2.013 -0.4549  0.7246  0.2964
    1NLYS    H1    2   1.934   2.663   2.032 -0.4593  0.9625 -0.4257
    1NLYS    H2    3   2.074   2.598   2.093 -1.5668  0.4727  1.1605
    1NLYS    H3    4   1.979   2.510   1.991  0.9289 -0.8529  3.9857
    1NLYS    CA    5   2.087   2.661   1.901  0.2312  0.0763 -0.9630
    1NLYS    HA    6   2.166   2.597   1.862 -0.8853 -0.2702 -2.7597
    1NLYS    CB    7   1.980   2.687   1.793  0.1154 -0.8330  0.1412
    1NLYS   HB2    8   1.925   2.595   1.780  2.2067 -2.0180 -0.9151
    1NLYS   HB3    9   1.903   2.756   1.828  1.2127  0.8598 -0.6030
    1NLYS    CG   10   2.028   2.733   1.662  0.1838 -0.0963 -0.2742
    1NLYS   HG2   11   2.121   2.789   1.671  0.0666 -0.0160  0.4721
    1NLYS   HG3   12   2.056   2.648   1.599  1.2186  0.3520 -0.4530
    1NLYS    CD   13   1.919   2.816   1.590 -0.5873  0.0256  0.4791
    1NLYS   HD2   14   1.823   2.765   1.597  0.4216 -1.9639  0.7865
    1NLYS   HD3   15   1.919   2.911   1.643  0.3608  2.2050 -3.1721
    1NLYS    CE   16   1.955   2.836   1.442 -0.2566  0.8830 -0.5571
    1NLYS   HE2   17   1.989   2.743   1.397 -1.4084  0.2836 -0.2304
    1NLYS   HE3   18   1.870   2.888   1.397 -2.4094  0.4039  2.5911
    1NLYS    NZ   19   2.069   2.930   1.435  0.4790  0.2347 -0.0467
    1NLYS   HZ1   20   2.048   3.025   1.462  3.5875  0.8014  0.7859
    1NLYS   HZ2   21   2.146   2.898   1.492  1.4866  0.6083 -1.1559
    1NLYS   HZ3   22   2.097   2.940   1.339 -0.5148 -0.2742 -0.3973
    1NLYS     C   23   2.154   2.789   1.946 -0.2076  0.4125  0.2389
    1NLYS     O   24   2.085   2.881   1.986 -0.0375 -0.3465  0.2693
    2GLY      N   25   2.286   2.796   1.936 -0.3285 -0.0182  0.2638
    2GLY      H   26   2.343   2.713   1.933  0.0683  0.0427  3.4429
    2GLY     CA   27   2.361   2.923   1.953  0.5153  0.0543 -0.1602
    2GLY    HA2   28   2.364   2.983   1.862  0.3621 -1.5735 -1.2949
    2GLY    HA3   29   2.308   2.967   2.037  0.6829  0.8978 -0.4899
    2GLY      C   30   2.505   2.896   2.000  0.7047 -0.4268 -1.0622
    2GLY      O   31   2.535   2.783   2.033 -0.0742  0.1104 -0.0951
    3PRO      N   32   2.594   2.997   2.011  0.3588 -0.3142 -0.1545
    3PRO     CD   33   2.572   3.142   1.988 -0.0744  0.5069  0.4076
    3PRO    HD2   34   2.564   3.189   2.086 -0.8474  0.0242  0.5893
    3PRO    HD3   35   2.479   3.164   1.936  0.3944  3.3450  0.6440
    3PRO     CG   36   2.690   3.194   1.911  0.2493  0.3759 -0.2944
    3PRO    HG2   37   2.716   3.300   1.917  1.7524  0.0943 -1.3066
    3PRO    HG3   38   2.688   3.164   1.806 -0.4210 -1.4658  0.2093
    3PRO     CB   39   2.801   3.119   1.986 -0.1810  0.1909  0.2130
    3PRO    HB2   40   2.832   3.168   2.079  1.8660 -1.5761  0.5498
    3PRO    HB3   41   2.895   3.109   1.932  0.5782 -1.6553  1.7164
    3PRO     CA   42   2.736   2.987   2.020 -0.0207  0.7618  0.4043
    3PRO     HA   43   2.747   2.913   1.940 -3.3825 -0.8734  1.2611
    3PRO      C   44   2.806   2.923   2.149  0.0765  0.2877  0.3067
    3PRO      O   45   2.917   2.865   2.134  0.9060  0.7063  0.2715
    4PRO      N   46   2.750   2.939   2.272 -0.1501  0.1383 -0.7639
    4PRO     CD   47   2.643   3.028   2.311  0.4587 -1.0410 -0.2825
    4PRO    HD2   48   2.547   2.991   2.274  0.2408  1.6317 -2.7983
    4PRO    HD3   49   2.653   3.128   2.269  1.2321 -0.1014  1.9813
    4PRO     CG   50   2.632   3.049   2.460 -0.1434  0.1160  0.0297
    4PRO    HG2   51   2.566   2.978   2.510  1.9541 -0.5049  2.1466
    4PRO    HG3   52   2.611   3.154   2.480  0.2179  0.3054 -0.5503
    4PRO     CB   53   2.776   3.025   2.505 -0.0063  0.3537  0.2167
    4PRO    HB2   54   2.789   2.987   2.606  1.3617  0.7127  0.1978
    4PRO    HB3   55   2.849   3.105   2.495  2.3803 -1.6383  0.5842
    4PRO     CA   56   2.823   2.914   2.401  0.0590  0.3857 -0.1283
    4PRO     HA   57   2.932   2.918   2.402  0.1281 -1.0384  1.2551
    4PRO      C   58   2.790   2.777   2.456 -0.1403  0.4514 -0.4753
    4PRO      O   59   2.722   2.693   2.396  0.3692 -0.0964 -0.1475
    5ARG      N   60   2.855   2.741   2.569 -0.4765  0.5047  0.1065
    5ARG      H   61   2.918   2.812   2.605 -2.0343  1.2782  1.4773
    5ARG     CA   62   2.855   2.606   2.630 -0.1971 -0.1735  0.0062
    5ARG     HA   63   2.899   2.532   2.564  0.3855 -0.1923  0.4065
    5ARG     CB   64   2.936   2.612   2.758 -0.0172  0.1851 -0.3476
    5ARG    HB2   65   2.931   2.513   2.804 -1.9815  0.9774  1.2779
    5ARG    HB3   66   3.042   2.629   2.739 -0.2848  1.4485 -0.8203
    5ARG     CG   67   2.905   2.714   2.866  0.2148 -0.0319  0.2556
    5ARG    HG2   68   2.941   2.810   2.829  1.6453  0.3709  2.5219
    5ARG    HG3   69   2.797   2.729   2.877  0.3159  1.0231 -0.1117
    5ARG     CD   70   2.954   2.706   3.011 -0.0626  0.2005  0.4341
    5ARG    HD2   71   2.935   2.802   3.058  1.9283  1.6252 -1.4330
    5ARG    HD3   72   2.901   2.626   3.062  1.5285 -0.5926  0.9331
    5ARG     NE   73   3.105   2.689   3.016  0.5571 -0.4640  0.2946
    5ARG     HE   74   3.163   2.749   2.960  0.7692 -1.0318 -0.1073
    5ARG     CZ   75   3.169   2.606   3.096 -0.2324 -0.6038  0.4300
    5ARG    NH1   76   3.113   2.522   3.176  0.2027  0.2005 -0.4231
    5ARG   HH11   77   3.014   2.515   3.190  0.3826  0.1330  0.9033
    5ARG   HH12   78   3.174   2.467   3.235 -0.8311 -0.6424 -0.1312
    5ARG    NH2   79   3.302   2.620   3.092 -0.4147 -0.2124  0.4980
    5ARG   HH21   80   3.335   2.704   3.047  0.3361 -0.8527 -0.1919
    5ARG   HH22   81   3.351   2.586   3.173 -0.0081  0.8814  0.7230
    5ARG      C   82   2.711   2.564   2.664 -0.1286  0.2598  0.8519
    5ARG      O   83   2.626   2.646   2.686  0.0366  0.4511 -0.2171
    6CARG     N   84   2.689   2.430   2.671  0.1188 -0.2619 -0.0324
    6CARG     H   85   2.774   2.376   2.676  0.7293  0.8232  3.0774
    6CARG    CA   86   2.557   2.372   2.695 -0.4184  0.0197 -0.5862
    6CARG    HA   87   2.481   2.415   2.629 -2.3072 -1.6224  0.4101
    6CARG    CB   88   2.561   2.217   2.670 -0.2940  0.2188 -0.4462
    6CARG   HB2   89   2.460   2.178   2.663  0.2771 -1.6737  1.0213
    6CARG   HB3   90   2.619   2.190   2.581 -0.5148 -1.0610 -0.2189
    6CARG    CG   91   2.624   2.157   2.799 -0.6275  0.6867 -0.4163
    6CARG   HG2   92   2.702   2.225   2.833 -1.5017  1.2058  0.6270
    6CARG   HG3   93   2.546   2.141   2.874 -1.5973 -1.0995 -1.7323
    6CARG    CD   94   2.699   2.028   2.756  0.6207 -0.5585  0.0341
    6CARG   HD2   95   2.623   1.964   2.710  0.5479 -0.6358  0.2590
    6CARG   HD3   96   2.763   2.067   2.678  1.0677 -0.3370  0.5079
    6CARG    NE   97   2.776   1.963   2.865 -0.1144 -0.1167  0.0645
    6CARG    HE   98   2.719   1.898   2.917 -0.3055  1.0819  1.4331
    6CARG    CZ   99   2.905   1.952   2.880  0.1161  0.0532 -0.1409
    6CARG   NH1  100   2.995   2.011   2.803  0.5469  0.9034  0.8161
    6CARG  HH11  101   2.961   2.067   2.726 -0.2775 -0.4345  0.1805
    6CARG  HH12  102   3.093   1.999   2.821  0.3880  0.6211  1.5384
    6CARG   NH2  103   2.944   1.890   2.987  0.0433 -0.2924 -0.3755
    6CARG  HH21  104   2.871   1.860   3.050  0.0276 -1.6818 -1.0032
    6CARG  HH22  105   3.039   1.903   3.019  0.1861 -1.6474 -0.1820
    6CARG     C  106   2.502   2.406   2.834 -0.4431  0.1577 -0.3033
    6CARG     O  107   2.586   2.412   2.926 -0.1921  0.3250 -0.0184
    6CARG   OXT  108   2.384   2.414   2.843  0.3348  0.2668 -1.0237
    1PA    C116  109   2.731   2.471   5.316 -0.7045  0.8680 -0.6612
    1PA    H16R  110   2.802   2.504   5.240  0.5976  0.9012  0.5278
    1PA    H16S  111   2.679   2.562   5.345  0.6901  0.5086  3.7096
    1PA    H16T  112   2.651   2.412   5.272 -0.0634 -0.9292  0.4677
    1PA    C115  113   2.787   2.413   5.446 -0.5027  0.0361 -0.3824
    1PA    H15R  114   2.869   2.342   5.429  0.1568  0.1923  1.8927
    1PA    H15S  115   2.832   2.498   5.497  3.2565 -0.8313 -1.9376
    1PA    C114  116   2.682   2.349   5.535  0.1329 -0.0944 -0.5938
    1PA    H14R  117   2.600   2.420   5.545  0.3288  0.0938 -0.3398
    1PA    H14S  118   2.640   2.273   5.468 -0.0081  0.5539 -1.2636
    1PA    C113  119   2.721   2.284   5.669 -0.2521 -0.3867  0.3312
    1PA    H13R  120   2.774   2.361   5.726  0.4914 -0.8431  0.2593
    1PA    H13S  121   2.634   2.254   5.727 -0.2146 -0.6020  0.2778
    1PA    C112  122   2.816   2.175   5.664 -0.9669  0.0206 -0.8885
    1PA    H12R  123   2.778   2.089   5.609  2.0498 -2.4152  0.4852
    1PA    H12S  124   2.910   2.204   5.617 -0.1367  1.5584  1.4880
    1PA    C111  125   2.844   2.110   5.810 -0.2831 -0.3424  0.0141
    1PA    H11R  126   2.760   2.094   5.878  0.4314  0.6981  1.1734
    1PA    H11S  127   2.892   2.012   5.801 -1.6986 -1.1010  0.4096
    1PA    C110  128   2.944   2.192   5.895 -0.2498  0.0377 -0.2812
    1PA    H10R  129   3.033   2.211   5.834  2.3170 -0.8605  2.9355
    1PA    H10S  130   2.904   2.290   5.921  0.1039  0.3682 -0.9485
    1PA     C19  131   2.988   2.115   6.024 -0.8515  0.1310  0.7000
    1PA     H9R  132   2.903   2.064   6.070  1.0507 -0.6679  3.5689
    1PA     H9S  133   3.064   2.045   5.990 -0.6819  0.8341 -0.4353
    1PA     C18  134   3.060   2.206   6.129 -0.1170 -0.0491  0.4085
    1PA     H8R  135   3.140   2.265   6.084 -0.0896 -1.3276 -1.3223
    1PA     H8S  136   2.997   2.287   6.166  2.6884  2.5113 -0.0108
    1PA     C17  137   3.108   2.140   6.254  0.3057  0.5020 -0.2025
    1PA     H7R  138   3.201   2.089   6.229  1.1198  1.4544  0.7739
    1PA     H7S  139   3.140   2.218   6.324  1.2894  0.1000 -0.1902
    1PA     C16  140   3.008   2.046   6.319 -0.2943  1.4301 -0.3737
    1PA     H6R  141   2.914   2.100   6.327 -0.2044  1.6216 -0.5998
    1PA     H6S  142   2.978   1.975   6.241  1.6548  0.9310 -0.7336
    1PA     C15  143   3.050   1.969   6.448  0.5964 -0.4914 -0.4913
    1PA     H5R  144   2.966   1.909   6.485  0.6098  0.0898  0.5241
    1PA     H5S  145   3.132   1.901   6.424 -0.5657 -1.3681 -2.1856
    1PA     C14  146   3.099   2.055   6.562  0.0984  0.0503  0.2435
    1PA     H4R  147   3.141   1.992   6.641  0.6015 -1.8513 -1.4513
    1PA     H4S  148   3.181   2.117   6.527 -0.9996  1.1852 -0.4011
    1PA     C13  149   2.996   2.135   6.630 -0.0784 -0.9627 -0.1407
    1PA     H3R  150   2.925   2.158   6.550 -0.0057  2.5205  0.6486
    1PA     H3S  151   2.932   2.098   6.711 -0.0980 -0.2295  0.1796
    1PA     C12  152   3.059   2.261   6.692 -0.4754  0.5929 -0.3821
    1PA     H2R  153   3.119   2.240   6.781  0.1402  2.9200 -0.1897
    1PA     H2S  154   3.120   2.309   6.617  0.1399  0.0442 -0.2414
    1PC     C11  155   2.948   2.351   6.731  1.0901 -0.0490 -0.3079
    1PC     O12  156   2.894   2.424   6.652  0.1502  0.0271  0.0826
    1PC     O11  157   2.895   2.328   6.853 -0.1522  0.3336 -0.0015
    1PC      C1  158   2.775   2.403   6.895  0.0539  0.0865 -0.3964
    1PC      HR  159   2.780   2.428   7.001 -2.1492 -2.7618  0.5296
    1PC      HS  160   2.762   2.496   6.839 -3.3190 -0.1621 -0.2188
    1PC      C2  161   2.640   2.319   6.857  0.3119  0.2931  0.1022
    1PC      HX  162   2.554   2.386   6.866 -1.0842 -1.2984 -0.8735
    1PC      C3  163   2.631   2.192   6.949  0.2875 -0.2249  0.1186
    1PC      HA  164   2.696   2.113   6.911 -0.4887 -0.6983 -0.2662
    1PC      HB  165   2.665   2.213   7.050 -0.7476  1.2048  0.2094
    1PC     O31  166   2.492   2.157   6.965  0.0375 -0.0139 -0.5183
    1PC     P31  167   2.417   2.204   7.095  0.4179  0.1938 -0.0979
    1PC     O32  168   2.492   2.149   7.218 -0.4117  0.1948 -0.0964
    1PC     C31  169   2.493   2.012   7.252  0.7239  0.7208 -0.2906
    1PC     H1A  170   2.422   1.955   7.191  0.4370  0.9383 -0.1612
    1PC     H1B  171   2.595   1.973   7.241  0.4480 -0.2023  0.2861
    1PC     C32  172   2.460   2.011   7.407 -0.9507 -0.0958 -0.0441
    1PC     H2A  173   2.455   1.905   7.434 -0.0938 -0.4928 -1.3829
    1PC     H2B  174   2.538   2.056   7.468 -0.3584 -1.6493  0.3860
    1PC     N31  175   2.324   2.067   7.454 -0.7099 -0.0607 -0.1437
    1PC     C33  176   2.307   2.021   7.593 -0.5904  0.1317  0.1131
    1PC     H3A  177   2.206   2.049   7.625 -1.0613 -1.6897  0.3524
    1PC     H3B  178   2.303   1.912   7.595 -0.1709  0.1246  0.6177
    1PC     H3C  179   2.387   2.051   7.660  1.0421 -2.8234 -0.3391
    1PC     C34  180   2.336   2.215   7.448 -0.2207  0.1227  0.2864
    1PC     H4A  181   2.424   2.248   7.504 -0.3313  1.5183 -0.3137
    1PC     H4B  182   2.336   2.260   7.349 -2.7732  0.0971  0.2102
    1PC     H4C  183   2.246   2.252   7.498 -0.0138 -0.1677  0.8788
    1PC     C35  184   2.206   2.025   7.376 -0.7888 -0.3132 -0.1646
    1PC     H5A  185   2.117   2.050   7.433  0.3559 -0.5798  1.8311
    1PC     H5B  186   2.219   1.919   7.355  1.0518 -0.5960  2.0469
    1PC     H5C  187   2.211   2.090   7.289 -1.7418  0.1414  0.1081
    1PC     O33  188   2.409   2.349   7.112  0.0935  0.1494 -0.1916
    1PC     O34  189   2.293   2.134   7.090 -0.2758 -0.1829  0.1143
    1PC     O21  190   2.641   2.267   6.717  0.2316 -0.8962 -0.8273
    1PC     C21  191   2.600   2.346   6.618  0.0436  0.0320  0.2509
    1PC     O22  192   2.549   2.462   6.633 -0.4574  0.7477  0.4833
    1OL     C12  193   2.637   2.275   6.484  0.1103  0.0614 -0.8270
    1OL     H2R  194   2.551   2.217   6.450 -0.0289  0.2580 -0.8122
    1OL     H2S  195   2.719   2.207   6.507  0.4028  0.7802  0.3692
    1OL     C13  196   2.692   2.371   6.381  0.1929  0.1305  0.0662
    1OL     H3R  197   2.745   2.326   6.296 -0.5998 -2.3344  0.7903
    1OL     H3S  198   2.772   2.434   6.421  0.7245 -1.5446  1.7514
    1OL     C14  199   2.576   2.446   6.309 -0.7260 -0.2601 -0.0708
    1OL     H4R  200   2.566   2.547   6.350  1.1834  0.2102 -0.6505
    1OL     H4S  201   2.483   2.391   6.322  0.1748 -2.2221 -1.4123
    1OL     C15  202   2.598   2.450   6.158  0.4459 -0.1049  0.4896
    1OL     H5R  203   2.500   2.451   6.111  1.2237 -1.1931 -1.2559
    1OL     H5S  204   2.618   2.347   6.129 -2.0734 -0.9982  1.6517
    1OL     C16  205   2.692   2.555   6.100 -0.0500 -0.6310 -0.0185
    1OL     H6R  206   2.795   2.534   6.128  0.0724 -0.9304 -0.6752
    1OL     H6S  207   2.664   2.651   6.142  2.2977  1.2236 -2.3110
    1OL     C17  208   2.678   2.574   5.940  0.2158 -0.0179 -0.6374
    1OL     H7R  209   2.577   2.608   5.916  0.1488  1.8069  1.8404
    1OL     H7S  210   2.696   2.481   5.885  2.2795  0.2648 -0.5210
    1OL     C18  211   2.776   2.692   5.895  0.2415  0.4232  0.4700
    1OL     H8R  212   2.875   2.683   5.940 -1.0070  0.2653  3.4278
    1OL     H8S  213   2.728   2.783   5.932 -1.9615 -1.3777  2.3750
    1OL     C19  214   2.786   2.701   5.745 -0.0128 -0.6853 -0.1028
    1OL     H9R  215   2.873   2.655   5.699 -0.6293 -0.2727 -1.7919
    1OL    C110  216   2.694   2.748   5.655 -0.0314  0.2595  0.3196
    1OL    H10R  217   2.725   2.755   5.551 -1.8623  0.7957 -0.2215
    1OL    C111  218   2.564   2.816   5.698 -0.2010 -0.3543 -0.3351
    1OL    H11R  219   2.586   2.923   5.690 -2.0301  0.0416 -0.4610
    1OL    H11S  220   2.536   2.796   5.802  0.8763 -0.9814 -0.1451
    1OL    C112  221   2.450   2.791   5.603 -0.1593 -0.2970  0.2523
    1OL    H12R  222   2.449   2.683   5.586  1.7980 -0.4416  0.8590
    1OL    H12S  223   2.471   2.835   5.505  0.9224 -3.3475 -1.0033
    1OL    C113  224   2.308   2.835   5.633 -0.3973 -0.3338  0.4413
    1OL    H13R  225   2.260   2.860   5.538 -0.2188 -0.2730  0.3666
    1OL    H13S  226   2.315   2.926   5.693  2.5678 -0.0705 -0.1593
    1OL    C114  227   2.228   2.726   5.701 -0.2688 -0.1888  0.3216
    1OL    H14R  228   2.279   2.696   5.793 -0.7631  1.2139  1.0794
    1OL    H14S  229   2.229   2.646   5.627 -2.8940  1.6611 -1.9532
    1OL    C115  230   2.079   2.763   5.714 -0.5854  0.2760 -0.4089
    1OL    H15R  231   2.023   2.679   5.755 -0.8339  0.1766 -0.9476
    1OL    H15S  232   2.045   2.784   5.613 -3.2815  0.9496  0.5509
    1OL    C116  233   2.045   2.885   5.812  0.3682 -0.4340  0.1392
    1OL    H16R  234   2.093   2.973   5.769 -0.5930  0.5221  0.9699
    1OL    H16S  235   2.088   2.864   5.911  2.7057  0.8372 -0.5259
    1OL    C117  236   1.896   2.910   5.819 -0.2971 -0.0691 -0.5560
    1OL    H17R  237   1.849   2.827   5.871 -0.7464  0.2309 -0.4808
    1OL    H17S  238   1.859   2.919   5.717  1.3706  1.1487 -1.1101
    1OL    C118  239   1.858   3.038   5.887  0.5929  0.4619 -0.1026
    1OL    H18R  240   1.750   3.048   5.891  0.5878  0.5488 -0.3788
    1OL    H18S  241   1.883   3.123   5.822  4.5355  0.8360  1.6084
    1OL    H18T  242   1.898   3.064   5.985  3.4489  2.6262 -1.6733
    1PA    C116  243   3.148   3.268   5.007  0.2288  0.2631  0.2403
    1PA    H16R  244   3.248   3.251   5.048 -0.5210 -0.5677  1.7705
    1PA    H16S  245   3.155   3.284   4.899  1.2070 -0.1496  0.2301
    1PA    H16T  246   3.100   3.174   5.032 -1.9545  0.5401 -2.3828
    1PA    C115  247   3.068   3.384   5.078  0.2456 -0.0245  0.3198
    1PA    H15R  248   3.082   3.486   5.040 -1.1136  0.5822  1.3218
    1PA    H15S  249   2.963   3.368   5.052  0.1679  0.0525  0.5862
    1PA    C114  250   3.075   3.384   5.231  0.2698  0.1406 -0.6382
    1PA    H14R  251   3.008   3.462   5.267  0.6164 -0.8677  2.4689
    1PA    H14S  252   3.037   3.285   5.253  4.7768 -2.2213 -2.2164
    1PA    C113  253   3.221   3.396   5.284  0.2692  0.0599 -0.0312
    1PA    H13R  254   3.277   3.320   5.229  2.4344  2.3213 -1.1607
    1PA    H13S  255   3.256   3.492   5.246  0.6261 -0.2134 -0.3986
    1PA    C112  256   3.234   3.381   5.440 -0.9912  1.2831  0.0369
    1PA    H12R  257   3.176   3.457   5.493 -0.6392  1.9373 -0.4937
    1PA    H12S  258   3.201   3.284   5.479 -0.3026  1.1739  0.3478
    1PA    C111  259   3.380   3.419   5.488  0.1566  0.5443  0.3843
    1PA    H11R  260   3.430   3.324   5.465  2.4966  1.8708 -0.3288
    1PA    H11S  261   3.422   3.489   5.415 -1.2962  0.1206 -0.9174
    1PA    C110  262   3.399   3.465   5.638 -0.1264 -0.0788 -0.0130
    1PA    H10R  263   3.500   3.467   5.678 -0.8016  1.9646  1.8456
    1PA    H10S  264   3.354   3.564   5.653  0.6710  0.3612 -0.4555
    1PA     C19  265   3.332   3.358   5.722  0.1618  0.5879  0.6664
    1PA     H9R  266   3.223   3.353   5.713  0.0504  0.6371  1.8598
    1PA     H9S  267   3.368   3.259   5.690  0.0257  0.8274 -0.2511
    1PA     C18  268   3.365   3.365   5.871 -0.3488 -0.3333 -0.5838
    1PA     H8R  269   3.465   3.408   5.878 -1.5067  2.4267  0.6165
    1PA     H8S  270   3.301   3.437   5.923 -1.1282 -1.2269 -0.2759
    1PA     C17  271   3.344   3.234   5.950  0.0771  0.5388  0.5383
    1PA     H7R  272   3.238   3.208   5.948  0.6428 -1.9651 -0.0789
    1PA     H7S  273   3.403   3.151   5.913  1.1711  2.5250 -2.5391
    1PA     C16  274   3.383   3.251   6.098 -0.7265 -0.6371  0.0095
    1PA     H6R  275   3.485   3.289   6.092 -0.5497 -0.8170  1.4792
    1PA     H6S  276   3.328   3.327   6.153  0.0370  0.2098 -0.3751
    1PA     C15  277   3.389   3.116   6.167 -0.2857  0.2974  0.9129
    1PA     H5R  278   3.433   3.034   6.110 -3.2566 -0.9796  0.3041
    1PA     H5S  279   3.455   3.129   6.253 -2.5487 -1.0683  2.9589
    1PA     C14  280   3.256   3.074   6.228 -0.3288 -0.1127  0.0011
    1PA     H4R  281   3.190   3.159   6.243  0.6981  0.6302  0.4218
    1PA     H4S  282   3.199   3.003   6.168 -2.2977 -0.5875  2.2661
    1PA     C13  283   3.282   3.014   6.368  0.3402 -0.2179 -0.4386
    1PA     H3R  284   3.294   3.103   6.430 -0.1763 -0.2158 -0.3367
    1PA     H3S  285   3.191   2.967   6.407 -0.8764  1.1519 -1.5107
    1PA     C12  286   3.396   2.909   6.370 -1.0475  0.4972  0.0616
    1PA     H2R  287   3.367   2.829   6.301  0.1569 -0.1173  0.2425
    1PA     H2S  288   3.493   2.942   6.333 -0.2950 -2.3546 -0.7535
    1PC     C11  289   3.423   2.839   6.500 -0.0590 -0.0945 -0.2128
    1PC     O12  290   3.428   2.898   6.607  0.5655 -0.2918  0.2085
    1PC     O11  291   3.444   2.710   6.472 -0.0664 -0.1614 -0.3104
    1PC      C1  292   3.427   2.611   6.574 -0.9553 -0.1090  0.0347
    1PC      HR  293   3.454   2.510   6.544 -2.4295 -1.5553  3.1379
    1PC      HS  294   3.504   2.624   6.651 -1.1971  0.4709  0.1824
    1PC      C2  295   3.289   2.608   6.644  0.0767  0.2771 -0.1065
    1PC      HX  296   3.261   2.709   6.675  0.9224  0.3863  0.3311
    1PC      C3  297   3.278   2.520   6.776 -0.9930  0.4524 -0.2378
    1PC      HA  298   3.296   2.414   6.755  1.3353  0.9536 -1.1964
    1PC      HB  299   3.351   2.552   6.851 -0.1461  1.1858 -1.3358
    1PC     O31  300   3.146   2.523   6.831  0.2673  0.1597 -0.4458
    1PC     P31  301   3.091   2.639   6.924  0.1107  0.0420 -0.1188
    1PC     O32  302   3.095   2.566   7.062 -0.3179 -0.0788  0.0227
    1PC     C31  303   3.223   2.516   7.111  0.2179 -0.2104  1.0221
    1PC     H1A  304   3.271   2.449   7.039  1.1887 -1.9260  3.1463
    1PC     H1B  305   3.280   2.607   7.132  0.4032 -0.2716  0.7891
    1PC     C32  306   3.203   2.442   7.247  0.4036  0.1851  0.3082
    1PC     H2A  307   3.304   2.408   7.269  0.8907 -1.0357 -3.1969
    1PC     H2B  308   3.163   2.520   7.313  0.7053 -1.1050  2.1046
    1PC     N31  309   3.091   2.331   7.243  0.0020  0.2942  0.5995
    1PC     C33  310   2.968   2.403   7.277  0.1831  0.0851 -0.5487
    1PC     H3A  311   2.875   2.354   7.248 -1.3940  1.7554  1.3808
    1PC     H3B  312   2.954   2.436   7.380  0.5221  1.2866 -0.8672
    1PC     H3C  313   2.968   2.494   7.217 -2.9562  0.9054  0.4749
    1PC     C34  314   3.080   2.271   7.104  0.3442  0.7234  0.9773
    1PC     H4A  315   3.180   2.252   7.065  0.5160 -1.0091  2.1268
    1PC     H4B  316   3.032   2.173   7.113 -0.3036  0.7249 -1.6749
    1PC     H4C  317   3.029   2.336   7.033 -0.4429  0.6918  1.5020
    1PC     C35  318   3.119   2.216   7.337 -1.1291 -0.3867  0.1374
    1PC     H5A  319   3.115   2.257   7.438  0.7109  0.1061  0.0448
    1PC     H5B  320   3.217   2.169   7.327 -1.2958 -0.8711  0.6904
    1PC     H5C  321   3.044   2.142   7.309  0.5546 -1.2935 -2.3669
    1PC     O33  322   3.193   2.745   6.917 -0.5461  0.1025 -0.4190
    1PC     O34  323   2.952   2.665   6.903  0.1231  0.8238 -0.0799
    1PC     O21  324   3.200   2.556   6.539 -0.7715  0.5321 -0.2458
    1PC     C21  325   3.103   2.632   6.496  0.0004  0.2465 -0.0016
    1PC     O22  326   3.085   2.747   6.539  0.4465  0.1984 -0.0118
    1OL     C12  327   3.022   2.577   6.378 -0.0773  0.4566  0.3359
    1OL     H2R  328   2.919   2.612   6.378 -1.0677 -2.1902 -0.8104
    1OL     H2S  329   3.025   2.469   6.393  3.0786  0.6352  1.7460
    1OL     C13  330   3.091   2.614   6.246  0.1134 -0.2612 -0.3408
    1OL     H3R  331   3.085   2.723   6.239 -0.5576 -0.2393  0.3961
    1OL     H3S  332   3.021   2.578   6.171 -1.6608  0.4052  0.9123
    1OL     C14  333   3.231   2.555   6.221 -0.1929 -0.3748  0.0040
    1OL     H4R  334   3.238   2.446   6.227  3.9560 -0.3011 -0.6106
    1OL     H4S  335   3.297   2.587   6.302  0.1415  0.6395 -0.6489
    1OL     C15  336   3.297   2.605   6.094 -0.3670 -0.1262  0.3100
    1OL     H5R  337   3.371   2.528   6.071 -0.8328 -1.1886  2.1597
    1OL     H5S  338   3.358   2.695   6.105  0.1213 -0.0910 -2.1899
    1OL     C16  339   3.199   2.616   5.976 -0.6843  0.8821 -0.3678
    1OL     H6R  340   3.140   2.707   5.985 -1.8043 -0.0115  2.6315
    1OL     H6S  341   3.143   2.523   5.962  1.1776 -0.0298 -2.4969
    1OL     C17  342   3.287   2.635   5.849 -0.9329  0.1934 -0.3128
    1OL     H7R  343   3.354   2.550   5.833 -3.0790 -1.6996  0.2914
    1OL     H7S  344   3.349   2.723   5.864  0.2243 -0.9554  2.2261
    1OL     C18  345   3.208   2.652   5.722 -0.3966 -0.0700 -1.0011
    1OL     H8R  346   3.119   2.592   5.745  0.6079 -0.6695  1.7724
    1OL     H8S  347   3.258   2.611   5.634  1.4359 -0.3598  0.1143
    1OL     C19  348   3.166   2.803   5.708 -0.5923 -0.7762  0.0518
    1OL     H9R  349   3.073   2.837   5.752  0.3579  3.8911 -0.9763
    1OL    C110  350   3.230   2.888   5.628 -0.6683  0.3408 -0.3625
    1OL    H10R  351   3.193   2.988   5.604  0.1989  0.2712 -2.1243
    1OL    C111  352   3.361   2.861   5.554 -0.5830 -0.4679  0.7441
    1OL    H11R  353   3.343   2.812   5.458  0.1894 -2.3372  1.4995
    1OL    H11S  354   3.424   2.796   5.615 -1.9013 -0.1476  2.5150
    1OL    C112  355   3.443   2.991   5.535 -0.8419 -0.4443 -0.3372
    1OL    H12R  356   3.458   3.024   5.638  0.5274 -0.7938 -0.4004
    1OL    H12S  357   3.380   3.064   5.485 -0.2440 -0.4670 -1.1436
    1OL    C113  358   3.581   2.972   5.463  0.3211  0.4170 -0.1866
    1OL    H13R  359   3.566   2.926   5.365  0.5675  0.6448 -0.3329
    1OL    H13S  360   3.637   2.904   5.527 -2.3405 -1.5369  0.2270
    1OL    C114  361   3.656   3.107   5.444 -0.2057  0.1463 -0.1506
    1OL    H14R  362   3.667   3.156   5.541  0.4994 -0.2354 -0.0258
    1OL    H14S  363   3.600   3.172   5.377  0.3287 -0.3411 -1.0903
    1OL    C115  364   3.793   3.112   5.372  0.2912  0.2689 -0.3250
    1OL    H15R  365   3.786   3.063   5.274  1.5070  1.0517 -0.8381
    1OL    H15S  366   3.870   3.057   5.427  0.2257  1.8175  1.3819
    1OL    C116  367   3.843   3.250   5.347 -0.6470 -0.2442 -0.0891
    1OL    H16R  368   3.943   3.244   5.305 -0.5495 -0.6326  0.1933
    1OL    H16S  369   3.853   3.290   5.448  0.3613 -0.6362 -0.0193
    1OL    C117  370   3.759   3.343   5.258  0.0773  0.3360  0.2362
    1OL    H17R  371   3.812   3.437   5.238  2.2424 -1.4877 -3.8051
    1OL    H17S  372   3.661   3.365   5.301 -1.0013  0.5503 -2.2072
    1OL    C118  373   3.745   3.278   5.122  0.0375  0.0694  1.1573
    1OL    H18R  374   3.714   3.173   5.121 -0.6522  0.1801 -1.9465
    1OL    H18S  375   3.844   3.275   5.077  0.2076 -1.6878  1.5933
    1OL    H18T  376   3.672   3.329   5.059 -1.1750 -0.0711  2.4012
    1PA    C116  377   3.934   2.016   5.075  0.3162 -0.3671 -0.1243
    1PA    H16R  378   3.995   1.978   4.993  0.4895 -1.0962  0.3291
    1PA    H16S  379   3.993   2.027   5.167  1.0643  2.7647 -0.8754
    1PA    H16T  380   3.887   2.112   5.058 -0.3845 -0.9194 -1.4071
    1PA    C115  381   3.811   1.923   5.113 -0.4833 -0.2591  0.0817
    1PA    H15R  382   3.755   1.916   5.019  1.8640 -2.4690 -1.3202
    1PA    H15S  383   3.846   1.823   5.141  0.4510  0.5940  2.1526
    1PA    C114  384   3.725   1.964   5.230  0.4781  0.1701 -0.0373
    1PA    H14R  385   3.676   2.056   5.197 -3.3716 -1.3844  0.8583
    1PA    H14S  386   3.651   1.886   5.245 -1.2508  2.0206  1.6135
    1PA    C113  387   3.795   1.991   5.365 -0.2310  0.2725  0.1477
    1PA    H13R  388   3.847   1.901   5.396 -0.8108  0.2426  1.0741
    1PA    H13S  389   3.858   2.079   5.346  0.7599 -0.2847  0.7756
    1PA    C112  390   3.693   2.031   5.478  0.1708 -0.1260 -0.0998
    1PA    H12R  391   3.639   2.115   5.435  1.6356  0.8791 -0.0577
    1PA    H12S  392   3.620   1.951   5.493 -0.4560  0.7867  2.0794
    1PA    C111  393   3.752   2.080   5.607  0.0330 -0.3689  0.7426
    1PA    H11R  394   3.795   2.176   5.578 -0.0408 -0.9310 -1.4261
    1PA    H11S  395   3.674   2.104   5.679 -1.1103  0.9550 -0.8466
    1PA    C110  396   3.863   2.004   5.683 -0.5759 -0.0068  0.0771
    1PA    H10R  397   3.829   1.900   5.681  1.3682 -0.7048 -2.4087
    1PA    H10S  398   3.964   2.013   5.641 -0.0555  1.8924  1.5678
    1PA     C19  399   3.873   2.076   5.821 -0.3590  0.1544  0.4713
    1PA     H9R  400   3.892   2.183   5.808  0.6780 -0.1008 -0.2482
    1PA     H9S  401   3.782   2.068   5.880 -1.1192 -0.2333 -0.7344
    1PA     C18  402   3.995   2.018   5.891 -0.3989 -0.1128 -0.1980
    1PA     H8R  403   3.980   1.910   5.895  3.4953 -0.8422 -0.7597
    1PA     H8S  404   4.083   2.034   5.829 -1.2226 -2.8430 -2.2757
    1PA     C17  405   4.014   2.081   6.032  0.8054  0.3036 -0.6501
    1PA     H7R  406   4.120   2.075   6.058  1.0762 -0.2828 -1.8027
    1PA     H7S  407   3.985   2.186   6.025 -1.3988 -0.0165  2.0163
    1PA     C16  408   3.935   2.014   6.143  0.5734 -0.2868  0.2055
    1PA     H6R  409   3.840   1.980   6.103  0.2756  0.9590 -0.1923
    1PA     H6S  410   3.992   1.927   6.176  0.7803  0.4619  1.9748
    1PA     C15  411   3.925   2.109   6.262  0.4727  1.0903  0.0573
    1PA     H5R  412   4.021   2.155   6.285  0.1522  0.3475  3.4111
    1PA     H5S  413   3.855   2.190   6.240 -2.6572 -0.9973  1.4843
    1PA     C14  414   3.869   2.033   6.385  0.6203 -0.1701 -0.1449
    1PA     H4R  415   3.811   2.102   6.447  1.7659  0.8120 -0.1410
    1PA     H4S  416   3.816   1.941   6.360  0.5260  0.1315 -1.1042
    1PA     C13  417   3.981   1.977   6.474  0.2400 -0.2115 -0.1565
    1PA     H3R  418   4.036   1.907   6.411 -1.3141 -1.4045 -0.2302
    1PA     H3S  419   4.037   2.066   6.503  1.7939 -1.0641 -0.4255
    1PA     C12  420   3.926   1.903   6.598  0.3601 -0.0003  0.3935
    1PA     H2R  421   3.871   1.813   6.571  1.3944 -0.2648 -0.9363
    1PA     H2S  422   4.015   1.871   6.653  0.9437 -0.4703 -0.7798
    1PC     C11  423   3.851   1.990   6.693 -0.6511  0.5343 -0.9357
    1PC     O12  424   3.911   2.054   6.774 -0.7771 -0.3361 -0.3169
    1PC     O11  425   3.714   1.984   6.683 -0.6487  0.4451  0.4375
    1PC      C1  426   3.644   2.057   6.782  0.0248 -0.0500 -0.2672
    1PC      HR  427   3.673   2.013   6.878 -1.9583 -0.3460  0.2484
    1PC      HS  428   3.665   2.164   6.779 -1.1210  0.1996  0.1043
    1PC      C2  429   3.494   2.036   6.765 -0.2436 -0.1249  0.1043
    1PC      HX  430   3.438   2.104   6.829 -1.3937 -0.7045 -0.2670
    1PC      C3  431   3.465   1.887   6.794 -0.2322  0.2691  0.3424
    1PC      HA  432   3.358   1.868   6.778 -0.4883  0.8568  1.2511
    1PC      HB  433   3.530   1.823   6.734 -1.2156  1.3521 -2.0397
    1PC     O31  434   3.499   1.851   6.930 -0.5865 -0.0275 -0.0503
    1PC     P31  435   3.404   1.898   7.054  0.3327 -0.0340  0.5351
    1PC     O32  436   3.310   1.767   7.050  0.1571 -0.1425 -0.4247
    1PC     C31  437   3.327   1.656   7.145  0.9130 -0.2715 -0.6403
    1PC     H1A  438   3.336   1.691   7.248  2.6509 -1.3445 -0.3748
    1PC     H1B  439   3.240   1.590   7.142 -0.2128  1.2149 -2.1257
    1PC     C32  440   3.456   1.579   7.110 -0.3069  0.3680 -0.1180
    1PC     H2A  441   3.543   1.644   7.097  0.0300 -0.3902 -2.1655
    1PC     H2B  442   3.478   1.511   7.192 -0.4678  0.6822  0.1866
    1PC     N31  443   3.449   1.475   6.996  0.6098 -0.1077 -0.1487
    1PC     C33  444   3.435   1.541   6.861  0.1586 -0.0771  0.3982
    1PC     H3A  445   3.508   1.621   6.863  1.6095 -1.3545  1.5276
    1PC     H3B  446   3.445   1.468   6.781 -0.7147 -0.3630  0.5322
    1PC     H3C  447   3.330   1.570   6.852 -0.3972 -1.9429  0.4430
    1PC     C34  448   3.577   1.397   7.002 -0.3240  0.7102 -0.1369
    1PC     H4A  449   3.567   1.318   6.927  1.8240  0.1858  0.0476
    1PC     H4B  450   3.662   1.465   6.999 -1.1948  1.9712  1.9081
    1PC     H4C  451   3.586   1.341   7.095  0.3406 -1.0902 -1.2282
    1PC     C35  452   3.337   1.376   7.004 -0.6458 -0.1385 -0.0862
    1PC     H5A  453   3.358   1.312   7.090 -0.5419  1.9430  1.5207
    1PC     H5B  454   3.329   1.326   6.908 -0.0914 -0.6017  0.1060
    1PC     H5C  455   3.251   1.439   7.029 -0.6942 -0.5355  0.7865
    1PC     O33  456   3.484   1.891   7.177  0.1598  0.1541 -0.5663
    1PC     O34  457   3.323   2.012   7.020 -0.7245  0.1722 -0.3577
    1PC     O21  458   3.453   2.061   6.624 -0.0536  0.1614 -0.1391
    1PC     C21  459   3.457   2.188   6.571 -0.8509  0.5029  0.0133
    1PC     O22  460   3.476   2.286   6.645  0.1122  0.4302  0.2761
    1OL     C12  461   3.409   2.196   6.424 -0.4560  0.3705 -0.6864
    1OL     H2R  462   3.335   2.275   6.432 -0.7859  0.0471 -0.5589
    1OL     H2S  463   3.357   2.104   6.394 -1.4894  0.0562  1.8698
    1OL     C13  464   3.521   2.240   6.333 -0.3023  0.2256 -0.0708
    1OL     H3R  465   3.611   2.188   6.366 -1.6076 -1.8040  0.5145
    1OL     H3S  466   3.534   2.346   6.356 -1.9609 -0.0285  2.4479
    1OL     C14  467   3.492   2.226   6.181  0.1177  0.2813  0.7574
    1OL     H4R  468   3.559   2.293   6.125 -0.8302 -0.7495 -1.7874
    1OL     H4S  469   3.392   2.262   6.156 -0.4297 -1.6692 -0.0562
    1OL     C15  470   3.506   2.084   6.122  0.0470 -0.2442 -0.1263
    1OL     H5R  471   3.429   2.023   6.170  0.3670 -1.1500 -0.7452
    1OL     H5S  472   3.599   2.037   6.156 -1.3223 -1.4059  2.2209
    1OL     C16  473   3.491   2.074   5.970 -0.1439  0.2244  0.1123
    1OL     H6R  474   3.516   1.970   5.949  0.7160 -0.1138  2.4978
    1OL     H6S  475   3.564   2.136   5.919  1.5227 -1.3565  0.4713
    1OL     C17  476   3.352   2.095   5.911  0.6545 -0.0790 -0.3109
    1OL     H7R  477   3.307   2.188   5.945 -1.7083 -1.7165  1.3692
    1OL     H7S  478   3.288   2.009   5.931 -0.9568  0.6428 -2.1260
    1OL     C18  479   3.356   2.102   5.760 -0.0847  0.0409 -0.0019
    1OL     H8R  480   3.431   2.042   5.708 -0.0865  0.1966 -0.1830
    1OL     H8S  481   3.383   2.206   5.737 -0.7941 -0.3034 -2.6938
    1OL     C19  482   3.226   2.066   5.692  0.0708 -0.2274 -0.6863
    1OL     H9R  483   3.143   2.048   5.759 -0.7870  0.8388 -1.4177
    1OL    C110  484   3.192   2.107   5.568  0.2600  0.1479  0.9634
    1OL    H10R  485   3.089   2.099   5.533 -0.4718 -0.0161  3.0098
    1OL    C111  486   3.291   2.164   5.462 -0.3932  0.1283 -0.0823
    1OL    H11R  487   3.281   2.098   5.376  1.5878 -2.6384  1.6250
    1OL    H11S  488   3.391   2.142   5.502  0.3623  0.4514 -1.7039
    1OL    C112  489   3.268   2.312   5.443  0.1731  0.1233 -0.4352
    1OL    H12R  490   3.281   2.361   5.539 -1.5210  3.4345 -1.7358
    1OL    H12S  491   3.166   2.339   5.417  0.3833  1.1421 -0.2599
    1OL    C113  492   3.374   2.385   5.349  0.0141  0.8123 -0.3027
    1OL    H13R  493   3.466   2.404   5.404  0.3228 -1.2020 -0.0604
    1OL    H13S  494   3.339   2.485   5.320  1.6409  1.3770 -0.4039
    1OL    C114  495   3.410   2.313   5.218 -0.0009  0.3706  0.1901
    1OL    H14R  496   3.470   2.226   5.246  1.7456  2.1260  2.2457
    1OL    H14S  497   3.483   2.369   5.159 -2.3263  1.6589 -1.6031
    1OL    C115  498   3.281   2.272   5.137 -0.5602  0.4455 -0.9255
    1OL    H15R  499   3.222   2.364   5.131 -2.8528 -0.9430 -1.0859
    1OL    H15S  500   3.218   2.215   5.205  2.4053  1.0356  2.6324
    1OL    C116  501   3.306   2.200   5.007  0.0266 -0.5610  0.1930
    1OL    H16R  502   3.403   2.228   4.966 -0.3613  0.6373  0.0544
    1OL    H16S  503   3.229   2.242   4.942  0.2915 -1.4015 -0.6993
    1OL    C117  504   3.297   2.044   5.024 -0.5432 -0.3116  0.2966
    1OL    H17R  505   3.200   2.024   5.069 -0.7890  0.4659  0.1228
    1OL    H17S  506   3.380   2.017   5.090  0.2275  0.9068 -0.1301
    1OL    C118  507   3.314   1.976   4.886 -0.3823  0.7523  0.2571
    1OL    H18R  508   3.221   2.001   4.835 -1.2998  0.9029  1.9373
    1OL    H18S  509   3.311   1.867   4.894 -0.4062  0.7967  0.9148
    1OL    H18T  510   3.400   1.995   4.822 -0.2261 -1.1159 -0.1463
    1PA    C116  511   2.757   1.822   4.860 -0.1565  0.1688 -0.4768
    1PA    H16R  512   2.782   1.720   4.830 -1.3467  0.1091 -1.3416
    1PA    H16S  513   2.847   1.883   4.861  0.6098 -0.9354 -0.1796
    1PA    H16T  514   2.692   1.878   4.793  0.9488  1.3085 -0.6311
    1PA    C115  515   2.687   1.816   5.002 -1.2487 -0.0088  0.1645
    1PA    H15R  516   2.659   1.915   5.040 -0.9254  0.3752 -0.5717
    1PA    H15S  517   2.593   1.761   4.996 -1.2290 -0.0691  0.3893
    1PA    C114  518   2.792   1.760   5.102  0.1707 -0.2580 -0.6367
    1PA    H14R  519   2.848   1.675   5.063  2.5485  1.0274 -0.2173
    1PA    H14S  520   2.867   1.837   5.123  0.0285 -0.2533 -0.1420
    1PA    C113  521   2.723   1.705   5.236 -0.3051 -0.0920  0.5614
    1PA    H13R  522   2.675   1.793   5.279 -2.3130 -0.7660 -0.2179
    1PA    H13S  523   2.643   1.638   5.206 -1.5087  0.3624  2.5836
    1PA    C112  524   2.814   1.648   5.342 -0.4031  0.7562 -0.3342
    1PA    H12R  525   2.746   1.626   5.425  0.7802 -0.7339  0.2816
    1PA    H12S  526   2.843   1.549   5.308 -2.1195  0.5080 -1.1736
    1PA    C111  527   2.935   1.737   5.382 -0.3002 -0.5927 -0.1160
    1PA    H11R  528   2.989   1.743   5.288 -1.2555 -2.0160 -0.7990
    1PA    H11S  529   2.896   1.835   5.411 -2.8594 -0.8984 -2.1044
    1PA    C110  530   3.031   1.676   5.494  0.2460 -0.1763 -0.8050
    1PA    H10R  531   3.069   1.576   5.471  1.0344  0.2703 -1.5283
    1PA    H10S  532   3.117   1.744   5.491  0.4315 -0.4341 -2.2842
    1PA     C19  533   2.961   1.678   5.628 -0.0124  0.1914  0.4376
    1PA     H9R  534   2.898   1.766   5.635 -0.6705  0.0926 -2.7288
    1PA     H9S  535   2.896   1.591   5.629  0.5207 -0.2207  1.7731
    1PA     C18  536   3.061   1.657   5.743 -0.4301 -0.7376  0.6950
    1PA     H8R  537   3.118   1.565   5.730  0.9722  0.1118  0.6137
    1PA     H8S  538   3.135   1.738   5.737 -0.0681 -1.1137 -0.0570
    1PA     C17  539   2.989   1.650   5.880 -0.7242  0.0684  0.7451
    1PA     H7R  540   2.931   1.741   5.895 -1.3318 -0.1537 -0.1805
    1PA     H7S  541   2.920   1.566   5.878  0.5514 -1.0183  0.8825
    1PA     C16  542   3.093   1.615   5.984  0.2570  0.0409 -0.3242
    1PA     H6R  543   3.146   1.521   5.968 -1.1975 -1.1997  1.7006
    1PA     H6S  544   3.167   1.691   6.009  1.3385 -1.0209 -0.2253
    1PA     C15  545   3.009   1.604   6.112  0.0483  0.0613 -0.1229
    1PA     H5R  546   2.961   1.701   6.123  1.3402  0.7480 -0.3715
    1PA     H5S  547   2.937   1.522   6.114 -0.3317  0.2284 -2.9683
    1PA     C14  548   3.108   1.582   6.229  0.3166  0.3001 -0.4714
    1PA     H4R  549   3.166   1.492   6.211 -0.0854 -0.7793  2.9037
    1PA     H4S  550   3.181   1.663   6.225 -0.5991  1.2223  0.7681
    1PA     C13  551   3.060   1.585   6.376 -0.4906  0.3519  0.4016
    1PA     H3R  552   2.999   1.673   6.400 -0.1180  0.9762 -0.8498
    1PA     H3S  553   2.988   1.504   6.383 -0.8814  0.7003  0.4519
    1PA     C12  554   3.176   1.579   6.475  0.3759  0.6893 -0.0336
    1PA     H2R  555   3.249   1.508   6.438 -1.4447 -1.1331 -0.3315
    1PA     H2S  556   3.227   1.676   6.474 -0.2874  1.0530 -2.0389
    1PC     C11  557   3.135   1.523   6.607 -0.2445 -0.3318 -0.4916
    1PC     O12  558   3.144   1.571   6.720 -0.0663 -0.5390  0.6454
    1PC     O11  559   3.089   1.395   6.585 -0.1848 -0.3429  0.0204
    1PC      C1  560   3.052   1.308   6.696  0.3270  0.9726  0.0887
    1PC      HR  561   3.026   1.209   6.658  2.7479  0.2486  0.1483
    1PC      HS  562   3.139   1.275   6.752 -2.0419 -2.6342  2.0378
    1PC      C2  563   2.933   1.350   6.787  0.6921 -0.9415 -0.3103
    1PC      HX  564   2.957   1.445   6.835  0.9478 -0.8802 -0.5607
    1PC      C3  565   2.909   1.238   6.897 -0.8799 -0.4090  0.8588
    1PC      HA  566   2.841   1.268   6.978 -0.6422  1.8896  0.2777
    1PC      HB  567   2.873   1.150   6.845 -0.7814 -0.6470  1.1925
    1PC     O31  568   3.033   1.218   6.955 -0.0374  0.1866 -0.5177
    1PC     P31  569   3.057   1.105   7.064 -0.4393 -0.5807  0.3120
    1PC     O32  570   3.043   1.175   7.210  0.3998  0.2446  0.1266
    1PC     C31  571   2.911   1.217   7.252  0.1498  0.2503  0.7813
    1PC     H1A  572   2.872   1.296   7.188  1.8792 -0.2122 -0.9563
    1PC     H1B  573   2.833   1.143   7.240 -0.4150  0.8053  0.9764
    1PC     C32  574   2.912   1.257   7.399 -0.1185 -0.8859 -0.5358
    1PC     H2A  575   2.811   1.285   7.429 -0.2117  0.3990 -1.9068
    1PC     H2B  576   2.947   1.176   7.462  0.1742 -1.6430 -1.6475
    1PC     N31  577   2.997   1.380   7.436 -0.4038 -0.8883  0.0174
    1PC     C33  578   2.960   1.441   7.567 -0.0905  0.2336  0.3095
    1PC     H3A  579   3.024   1.527   7.587  0.9274  0.6010 -3.6624
    1PC     H3B  580   2.862   1.488   7.559 -0.7155 -1.2844 -2.3743
    1PC     H3C  581   2.956   1.367   7.647 -1.9875 -0.5178 -0.4200
    1PC     C34  582   3.142   1.350   7.455 -0.3683  0.7686 -0.1085
    1PC     H4A  583   3.197   1.438   7.490  1.0878  0.3411 -1.2415
    1PC     H4B  584   3.154   1.269   7.526 -0.1228  2.0320  1.3537
    1PC     H4C  585   3.181   1.335   7.354  1.0690  1.1812  0.3612
    1PC     C35  586   2.996   1.485   7.334 -0.2053  0.2079 -0.5186
    1PC     H5A  587   3.060   1.566   7.368  0.0127 -0.0727 -0.2508
    1PC     H5B  588   2.894   1.521   7.320 -0.4243 -0.0145  0.4449
    1PC     H5C  589   3.035   1.445   7.240  0.3384 -0.6334  0.0526
    1PC     O33  590   2.949   0.999   7.046 -0.1586 -0.6320  0.2369
    1PC     O34  591   3.201   1.072   7.052  0.3775 -0.0086  0.4552
    1PC     O21  592   2.808   1.357   6.709  0.1194 -0.0956 -0.1476
    1PC     C21  593   2.785   1.473   6.644  0.2368  0.2407  0.1223
    1PC     O22  594   2.842   1.576   6.654  0.1012 -0.1376 -0.3818
    1OL     C12  595   2.659   1.452   6.557  0.1909  0.5151 -1.1278
    1OL     H2R  596   2.593   1.534   6.586 -1.4455 -0.3161 -2.3453
    1OL     H2S  597   2.610   1.357   6.576 -1.0683  1.1242 -1.2100
    1OL     C13  598   2.694   1.462   6.408 -0.9437  0.3855  0.1251
    1OL     H3R  599   2.769   1.386   6.386  0.0106  0.9536  1.2905
    1OL     H3S  600   2.738   1.559   6.384  1.6414 -0.7790 -0.1687
    1OL     C14  601   2.565   1.459   6.325  0.2254  0.6843  0.3986
    1OL     H4R  602   2.503   1.538   6.368  1.7978  2.1325  0.1048
    1OL     H4S  603   2.519   1.362   6.346 -0.4633  1.2356  1.4994
    1OL     C15  604   2.604   1.480   6.180 -1.1604  1.0808  0.5775
    1OL     H5R  605   2.634   1.388   6.130 -1.7951  1.3168 -0.2604
    1OL     H5S  606   2.680   1.559   6.182 -0.7281  0.6651  2.7988
    1OL     C16  607   2.492   1.546   6.098  0.2696  0.2104  0.7213
    1OL     H6R  608   2.458   1.635   6.151  1.0289  1.6155 -1.0412
    1OL     H6S  609   2.407   1.477   6.096 -0.7059  1.4107 -0.0855
    1OL     C17  610   2.525   1.574   5.954  0.1045  0.5968  0.4023
    1OL     H7R  611   2.435   1.584   5.893  0.5283 -2.5972 -0.9211
    1OL     H7S  612   2.572   1.488   5.905  0.1367  1.1901 -0.6373
    1OL     C18  613   2.617   1.699   5.923  0.3112 -0.1415 -0.0310
    1OL     H8R  614   2.710   1.680   5.979 -0.3161  0.8103  1.4055
    1OL     H8S  615   2.546   1.774   5.960 -3.4368 -2.8448 -1.2244
    1OL     C19  616   2.647   1.715   5.777  0.6404 -0.1265  0.4060
    1OL     H9R  617   2.717   1.640   5.741  0.6906 -0.4377  1.1334
    1OL    C110  618   2.601   1.802   5.688  0.8023  0.6791  0.2406
    1OL    H10R  619   2.638   1.786   5.587 -0.0848 -1.0979  0.1617
    1OL    C111  620   2.493   1.903   5.714 -0.5195  0.8862  0.3236
    1OL    H11R  621   2.541   1.988   5.764  0.0392 -0.3977  2.0559
    1OL    H11S  622   2.420   1.858   5.782 -1.0031  0.1585 -0.6562
    1OL    C112  623   2.410   1.949   5.590  0.4536 -0.0012  0.5056
    1OL    H12R  624   2.344   2.029   5.625  1.8314  1.3659  0.1011
    1OL    H12S  625   2.338   1.874   5.555  0.4005 -0.0133  0.6405
    1OL    C113  626   2.491   2.007   5.478 -0.3451 -0.3294 -0.1645
    1OL    H13R  627   2.585   1.960   5.448  0.9246  2.1580 -0.3002
    1OL    H13S  628   2.523   2.101   5.522  0.2630 -1.5014  2.0277
    1OL    C114  629   2.399   2.032   5.357 -0.1083  0.1688 -0.4810
    1OL    H14R  630   2.349   2.127   5.378 -0.1517 -0.1507  1.0188
    1OL    H14S  631   2.317   1.960   5.357 -1.2763  1.4438 -0.2528
    1OL    C115  632   2.474   2.039   5.226 -0.4304  0.2233 -0.0601
    1OL    H15R  633   2.551   1.963   5.231 -0.6619 -0.1024 -1.2181
    1OL    H15S  634   2.538   2.127   5.232 -0.2389  0.2692 -2.0151
    1OL    C116  635   2.407   2.032   5.086  0.5504  0.2231  0.4018
    1OL    H16R  636   2.329   1.959   5.064 -0.8470  2.1356 -1.3918
    1OL    H16S  637   2.477   2.016   5.003 -2.1051  0.0145 -1.9457
    1OL    C117  638   2.341   2.159   5.039  0.0237  0.1680 -0.3083
    1OL    H17R  639   2.329   2.158   4.931 -1.2031  0.2700 -0.1919
    1OL    H17S  640   2.398   2.251   5.058  2.1477 -0.8223 -1.5415
    1OL    C118  641   2.204   2.188   5.109  0.5528  0.1450 -0.4411
    1OL    H18R  642   2.203   2.221   5.213 -1.2271  0.3613 -0.4921
    1OL    H18S  643   2.144   2.097   5.099 -0.4895  0.3690  2.6175
    1OL    H18T  644   2.144   2.269   5.067  0.2092  0.4263  0.5518
    1PA    C116  645   2.107   3.025   5.302 -0.3908  0.4197  0.1435
    1PA    H16R  646   2.180   3.050   5.225  0.6029 -0.0589  0.9148
    1PA    H16S  647   2.015   2.993   5.252  0.0094 -2.3354  1.0453
    1PA    H16T  648   2.144   2.937   5.353 -1.8868 -0.1613  0.2871
    1PA    C115  649   2.079   3.139   5.393 -0.3349 -0.3315  0.0605
    1PA    H15R  650   2.057   3.223   5.326  0.1513  0.2682  0.6362
    1PA    H15S  651   1.998   3.120   5.465 -0.2260  0.2507  0.3424
    1PA    C114  652   2.212   3.171   5.460  0.6286 -0.1106  0.5221
    1PA    H14R  653   2.248   3.075   5.497  0.5427 -0.0093  0.8698
    1PA    H14S  654   2.284   3.215   5.391 -1.1908  3.9846  0.9316
    1PA    C113  655   2.190   3.258   5.585  0.2573 -0.5075  0.4913
    1PA    H13R  656   2.164   3.359   5.554 -1.0912 -0.0738  2.7960
    1PA    H13S  657   2.106   3.217   5.641  1.6320 -1.5941  1.8483
    1PA    C112  658   2.296   3.262   5.693  0.3011  0.7180 -0.4776
    1PA    H12R  659   2.323   3.166   5.738  2.8142  2.3656  1.8906
    1PA    H12S  660   2.385   3.305   5.647  0.9369 -1.6701 -1.6415
    1PA    C111  661   2.236   3.336   5.816  0.0819 -0.4940  0.0195
    1PA    H11R  662   2.218   3.440   5.788  1.3569 -0.4586 -0.7661
    1PA    H11S  663   2.139   3.290   5.834 -1.4561  0.2729 -4.7958
    1PA    C110  664   2.348   3.342   5.926  0.3325  0.1616 -0.1116
    1PA    H10R  665   2.356   3.256   5.993  0.5807 -2.0857 -2.8067
    1PA    H10S  666   2.448   3.344   5.881 -0.0155  0.9083 -0.8845
    1PA     C19  667   2.331   3.470   6.014 -0.8067 -0.2806  0.0859
    1PA     H9R  668   2.225   3.483   6.036 -1.2154 -2.8441 -0.0905
    1PA     H9S  669   2.389   3.460   6.106 -1.3912 -1.3755  0.3534
    1PA     C18  670   2.372   3.591   5.940 -0.6768 -0.5172  0.0689
    1PA     H8R  671   2.477   3.586   5.910 -0.6772 -0.3852  0.0468
    1PA     H8S  672   2.309   3.605   5.852 -1.4558 -2.2998  0.2981
    1PA     C17  673   2.355   3.707   6.043 -0.4815  0.0731 -0.3563
    1PA     H7R  674   2.348   3.802   5.990  3.7147  0.4839 -0.5072
    1PA     H7S  675   2.266   3.696   6.105 -1.0336 -1.2969 -1.3138
    1PA     C16  676   2.481   3.723   6.126  0.7404 -0.2613 -0.0890
    1PA     H6R  677   2.506   3.631   6.179 -2.5475 -0.8599  0.6635
    1PA     H6S  678   2.573   3.729   6.067  1.7763  1.3600  1.6114
    1PA     C15  679   2.484   3.845   6.216 -0.2409  0.5924  0.1101
    1PA     H5R  680   2.482   3.930   6.148 -0.0070  0.8043  0.3650
    1PA     H5S  681   2.392   3.837   6.274 -0.1614  0.4981  0.2231
    1PA     C14  682   2.602   3.867   6.312 -0.5541 -0.1416 -0.3025
    1PA     H4R  683   2.696   3.882   6.260 -1.2988 -0.1016 -1.6941
    1PA     H4S  684   2.587   3.964   6.359 -1.0207 -0.3624  0.0117
    1PA     C13  685   2.627   3.765   6.424  0.5321  0.2614  0.1107
    1PA     H3R  686   2.680   3.681   6.377  1.1141  1.5904 -1.7212
    1PA     H3S  687   2.697   3.806   6.496 -0.7203 -1.4114  2.4078
    1PA     C12  688   2.500   3.710   6.496  0.2015  0.4386 -0.5867
    1PA     H2R  689   2.441   3.790   6.541  1.2545  0.8632  0.0589
    1PA     H2S  690   2.428   3.655   6.435  1.2709 -0.8808 -0.6991
    1PC     C11  691   2.544   3.612   6.607  0.3580 -1.0780  0.2569
    1PC     O12  692   2.661   3.589   6.626  0.0396  0.5121  0.0386
    1PC     O11  693   2.446   3.581   6.688 -0.0779 -0.1749 -0.6482
    1PC      C1  694   2.471   3.496   6.797  0.1439 -0.2417  0.4037
    1PC      HR  695   2.563   3.517   6.852  1.2063  0.4547 -1.5578
    1PC      HS  696   2.391   3.517   6.869 -1.1050 -1.8724 -0.4583
    1PC      C2  697   2.465   3.348   6.756  0.8875  0.3707 -0.2842
    1PC      HX  698   2.363   3.321   6.731  1.2659  0.1985 -1.7059
    1PC      C3  699   2.500   3.248   6.873  0.1467  0.5339  0.0483
    1PC      HA  700   2.480   3.146   6.840 -0.9186 -0.1295  2.4715
    1PC      HB  701   2.607   3.260   6.890  0.2970  1.7765 -1.5094
    1PC     O31  702   2.425   3.262   6.999  0.1459  0.1172 -0.5172
    1PC     P31  703   2.479   3.223   7.145  0.1999  0.3029  0.2397
    1PC     O32  704   2.517   3.071   7.133  0.8119  0.4732  0.1224
    1PC     C31  705   2.634   3.031   7.065 -0.2721 -0.2801 -0.0053
    1PC     H1A  706   2.607   2.939   7.012  1.2956  0.7997 -2.9090
    1PC     H1B  707   2.670   3.115   7.005  1.2131  0.7290  2.1906
    1PC     C32  708   2.729   3.008   7.181  0.9421  0.2219  0.6267
    1PC     H2A  709   2.744   3.102   7.236  0.6601  2.2116 -2.4869
    1PC     H2B  710   2.687   2.943   7.258 -0.2670  1.0425  0.6804
    1PC     N31  711   2.868   2.952   7.144  0.1532 -0.0776 -0.0379
    1PC     C33  712   2.860   2.801   7.159  0.0068  0.0929  0.1108
    1PC     H3A  713   2.864   2.769   7.263 -1.7114 -1.8393 -0.3596
    1PC     H3B  714   2.770   2.771   7.105  0.8688  0.2360 -1.4651
    1PC     H3C  715   2.950   2.759   7.114 -0.2062  0.2996 -0.5173
    1PC     C34  716   2.905   2.982   7.009 -0.2832 -0.8484  0.1062
    1PC     H4A  717   2.996   2.922   6.998  0.6955  0.7720 -1.2899
    1PC     H4B  718   2.832   2.965   6.930 -1.8375  2.7615  0.5393
    1PC     H4C  719   2.929   3.089   7.012 -2.4566 -0.2944 -0.6295
    1PC     C35  720   2.974   2.999   7.237  0.1913  0.4351  0.1600
    1PC     H5A  721   3.071   2.972   7.197  0.6990 -0.1140  1.7178
    1PC     H5B  722   2.952   2.958   7.335  1.6364 -0.4822  0.1279
    1PC     H5C  723   2.971   3.108   7.239 -4.0589  0.4850  0.1515
    1PC     O33  724   2.595   3.303   7.171 -0.2845  0.1034 -0.0087
    1PC     O34  725   2.362   3.225   7.238  0.5193 -0.2072 -0.5848
    1PC     O21  726   2.555   3.319   6.650 -0.0648  0.0164 -0.1062
    1PC     C21  727   2.500   3.294   6.528 -0.0771 -0.1497  0.1301
    1PC     O22  728   2.387   3.320   6.489  0.7896 -0.0815 -0.5784
    1OL     C12  729   2.606   3.255   6.432 -0.4401  0.2633  0.4848
    1OL     H2R  730   2.588   3.159   6.383 -0.7805  1.2835 -1.4997
    1OL     H2S  731   2.701   3.256   6.487  0.0524  1.6386 -0.3186
    1OL     C13  732   2.619   3.363   6.325  0.1844 -0.1697 -0.5041
    1OL     H3R  733   2.652   3.455   6.373  0.4554  1.7414 -3.9766
    1OL     H3S  734   2.523   3.383   6.277  0.6294  0.3004 -1.2175
    1OL     C14  735   2.729   3.331   6.228  0.1000 -0.4756 -0.2642
    1OL     H4R  736   2.827   3.306   6.270 -0.2025 -1.4350 -0.1022
    1OL     H4S  737   2.750   3.426   6.179  1.9002 -0.6596  0.0699
    1OL     C15  738   2.683   3.234   6.126 -0.1218  0.0219 -0.2614
    1OL     H5R  739   2.616   3.287   6.057  0.5409  1.4340  0.1453
    1OL     H5S  740   2.630   3.153   6.176  1.7402 -1.3842 -0.4451
    1OL     C16  741   2.800   3.171   6.045 -0.6666 -0.0529  0.1949
    1OL     H6R  742   2.856   3.109   6.116  0.1911  0.4728 -0.0081
    1OL     H6S  743   2.865   3.251   6.011  2.5123 -2.1594  0.8346
    1OL     C17  744   2.761   3.082   5.925  0.2033 -0.0856 -0.1576
    1OL     H7R  745   2.677   3.132   5.876 -1.7999 -1.6206  1.5832
    1OL     H7S  746   2.719   2.989   5.963 -0.9775  0.4594 -0.0787
    1OL     C18  747   2.886   3.044   5.836 -0.2602 -0.6627 -0.4905
    1OL     H8R  748   2.859   2.973   5.757 -0.8950 -0.2838 -0.6226
    1OL     H8S  749   2.947   2.982   5.903 -0.4702 -0.4792 -0.1282
    1OL     C19  750   2.952   3.168   5.777 -0.0562 -0.6997  0.0089
    1OL     H9R  751   2.967   3.242   5.855 -0.5035 -2.6524  2.0385
    1OL    C110  752   2.993   3.191   5.657  0.0095  0.2141 -0.1085
    1OL    H10R  753   3.044   3.281   5.624 -2.0923  1.6462  0.3725
    1OL    C111  754   2.970   3.093   5.543 -0.1105  0.7008  0.4432
    1OL    H11R  755   2.973   2.987   5.570  4.2434  1.0365  2.1867
    1OL    H11S  756   3.052   3.114   5.474 -0.7518 -1.5913 -1.1350
    1OL    C112  757   2.826   3.124   5.487 -0.0969  0.4672  0.5877
    1OL    H12R  758   2.814   3.227   5.455 -1.3037  0.5183  1.1347
    1OL    H12S  759   2.755   3.094   5.565  1.0500  2.9934  2.7570
    1OL    C113  760   2.798   3.043   5.359 -0.1191  0.1307 -0.3151
    1OL    H13R  761   2.821   2.941   5.390 -1.5901  0.1510  0.9875
    1OL    H13S  762   2.870   3.060   5.278  1.8090  0.9203  1.4778
    1OL    C114  763   2.649   3.057   5.319  0.2583 -0.1450  0.6414
    1OL    H14R  764   2.629   3.165   5.324  3.7338  0.5911  0.8516
    1OL    H14S  765   2.599   2.999   5.397 -0.7647 -1.9682 -1.2643
    1OL    C115  766   2.631   3.012   5.175  0.2970  0.7886 -0.3492
    1OL    H15R  767   2.665   2.908   5.165  0.2599  0.8572 -1.2221
    1OL    H15S  768   2.705   3.071   5.121  0.7226  0.6560  0.0834
    1OL    C116  769   2.492   3.035   5.126  0.2413  0.2967  0.0328
    1OL    H16R  770   2.466   3.141   5.138  2.3064  0.8282  0.1392
    1OL    H16S  771   2.433   2.970   5.192  1.3077 -1.7102 -0.9235
    1OL    C117  772   2.477   2.999   4.980  0.2273  0.1229 -0.2932
    1OL    H17R  773   2.474   2.891   4.964  1.4062 -0.2299  1.5263
    1OL    H17S  774   2.551   3.047   4.916  0.0986  0.2033 -0.3814
    1OL    C118  775   2.350   3.038   4.916  0.3089  0.0056  0.7934
    1OL    H18R  776   2.341   3.020   4.809  1.4659  1.3221  0.4386
    1OL    H18S  777   2.338   3.145   4.939  1.3396  0.1433  0.7304
    1OL    H18T  778   2.267   2.980   4.956 -0.5405 -0.4131 -1.4456
    1PA    C116  779   2.388   2.625   5.245 -0.5330 -0.0458  0.3555
    1PA    H16R  780   2.444   2.697   5.305  0.9312  1.1146 -2.2368
    1PA    H16S  781   2.360   2.687   5.159  0.6557  1.4275  0.9809
    1PA    H16T  782   2.463   2.550   5.219 -0.6381 -0.3517  0.9324
    1PA    C115  783   2.275   2.560   5.321 -0.1119 -0.1542  0.3666
    1PA    H15R  784   2.224   2.628   5.389  0.0834 -0.4728  0.8425
    1PA    H15S  785   2.210   2.501   5.256  0.4960  0.7203 -1.0973
    1PA    C114  786   2.335   2.453   5.414  0.0683  0.4082  0.3087
    1PA    H14R  787   2.400   2.382   5.362 -1.2474 -0.5984 -0.0134
    1PA    H14S  788   2.391   2.507   5.491 -1.7683  0.3056  1.7769
    1PA    C113  789   2.233   2.381   5.504 -0.2995  0.0275 -0.1955
    1PA    H13R  790   2.145   2.443   5.520 -0.8626 -0.9659  0.6959
    1PA    H13S  791   2.193   2.296   5.449  2.2080 -1.0996 -0.3938
    1PA    C112  792   2.298   2.336   5.639 -0.0572 -0.2775  0.3414
    1PA    H12R  793   2.380   2.264   5.635 -1.2531 -1.6273 -0.7609
    1PA    H12S  794   2.343   2.419   5.693  0.6374 -1.0507  0.9799
    1PA    C111  795   2.192   2.272   5.732 -0.2984  0.0668  0.3492
    1PA    H11R  796   2.105   2.338   5.727 -0.8640 -0.7087 -0.4319
    1PA    H11S  797   2.154   2.178   5.691  0.9550 -1.4815  2.5768
    1PA    C110  798   2.234   2.252   5.878 -0.2675 -0.2559 -0.7334
    1PA    H10R  799   2.262   2.342   5.933 -2.5965 -0.3011  0.6441
    1PA    H10S  800   2.140   2.219   5.922  1.3326 -1.4709  2.0700
    1PA     C19  801   2.346   2.152   5.913  0.1206 -0.4837 -0.7129
    1PA     H9R  802   2.302   2.053   5.900 -0.4914 -0.7980  2.8041
    1PA     H9S  803   2.436   2.172   5.855  0.4311 -0.6084 -0.2826
    1PA     C18  804   2.386   2.146   6.065  0.6380  0.1859 -0.8147
    1PA     H8R  805   2.427   2.243   6.093 -0.5943  0.0164  1.8600
    1PA     H8S  806   2.304   2.127   6.134  1.7144  1.6295  0.9357
    1PA     C17  807   2.498   2.037   6.079 -0.2431  0.3200 -0.5471
    1PA     H7R  808   2.471   1.941   6.036 -2.5439  0.5296  0.3072
    1PA     H7S  809   2.575   2.074   6.011 -1.7433  1.0888 -1.8974
    1PA     C16  810   2.539   2.019   6.231 -0.6558  0.4448 -0.4258
    1PA     H6R  811   2.604   2.098   6.268 -1.2444  0.3772  0.8143
    1PA     H6S  812   2.446   2.021   6.288  0.0112 -1.4224  0.8323
    1PA     C15  813   2.617   1.888   6.264 -0.4689 -0.3816  0.4481
    1PA     H5R  814   2.553   1.800   6.259 -0.3802 -0.5325  1.5706
    1PA     H5S  815   2.688   1.878   6.182 -0.4472 -1.7612  0.6114
    1PA     C14  816   2.709   1.895   6.385 -0.0549 -0.2244  0.0996
    1PA     H4R  817   2.785   1.818   6.370 -1.3926 -1.4520 -0.6078
    1PA     H4S  818   2.757   1.993   6.390  1.6994 -1.0784  0.5305
    1PA     C13  819   2.628   1.866   6.511 -0.5981 -0.8551 -0.2240
    1PA     H3R  820   2.545   1.937   6.519  0.3727  0.4550 -1.3608
    1PA     H3S  821   2.578   1.769   6.498 -1.8150 -0.1306 -1.1640
    1PA     C12  822   2.712   1.899   6.634 -0.0356 -0.1530  0.7531
    1PA     H2R  823   2.798   1.832   6.641 -2.3045 -3.3748  0.0219
    1PA     H2S  824   2.748   2.002   6.622  1.9175 -0.9351 -0.4123
    1PC     C11  825   2.626   1.878   6.755 -0.4790  0.1051 -0.3414
    1PC     O12  826   2.513   1.921   6.764 -0.3401 -0.4400  0.5687
    1PC     O11  827   2.684   1.805   6.857 -0.7244  0.0324 -0.0954
    1PC      C1  828   2.608   1.762   6.974  0.1313 -0.5592 -0.6804
    1PC      HR  829   2.675   1.772   7.060 -2.9164 -1.0111  1.9059
    1PC      HS  830   2.517   1.821   6.984 -0.2657 -1.0941 -1.0860
    1PC      C2  831   2.558   1.619   6.977  0.1883 -0.3502  0.0114
    1PC      HX  832   2.488   1.609   7.060  0.6942  0.5364  0.5678
    1PC      C3  833   2.673   1.517   7.000 -0.5154 -0.2628 -0.5310
    1PC      HA  834   2.728   1.509   6.906 -0.9424  0.6818 -0.8690
    1PC      HB  835   2.740   1.555   7.077 -1.5426  2.2913 -0.8025
    1PC     O31  836   2.626   1.387   7.033  0.3707  0.2967  0.2157
    1PC     P31  837   2.573   1.366   7.181 -0.1644 -0.2974  0.1712
    1PC     O32  838   2.415   1.396   7.180  0.1980  0.4634 -0.6183
    1PC     C31  839   2.318   1.294   7.132  0.3737  0.8046  0.8755
    1PC     H1A  840   2.218   1.335   7.113  0.2609  0.5589  0.9337
    1PC     H1B  841   2.363   1.250   7.042  0.8359  0.3337  1.3302
    1PC     C32  842   2.290   1.192   7.236 -0.2621  0.3165 -0.0970
    1PC     H2A  843   2.256   1.101   7.185  0.8799  0.8482 -1.9104
    1PC     H2B  844   2.373   1.154   7.296 -1.4918 -0.4627  1.1885
    1PC     N31  845   2.194   1.232   7.346  0.7224 -0.2352  0.8611
    1PC     C33  846   2.160   1.122   7.437 -0.7023  0.2993  0.0176
    1PC     H3A  847   2.255   1.075   7.461  0.3163  2.7262  1.0097
    1PC     H3B  848   2.114   1.153   7.531 -0.5242 -0.1737  0.2651
    1PC     H3C  849   2.082   1.060   7.392  1.1458 -1.7749 -0.4837
    1PC     C34  850   2.250   1.339   7.427  0.0494 -0.2696  0.0456
    1PC     H4A  851   2.178   1.368   7.504  0.4150 -0.5209  0.4832
    1PC     H4B  852   2.338   1.293   7.471 -1.5812 -2.4679  1.2196
    1PC     H4C  853   2.270   1.427   7.366  0.1191 -0.3087  0.0124
    1PC     C35  854   2.062   1.275   7.300  0.2172  0.2097  0.3792
    1PC     H5A  855   2.057   1.361   7.233 -2.1444 -0.1317  0.0071
    1PC     H5B  856   2.009   1.309   7.389 -1.3524 -0.7164 -0.1530
    1PC     H5C  857   2.011   1.190   7.253 -1.0020  0.6552  0.8510
    1PC     O33  858   2.584   1.220   7.214  0.5461 -0.3215 -0.3196
    1PC     O34  859   2.640   1.460   7.268 -0.2079  0.3776  0.0667
    1PC     O21  860   2.485   1.588   6.857 -0.1176 -0.0681  0.3236
    1PC     C21  861   2.360   1.631   6.850 -0.5154  1.0261 -0.7914
    1PC     O22  862   2.309   1.701   6.938  0.1458 -0.3539  0.0488
    1OL     C12  863   2.292   1.571   6.729 -0.0079 -0.1631 -0.3462
    1OL     H2R  864   2.199   1.529   6.769 -0.1315 -0.5525 -1.0326
    1OL     H2S  865   2.359   1.492   6.692 -0.6026 -0.0967 -1.5887
    1OL     C13  866   2.264   1.666   6.611  0.4669  0.1540  0.4702
    1OL     H3R  867   2.350   1.731   6.595 -0.9357  2.3714  1.4745
    1OL     H3S  868   2.186   1.739   6.634 -0.9233 -0.9120 -0.7136
    1OL     C14  869   2.219   1.594   6.483 -0.4669 -0.6879 -0.2314
    1OL     H4R  870   2.121   1.548   6.494 -0.8051  0.0810  0.0665
    1OL     H4S  871   2.293   1.517   6.459  0.3957  0.2711 -0.7200
    1OL     C15  872   2.217   1.684   6.350 -0.2842  0.3919 -0.8603
    1OL     H5R  873   2.198   1.623   6.262  0.9849 -3.4895  1.2785
    1OL     H5S  874   2.316   1.725   6.329  0.5176 -0.3820  1.1331
    1OL     C16  875   2.113   1.794   6.368 -0.4498  0.6658 -0.5841
    1OL     H6R  876   2.126   1.861   6.453 -4.7922 -1.2058  1.9024
    1OL     H6S  877   2.012   1.753   6.370 -0.9251  1.7951  0.8641
    1OL     C17  878   2.113   1.888   6.247 -0.4526 -0.0137 -0.4202
    1OL     H7R  879   2.216   1.916   6.225 -0.3759  1.0474  1.1397
    1OL     H7S  880   2.060   1.978   6.279 -3.6149 -1.6859 -0.5608
    1OL     C18  881   2.051   1.824   6.127 -0.6660  0.0855 -0.2266
    1OL     H8R  882   1.944   1.815   6.145 -0.6019  0.2244  0.2295
    1OL     H8S  883   2.101   1.728   6.112 -1.0642 -0.0623 -0.6003
    1OL     C19  884   2.076   1.918   6.006  0.1205 -0.2468  0.4261
    1OL     H9R  885   2.105   2.021   6.023 -1.8831  0.1514  1.7836
    1OL    C110  886   2.071   1.870   5.881 -0.9571 -0.2620  0.2108
    1OL    H10R  887   2.095   1.941   5.803 -2.0670 -0.8243 -0.6785
    1OL    C111  888   2.049   1.725   5.827 -0.4128  0.2948 -0.3760
    1OL    H11R  889   1.950   1.718   5.781 -0.9649  3.4145  0.1291
    1OL    H11S  890   2.062   1.650   5.906 -2.0987 -1.5566 -1.7675
    1OL    C112  891   2.153   1.697   5.720 -0.4327 -1.0822  0.0667
    1OL    H12R  892   2.251   1.703   5.768 -0.2647  1.3099 -0.4801
    1OL    H12S  893   2.159   1.771   5.641 -0.1826 -2.6938 -1.4893
    1OL    C113  894   2.129   1.564   5.655 -0.5719  0.3245 -0.2246
    1OL    H13R  895   2.024   1.539   5.635 -0.4875 -0.6737  0.4766
    1OL    H13S  896   2.166   1.485   5.721 -2.1272 -0.7641 -0.5889
    1OL    C114  897   2.191   1.539   5.513  0.0068 -0.0138 -0.6631
    1OL    H14R  898   2.279   1.603   5.497 -0.6898  2.2374  3.2670
    1OL    H14S  899   2.119   1.564   5.435  0.5350 -0.1040 -1.1873
    1OL    C115  900   2.225   1.392   5.484 -0.5051 -0.7999  0.0759
    1OL    H15R  901   2.244   1.376   5.378  1.3315  1.4118  0.0145
    1OL    H15S  902   2.141   1.337   5.527 -1.7294  0.9217  0.0008
    1OL    C116  903   2.359   1.359   5.552  0.3355 -0.0362  0.4666
    1OL    H16R  904   2.374   1.254   5.525 -1.4628 -0.1792 -0.0962
    1OL    H16S  905   2.363   1.367   5.661  2.1248  3.2145  0.2984
    1OL    C117  906   2.487   1.433   5.506 -0.6150  0.7966 -0.8247
    1OL    H17R  907   2.477   1.538   5.533 -1.5413  0.6589 -0.6038
    1OL    H17S  908   2.502   1.419   5.398 -2.2988 -0.2022 -0.9731
    1OL    C118  909   2.610   1.371   5.577 -0.4541 -0.4487  0.1151
    1OL    H18R  910   2.601   1.349   5.683 -0.4379  3.1672  0.9800
    1OL    H18S  911   2.700   1.429   5.555 -0.1175  0.0244  2.5032
    1OL    H18T  912   2.626   1.280   5.518 -1.6566 -0.0486 -0.8785
    1PA    C116  913   2.251   3.463   5.210 -0.5006  0.2713  0.3838
    1PA    H16R  914   2.290   3.372   5.164  0.3639  1.5964 -1.7103
    1PA    H16S  915   2.257   3.544   5.136  2.8742 -0.6682 -0.5932
    1PA    H16T  916   2.151   3.445   5.249  0.5287 -0.0662  3.0214
    1PA    C115  917   2.351   3.497   5.323 -0.0213  0.1538  0.5014
    1PA    H15R  918   2.304   3.586   5.367 -1.2097 -1.8324  3.6281
    1PA    H15S  919   2.334   3.429   5.407 -1.9431  0.1638  0.1697
    1PA    C114  920   2.497   3.513   5.275  0.4511 -1.2231  0.0367
    1PA    H14R  921   2.527   3.418   5.232  0.0215  0.2239 -3.8548
    1PA    H14S  922   2.510   3.597   5.207 -1.7215  0.0887  1.0974
    1PA    C113  923   2.590   3.535   5.391 -0.1679  0.4158  0.4383
    1PA    H13R  924   2.596   3.447   5.455  1.7662 -0.7253 -1.2055
    1PA    H13S  925   2.690   3.529   5.349 -1.0174  0.7759 -1.7779
    1PA    C112  926   2.569   3.671   5.469 -0.4308 -0.1155  0.1668
    1PA    H12R  927   2.570   3.762   5.408 -0.4204  0.0849  0.4607
    1PA    H12S  928   2.471   3.661   5.516  1.5606 -1.3544  4.5874
    1PA    C111  929   2.669   3.698   5.582 -0.6661  0.9422 -0.1355
    1PA    H11R  930   2.757   3.741   5.534 -1.2446  2.3346 -0.0063
    1PA    H11S  931   2.628   3.777   5.645 -1.0044 -0.3164  1.2854
    1PA    C110  932   2.709   3.575   5.666  0.5981  0.4671 -0.4447
    1PA    H10R  933   2.612   3.535   5.697  1.0285  0.6645  1.2322
    1PA    H10S  934   2.757   3.497   5.608 -0.7888 -1.0247  0.3351
    1PA     C19  935   2.794   3.608   5.784 -0.0272 -0.0720 -0.8883
    1PA     H9R  936   2.892   3.634   5.742  1.6125 -1.4500  1.8186
    1PA     H9S  937   2.749   3.696   5.830  3.0487  1.1957 -0.0393
    1PA     C18  938   2.833   3.500   5.881  0.0368 -0.0000 -0.2059
    1PA     H8R  939   2.763   3.493   5.964 -0.5327  1.5953 -0.5255
    1PA     H8S  940   2.822   3.408   5.823 -0.2227 -0.1836  0.1353
    1PA     C17  941   2.974   3.505   5.947  0.2569 -0.4356  0.1043
    1PA     H7R  942   2.981   3.426   6.022  0.7924 -0.6822 -0.2010
    1PA     H7S  943   3.049   3.486   5.870 -0.5416 -0.2123 -0.7415
    1PA     C16  944   3.002   3.637   6.017 -0.2266  0.3290 -0.0458
    1PA     H6R  945   3.017   3.715   5.942 -2.5398  3.1273  2.1737
    1PA     H6S  946   2.912   3.664   6.073 -0.7322 -0.1636 -0.6048
    1PA     C15  947   3.137   3.623   6.096  0.7778  0.3916  0.2436
    1PA     H5R  948   3.156   3.525   6.141  1.1917  0.6217  0.5749
    1PA     H5S  949   3.213   3.623   6.018  0.3569 -2.3721 -0.2519
    1PA     C14  950   3.161   3.737   6.194  0.2060 -0.1185 -0.6455
    1PA     H4R  951   3.267   3.737   6.222  1.2852 -3.0904 -3.9142
    1PA     H4S  952   3.143   3.827   6.135 -2.6661  0.5351  1.0544
    1PA     C13  953   3.062   3.748   6.312  0.6553 -0.6605 -0.5575
    1PA     H3R  954   2.959   3.754   6.276  0.4934 -0.2870 -0.0334
    1PA     H3S  955   3.070   3.662   6.378  1.0169 -0.1810  0.0349
    1PA     C12  956   3.092   3.862   6.411  0.6088  0.0450  0.8878
    1PA     H2R  957   3.197   3.845   6.436  0.6800 -0.3661  0.3488
    1PA     H2S  958   3.079   3.961   6.367 -0.9594 -1.2283 -1.8083
    1PC     C11  959   3.002   3.855   6.534  0.0807  0.7462 -0.8740
    1PC     O12  960   2.884   3.894   6.552  0.5891  0.3159 -0.5439
    1PC     O11  961   3.083   3.786   6.623 -0.0572 -0.5296  0.4262
    1PC      C1  962   3.015   3.758   6.753  0.0195 -0.4520  0.2966
    1PC      HR  963   2.970   3.842   6.807 -2.7847 -1.2215 -0.6724
    1PC      HS  964   2.938   3.684   6.732  2.1494 -2.6489 -0.3157
    1PC      C2  965   3.122   3.689   6.843 -0.0249  0.1137  0.5309
    1PC      HX  966   3.139   3.593   6.795 -0.4975  2.1689 -4.3576
    1PC      C3  967   3.073   3.679   6.988 -0.0744  0.0102 -0.2007
    1PC      HA  968   3.067   3.771   7.046 -2.9462  0.3474 -0.9114
    1PC      HB  969   2.970   3.643   6.985 -0.1939  0.4351 -2.2237
    1PC     O31  970   3.165   3.595   7.066 -0.1561  0.2895  0.4456
    1PC     P31  971   3.114   3.478   7.166  0.4396  0.2148  0.2926
    1PC     O32  972   3.096   3.363   7.054  0.1231  0.7620 -0.6468
    1PC     C31  973   3.193   3.269   7.022 -0.8117 -1.0898 -0.3946
    1PC     H1A  974   3.233   3.239   7.119  1.6126  2.0021 -0.2633
    1PC     H1B  975   3.141   3.186   6.974 -1.0217 -1.3979  0.3514
    1PC     C32  976   3.303   3.321   6.937  0.3277 -0.6819  0.2026
    1PC     H2A  977   3.271   3.370   6.845  0.4256  0.6470  0.8545
    1PC     H2B  978   3.359   3.396   6.995 -0.0723  0.7094 -1.1436
    1PC     N31  979   3.414   3.226   6.891  0.0807  0.0765  0.1970
    1PC     C33  980   3.519   3.315   6.839 -0.5479 -0.1352 -0.7169
    1PC     H3A  981   3.616   3.264   6.842 -0.7010 -0.3989  0.4362
    1PC     H3B  982   3.491   3.345   6.738 -0.0239  0.5511 -0.6646
    1PC     H3C  983   3.522   3.399   6.909  1.4718 -1.0853  0.4372
    1PC     C34  984   3.480   3.158   7.001 -0.2302  0.4343 -0.4515
    1PC     H4A  985   3.416   3.100   7.068  2.1713 -0.2550  1.3781
    1PC     H4B  986   3.561   3.101   6.956  1.4582  3.8884 -2.2375
    1PC     H4C  987   3.519   3.236   7.067  2.8923 -1.3168 -0.0207
    1PC     C35  988   3.373   3.118   6.798 -0.3631  0.0367  1.0525
    1PC     H5A  989   3.311   3.154   6.715 -1.0699 -2.0597  0.6189
    1PC     H5B  990   3.322   3.036   6.848  1.1994 -2.1525 -0.7095
    1PC     H5C  991   3.465   3.078   6.754 -0.3494  1.5712 -0.4163
    1PC     O33  992   3.221   3.444   7.258  0.7422 -0.3651  0.1235
    1PC     O34  993   2.981   3.507   7.221  0.2342 -0.8931 -0.0560
    1PC     O21  994   3.244   3.770   6.830  0.5123  0.0020 -0.1805
    1PC     C21  995   3.357   3.705   6.796  0.0532  0.4759  0.2052
    1PC     O22  996   3.372   3.584   6.783  0.0094 -0.7395  0.1975
    1OL     C12  997   3.466   3.806   6.761 -0.8149 -0.1190 -0.6206
    1OL     H2R  998   3.565   3.759   6.762 -0.4245  0.6265 -1.8727
    1OL     H2S  999   3.469   3.875   6.845  2.3099 -1.7647  0.7762
    1OL     C13 1000   3.456   3.876   6.622  0.3930  0.1001 -0.1314
    1OL     H3R 1001   3.357   3.918   6.607  0.6388  1.4943  1.7775
    1OL     H3S 1002   3.473   3.794   6.553  1.8855 -1.1517  1.6154
    1OL     C14 1003   3.557   3.990   6.602 -0.4080  0.0147  0.0714
    1OL     H4R 1004   3.659   3.952   6.602  0.1649  1.4430  1.2330
    1OL     H4S 1005   3.562   4.054   6.690  0.3589 -0.5986  0.4817
    1OL     C15 1006   3.527   4.072   6.475  0.7561 -0.4060 -0.0846
    1OL     H5R 1007   3.575   4.169   6.488 -0.9903  0.8621 -2.4416
    1OL     H5S 1008   3.420   4.093   6.482  0.8629 -0.4350  2.5189
    1OL     C16 1009   3.569   4.000   6.341  0.0173 -0.3573  0.6153
    1OL     H6R 1010   3.677   3.985   6.352 -0.0011  0.4868  2.2989
    1OL     H6S 1011   3.545   3.894   6.332 -0.5017 -0.1586 -0.4745
    1OL     C17 1012   3.533   4.062   6.205 -0.4116  0.1405  0.1039
    1OL     H7R 1013   3.599   4.014   6.132 -1.5745  0.2639 -1.0535
    1OL     H7S 1014   3.556   4.168   6.214  0.5986 -0.1153  0.7754
    1OL     C18 1015   3.385   4.045   6.162  0.0752 -0.1085  0.1306
    1OL     H8R 1016   3.329   4.105   6.234 -1.8668 -2.0788  0.3757
    1OL     H8S 1017   3.364   3.938   6.163  1.0318 -0.3036 -0.2075
    1OL     C19 1018   3.355   4.084   6.009 -0.7390  0.4958 -0.2569
    1OL     H9R 1019   3.440   4.071   5.942 -0.1882  0.0599  0.5049
    1OL    C110 1020   3.236   4.131   5.958  0.5068  0.4422  0.3500
    1OL    H10R 1021   3.236   4.147   5.851 -2.5143  2.0625  0.5138
    1OL    C111 1022   3.104   4.165   6.024  0.0551  0.5193 -0.0600
    1OL    H11R 1023   3.096   4.273   6.012  0.1903  0.3655 -1.6740
    1OL    H11S 1024   3.102   4.133   6.129  0.9110  0.4730 -0.0447
    1OL    C112 1025   2.976   4.096   5.967 -0.5770 -0.4890 -0.1977
    1OL    H12R 1026   3.004   3.990   5.960  1.3299 -0.0249 -0.2121
    1OL    H12S 1027   2.947   4.134   5.869  0.0978 -0.8230 -0.5353
    1OL    C113 1028   2.858   4.107   6.066 -0.4611 -0.0611 -0.2462
    1OL    H13R 1029   2.846   4.210   6.101  1.7790 -0.3868  1.8647
    1OL    H13S 1030   2.876   4.047   6.156 -1.8771 -1.3045 -0.7586
    1OL    C114 1031   2.726   4.064   6.000 -0.4506 -0.1394 -0.2055
    1OL    H14R 1032   2.652   4.038   6.076  0.2789  1.3003  1.0528
    1OL    H14S 1033   2.743   3.967   5.953 -0.0797 -0.4808  0.6113
    1OL    C115 1034   2.657   4.161   5.896 -0.0443  0.9713  0.0066
    1OL    H15R 1035   2.730   4.191   5.821 -0.1004  0.8925 -0.0793
    1OL    H15S 1036   2.618   4.249   5.949  0.5270  1.5169 -0.4739
    1OL    C116 1037   2.538   4.085   5.829 -0.2035 -0.0005 -0.3820
    1OL    H16R 1038   2.476   4.043   5.909 -0.1515 -0.4245 -0.5594
    1OL    H16S 1039   2.564   3.997   5.769  0.3325 -0.3988  0.4173
    1OL    C117 1040   2.442   4.175   5.752  0.1986 -0.9456 -0.3418
    1OL    H17R 1041   2.404   4.255   5.816 -1.4529  0.9278 -3.4313
    1OL    H17S 1042   2.365   4.107   5.713 -0.2158 -0.9001  0.3692
    1OL    C118 1043   2.503   4.261   5.634  0.1908  0.0715  0.0951
    1OL    H18R 1044   2.425   4.300   5.568 -0.9140  2.2702  2.5423
    1OL    H18S 1045   2.582   4.215   5.574  1.5662 -0.1865  2.0055
    1OL    H18T 1046   2.555   4.350   5.670 -0.6526  0.8992 -0.6760
    1PA    C116 1047   3.062   3.681   5.470  0.2788  1.1916 -0.0847
    1PA    H16R 1048   3.031   3.589   5.520 -0.2226  2.2731  1.6917
    1PA    H16S 1049   3.155   3.658   5.419 -1.3965 -0.3637 -2.6580
    1PA    H16T 1050   2.983   3.704   5.398 -0.4061 -2.9264 -0.8864
    1PA    C115 1051   3.086   3.793   5.571  0.4951  0.4813 -0.0112
    1PA    H15R 1052   3.002   3.799   5.641  0.9422  1.8936  0.4395
    1PA    H15S 1053   3.177   3.763   5.623 -0.0845 -1.9262 -0.2483
    1PA    C114 1054   3.107   3.935   5.520 -0.1830 -0.5812  0.0784
    1PA    H14R 1055   3.019   3.956   5.458  0.2204  0.0537 -0.2933
    1PA    H14S 1056   3.104   4.004   5.605 -2.1894 -0.4828 -0.0283
    1PA    C113 1057   3.234   3.957   5.430  0.1679 -0.0201 -0.1329
    1PA    H13R 1058   3.228   3.913   5.330  1.4971 -1.6782  0.4677
    1PA    H13S 1059   3.241   4.066   5.426 -0.5873  0.0146 -1.0102
    1PA    C112 1060   3.370   3.916   5.489 -0.7783  0.4557  0.0231
    1PA    H12R 1061   3.371   3.816   5.534 -1.1194  0.3108 -0.2806
    1PA    H12S 1062   3.438   3.910   5.403 -1.9832 -1.3363 -0.8729
    1PA    C111 1063   3.419   4.023   5.586  0.1311  0.2420  0.2845
    1PA    H11R 1064   3.425   4.119   5.535  1.5770  0.5803  1.0370
    1PA    H11S 1065   3.348   4.043   5.666  1.0650  0.6681  1.0332
    1PA    C110 1066   3.555   4.005   5.657 -0.0160  0.1161 -0.0618
    1PA    H10R 1067   3.638   4.001   5.586  0.6467 -1.4797  0.7472
    1PA    H10S 1068   3.572   4.088   5.726 -2.7334 -0.8157  1.8853
    1PA     C19 1069   3.560   3.871   5.741 -0.0977 -0.0695  0.3051
    1PA     H9R 1070   3.470   3.881   5.802  0.9902  2.2890  1.6735
    1PA     H9S 1071   3.565   3.786   5.673  0.9098  1.3672 -1.5119
    1PA     C18 1072   3.670   3.876   5.843  0.3836 -0.0759  0.3893
    1PA     H8R 1073   3.766   3.883   5.791 -0.6464 -1.0431 -1.7908
    1PA     H8S 1074   3.657   3.961   5.911 -1.6280 -0.6312  0.7753
    1PA     C17 1075   3.681   3.741   5.917  0.0388  0.3610  0.0578
    1PA     H7R 1076   3.582   3.719   5.957 -1.0845  3.1045 -0.9419
    1PA     H7S 1077   3.700   3.659   5.848  0.2183  0.8015 -0.4252
    1PA     C16 1078   3.787   3.750   6.029  0.4668 -0.4458 -0.1658
    1PA     H6R 1079   3.879   3.802   6.000  1.4034 -1.3094  1.1385
    1PA     H6S 1080   3.754   3.809   6.114  0.0919 -1.6321  0.5412
    1PA     C15 1081   3.834   3.616   6.093 -0.0056  0.6565 -0.2989
    1PA     H5R 1082   3.898   3.565   6.021 -1.3217  0.2413 -1.2039
    1PA     H5S 1083   3.899   3.637   6.179 -1.2532  3.0966  0.1454
    1PA     C14 1084   3.717   3.531   6.147 -0.1620 -0.0510 -0.1535
    1PA     H4R 1085   3.654   3.502   6.062  0.4056 -2.2218  0.1106
    1PA     H4S 1086   3.748   3.436   6.190 -1.6927 -2.2894 -3.5635
    1PA     C13 1087   3.630   3.595   6.250 -0.2454 -0.3485 -0.0252
    1PA     H3R 1088   3.598   3.693   6.213  0.3368  0.1121  0.6618
    1PA     H3S 1089   3.538   3.537   6.259 -0.5682  0.2455  0.6505
    1PA     C12 1090   3.696   3.633   6.382 -0.2042 -0.0760  0.4563
    1PA     H2R 1091   3.782   3.697   6.362 -1.9073  2.5304  1.1014
    1PA     H2S 1092   3.618   3.692   6.429 -1.5755 -0.0664 -1.6781
    1PC     C11 1093   3.728   3.524   6.483  0.0138  0.3696 -0.2884
    1PC     O12 1094   3.717   3.406   6.462  0.2694  0.3540  0.2188
    1PC     O11 1095   3.778   3.576   6.600 -0.3882 -0.3512  0.1725
    1PC      C1 1096   3.835   3.490   6.699 -0.4543 -0.2429  0.1830
    1PC      HR 1097   3.765   3.427   6.754  2.1749 -2.0435  1.7202
    1PC      HS 1098   3.891   3.411   6.650 -0.4980 -1.4240  1.9195
    1PC      C2 1099   3.939   3.564   6.789  0.3356 -0.2081  0.0185
    1PC      HX 1100   3.994   3.486   6.843 -0.5488 -1.8318 -1.3595
    1PC      C3 1101   3.874   3.673   6.885 -0.2087  0.2328  0.3560
    1PC      HA 1102   3.809   3.727   6.816 -0.5892  0.5086  0.9141
    1PC      HB 1103   3.820   3.632   6.971  0.0656  3.4900  2.2681
    1PC     O31 1104   3.969   3.761   6.935 -0.4529 -0.6546  0.2479
    1PC     P31 1105   4.058   3.723   7.056  0.1333 -0.5773  0.2705
    1PC     O32 1106   4.186   3.682   6.986 -0.1415 -0.3348 -0.3295
    1PC     C31 1107   4.278   3.786   6.945 -0.1514  0.5293  0.1831
    1PC     H1A 1108   4.334   3.740   6.863  0.5694 -0.2331  1.0802
    1PC     H1B 1109   4.228   3.876   6.909  1.9104  1.2238 -1.1287
    1PC     C32 1110   4.373   3.820   7.062  0.5047  0.2713 -0.4636
    1PC     H2A 1111   4.434   3.906   7.036  0.9479  0.2158  0.3340
    1PC     H2B 1112   4.300   3.856   7.135  0.4120 -0.3688 -0.2348
    1PC     N31 1113   4.446   3.712   7.140 -0.2271 -0.0798 -0.4776
    1PC     C33 1114   4.539   3.767   7.240 -0.0434  0.6008 -0.0587
    1PC     H3A 1115   4.488   3.827   7.316  1.2765  0.5536  0.8906
    1PC     H3B 1116   4.590   3.679   7.281 -1.1336 -0.9967 -1.9536
    1PC     H3C 1117   4.621   3.821   7.194  1.5412 -0.6539  1.1707
    1PC     C34 1118   4.343   3.623   7.213 -0.3501  0.2374 -0.5444
    1PC     H4A 1119   4.255   3.687   7.223 -1.4700 -1.3171 -0.0559
    1PC     H4B 1120   4.317   3.531   7.160  0.3339 -0.3560  0.1329
    1PC     H4C 1121   4.393   3.593   7.305  1.1196 -2.5365 -2.1008
    1PC     C35 1122   4.525   3.644   7.046 -0.4794 -0.9543  0.3856
    1PC     H5A 1123   4.472   3.588   6.969 -0.3899 -1.1443  0.4590
    1PC     H5B 1124   4.573   3.562   7.100 -0.6154  0.2053  2.3937
    1PC     H5C 1125   4.602   3.712   7.009 -0.1869  0.6534  3.6058
    1PC     O33 1126   4.077   3.839   7.135 -0.0786 -0.5540  0.7669
    1PC     O34 1127   4.007   3.600   7.125  0.0148 -0.0259 -0.2292
    1PC     O21 1128   4.030   3.640   6.706 -0.2322  0.1672  0.3256
    1PC     C21 1129   4.151   3.591   6.680  0.3122 -0.6316  1.0907
    1PC     O22 1130   4.204   3.494   6.731  0.3885 -0.2148  0.5421
    1OL     C12 1131   4.229   3.682   6.584  0.2997 -0.4351  0.2460
    1OL     H2R 1132   4.332   3.652   6.604  0.0998 -3.1382 -2.2372
    1OL     H2S 1133   4.217   3.785   6.620 -0.2099  0.0651 -1.2690
    1OL     C13 1134   4.205   3.662   6.434  0.6545  0.3972  0.6234
    1OL     H3R 1135   4.100   3.646   6.408  0.8056 -0.3972  0.4996
    1OL     H3S 1136   4.242   3.565   6.401 -1.1388 -0.5783  1.3695
    1OL     C14 1137   4.251   3.784   6.343  0.0508  0.4162 -0.5003
    1OL     H4R 1138   4.358   3.796   6.361  0.1779 -0.3172 -0.7270
    1OL     H4S 1139   4.203   3.878   6.371 -0.5993 -0.1616  0.3707
    1OL     C15 1140   4.222   3.771   6.194  0.2193  0.3186  0.2645
    1OL     H5R 1141   4.115   3.784   6.175  0.0180  1.1184  1.7876
    1OL     H5S 1142   4.237   3.666   6.167 -0.9427 -0.1122  1.2236
    1OL     C16 1143   4.310   3.863   6.101  0.5460  0.2123  0.9352
    1OL     H6R 1144   4.416   3.838   6.116  0.9563  1.8473  0.9504
    1OL     H6S 1145   4.301   3.969   6.128  0.6765  0.4281  0.1508
    1OL     C17 1146   4.295   3.856   5.947  0.2159  0.6891  0.3698
    1OL     H7R 1147   4.309   3.761   5.895 -0.1329  1.9729 -2.2305
    1OL     H7S 1148   4.371   3.917   5.898  0.9478  1.0031  1.8306
    1OL     C18 1149   4.154   3.901   5.905 -0.2657  0.5028  0.3419
    1OL     H8R 1150   4.157   4.001   5.861 -0.4893  0.0249 -0.7861
    1OL     H8S 1151   4.086   3.926   5.986 -1.6472  1.5572 -1.0733
    1OL     C19 1152   4.090   3.802   5.805 -0.1760 -0.3041 -0.6389
    1OL     H9R 1153   4.112   3.699   5.832  1.2541  0.4542  1.2445
    1OL    C110 1154   4.027   3.827   5.691  0.8623 -0.2765 -0.8089
    1OL    H10R 1155   4.001   3.744   5.626  0.7316 -0.2542 -0.7852
    1OL    C111 1156   3.993   3.963   5.636  0.4587 -0.4765  0.1057
    1OL    H11R 1157   4.049   4.040   5.689  0.6513  0.6218 -1.6379
    1OL    H11S 1158   3.886   3.984   5.650  0.0799 -2.7077  1.1050
    1OL    C112 1159   4.031   3.989   5.492 -0.2264  0.2243  0.0042
    1OL    H12R 1160   4.139   4.002   5.500  0.0024 -1.0564 -0.6684
    1OL    H12S 1161   3.992   4.087   5.463  0.8569  0.6595 -0.0265
    1OL    C113 1162   3.996   3.884   5.392 -0.0445  0.5170 -0.3096
    1OL    H13R 1163   4.028   3.785   5.427 -2.7298 -0.7264 -1.0474
    1OL    H13S 1164   4.033   3.904   5.291 -1.9358 -1.6290 -1.5372
    1OL    C114 1165   3.841   3.882   5.374  0.1057  0.5405 -0.1091
    1OL    H14R 1166   3.807   3.984   5.358  0.5809  0.6105 -0.7134
    1OL    H14S 1167   3.789   3.845   5.463 -0.2032  1.2748  0.0227
    1OL    C115 1168   3.811   3.803   5.250  0.6134 -0.2225 -0.3031
    1OL    H15R 1169   3.835   3.700   5.277 -0.5419  0.0793  2.0974
    1OL    H15S 1170   3.877   3.841   5.172  0.6955  0.0337 -0.1079
    1OL    C116 1171   3.659   3.808   5.206  0.9383 -0.2282  0.6458
    1OL    H16R 1172   3.614   3.901   5.242  0.0829 -0.8401  1.1921
    1OL    H16S 1173   3.579   3.747   5.249 -1.8785  2.6188 -0.1193
    1OL    C117 1174   3.638   3.797   5.056 -0.0254 -0.1545  0.6233
    1OL    H17R 1175   3.693   3.706   5.030  0.1689  0.2455 -0.4087
    1OL    H17S 1176   3.679   3.880   4.998  0.5949 -1.2497 -0.5830
    1OL    C118 1177   3.488   3.790   5.027 -0.0397  0.1027 -0.0228
    1OL    H18R 1178   3.435   3.874   5.073  1.7936  1.3514 -0.0428
    1OL    H18S 1179   3.444   3.692   5.043 -1.6847  0.6567 -0.9638
    1OL    H18T 1180   3.457   3.802   4.924  1.8136  1.6258 -0.4754
    1PA    C116 1181   3.776   2.416   5.107  0.0779 -0.2410  0.0759
    1PA    H16R 1182   3.830   2.374   5.022 -1.2018 -1.3939 -0.2101
    1PA    H16S 1183   3.670   2.434   5.085  0.1786  2.8180  1.5212
    1PA    H16T 1184   3.782   2.340   5.185  0.7487  0.3565  0.6200
    1PA    C115 1185   3.838   2.551   5.144 -0.2179  0.6313  0.0540
    1PA    H15R 1186   3.947   2.544   5.146 -0.0211  2.7060 -0.6289
    1PA    H15S 1187   3.824   2.629   5.069  1.0598  2.2898  1.4665
    1PA    C114 1188   3.791   2.619   5.282 -0.1876  0.5311  0.9157
    1PA    H14R 1189   3.833   2.720   5.284  0.0207  0.4779 -0.2980
    1PA    H14S 1190   3.682   2.621   5.274 -0.1992  1.1848  1.1349
    1PA    C113 1191   3.836   2.540   5.411  0.5060 -0.2016  0.0913
    1PA    H13R 1192   3.829   2.432   5.406 -2.3309 -0.0112 -3.1767
    1PA    H13S 1193   3.944   2.553   5.427  0.9624 -1.5874 -1.6088
    1PA    C112 1194   3.751   2.578   5.538 -0.2630 -0.2838 -0.0230
    1PA    H12R 1195   3.734   2.686   5.548  1.1692  0.1640 -1.6840
    1PA    H12S 1196   3.659   2.521   5.531 -0.4088  0.0693 -1.3799
    1PA    C111 1197   3.829   2.533   5.664  0.0214 -0.1913  0.5577
    1PA    H11R 1198   3.841   2.425   5.652  4.0820  0.2446 -0.7253
    1PA    H11S 1199   3.925   2.581   5.680 -0.0907  0.3933 -0.4351
    1PA    C110 1200   3.749   2.551   5.791 -0.0004  0.3807 -0.8537
    1PA    H10R 1201   3.651   2.505   5.780  0.2914 -0.1249 -1.3834
    1PA    H10S 1202   3.785   2.476   5.863 -1.6174 -0.3918 -0.8185
    1PA     C19 1203   3.753   2.698   5.839 -0.0118  1.1827  0.8806
    1PA     H9R 1204   3.857   2.721   5.862  0.5996 -1.7849  1.4159
    1PA     H9S 1205   3.708   2.766   5.766  0.6622 -0.3550 -1.0555
    1PA     C18 1206   3.672   2.701   5.979  0.0003  0.8619  0.8936
    1PA     H8R 1207   3.646   2.802   6.014  2.0887  1.5711  0.5326
    1PA     H8S 1208   3.575   2.655   5.957  0.3929  1.3015 -2.0496
    1PA     C17 1209   3.747   2.621   6.087  0.3316  0.1474  0.5703
    1PA     H7R 1210   3.776   2.521   6.056 -0.0236 -0.4528  2.0987
    1PA     H7S 1211   3.840   2.675   6.107  0.1037  0.2326  1.4322
    1PA     C16 1212   3.666   2.592   6.218 -0.2749  0.0860 -0.3485
    1PA     H6R 1213   3.622   2.689   6.242 -3.9916 -1.7212  0.9094
    1PA     H6S 1214   3.582   2.525   6.198  0.8054 -1.6263  0.6070
    1PA     C15 1215   3.755   2.542   6.333  1.2849 -0.3481  0.5081
    1PA     H5R 1216   3.700   2.511   6.422 -1.4538 -0.4034 -1.0889
    1PA     H5S 1217   3.805   2.459   6.282  1.0358 -0.4959  0.5025
    1PA     C14 1218   3.851   2.644   6.385 -0.3501  0.3307  0.0397
    1PA     H4R 1219   3.900   2.688   6.298 -1.1623  1.4049  0.0931
    1PA     H4S 1220   3.797   2.722   6.440 -0.8818 -0.9925  1.4607
    1PA     C13 1221   3.962   2.606   6.481  0.2055  0.2881 -0.0729
    1PA     H3R 1222   3.921   2.562   6.572  0.4984  0.9651  0.3966
    1PA     H3S 1223   4.021   2.535   6.423 -0.6849  1.7184 -2.8949
    1PA     C12 1224   4.050   2.725   6.515 -0.4857  0.2698 -0.6244
    1PA     H2R 1225   4.096   2.779   6.432 -0.1030  0.2967 -0.4004
    1PA     H2S 1226   3.994   2.801   6.570 -0.7228  0.3821 -1.0211
    1PC     C11 1227   4.151   2.676   6.616 -0.2134  0.4481 -0.2468
    1PC     O12 1228   4.239   2.593   6.590  0.7698 -0.0806 -0.5340
    1PC     O11 1229   4.143   2.733   6.738 -0.2401 -0.7129 -0.3986
    1PC      C1 1230   4.221   2.678   6.851  0.3508 -0.2089  0.0166
    1PC      HR 1231   4.163   2.685   6.944 -1.7717 -0.1686 -1.2521
    1PC      HS 1232   4.248   2.574   6.828  1.6387  0.0006  0.5090
    1PC      C2 1233   4.351   2.762   6.863  0.3112 -0.8601  0.2301
    1PC      HX 1234   4.408   2.755   6.769 -0.4568  2.2750 -0.5821
    1PC      C3 1235   4.446   2.714   6.975 -0.0721  0.2906 -0.0245
    1PC      HA 1236   4.503   2.631   6.931 -3.3582 -1.5523 -1.1722
    1PC      HB 1237   4.511   2.794   7.010 -2.0110  2.3310 -0.8028
    1PC     O31 1238   4.370   2.656   7.084  0.0341 -0.0617 -0.0550
    1PC     P31 1239   4.393   2.672   7.236 -0.1895 -0.1952  0.0699
    1PC     O32 1240   4.376   2.832   7.267  0.4384  0.4810  0.3142
    1PC     C31 1241   4.250   2.892   7.242  0.1356 -0.2210 -0.1514
    1PC     H1A 1242   4.239   2.939   7.144 -0.8084 -0.4542 -0.1666
    1PC     H1B 1243   4.173   2.815   7.255 -1.8571  1.6048 -0.6492
    1PC     C32 1244   4.223   3.002   7.350 -0.3445  0.2505  0.7033
    1PC     H2A 1245   4.270   3.095   7.318  2.3802 -1.5258 -0.9615
    1PC     H2B 1246   4.116   3.018   7.346 -0.6510 -1.6773  0.0629
    1PC     N31 1247   4.259   2.974   7.497 -0.5368 -0.2728  0.8197
    1PC     C33 1248   4.200   3.094   7.568 -0.4403  0.1493 -0.1017
    1PC     H3A 1249   4.114   3.122   7.507  0.6424  1.8979 -0.9115
    1PC     H3B 1250   4.161   3.067   7.666  1.2463 -0.1727  0.5070
    1PC     H3C 1251   4.269   3.178   7.570 -2.2584  1.7002 -0.0701
    1PC     C34 1252   4.187   2.851   7.546  0.0587 -0.3156  0.0138
    1PC     H4A 1253   4.081   2.866   7.526 -0.2138 -2.0374  0.0711
    1PC     H4B 1254   4.223   2.767   7.487  0.9197 -0.4206  0.6734
    1PC     H4C 1255   4.210   2.838   7.652  2.3436 -3.4487 -0.7350
    1PC     C35 1256   4.403   2.968   7.535 -0.3246 -0.7136  0.0698
    1PC     H5A 1257   4.444   3.066   7.512  0.4778 -1.4863 -2.0395
    1PC     H5B 1258   4.451   2.901   7.464  0.3829  1.3643 -1.5032
    1PC     H5C 1259   4.414   2.941   7.640 -0.0854 -0.6043  0.0718
    1PC     O33 1260   4.283   2.618   7.316 -0.2320 -0.4278 -0.1955
    1PC     O34 1261   4.536   2.645   7.262 -0.4607 -0.1033 -0.3865
    1PC     O21 1262   4.317   2.902   6.891 -0.1217 -0.3303 -0.0409
    1PC     C21 1263   4.349   2.991   6.802  0.6586  0.4353  0.8737
    1PC     O22 1264   4.422   2.977   6.708 -0.1501 -0.2550 -0.2269
    1OL     C12 1265   4.279   3.127   6.821 -0.1995 -0.0511 -0.6784
    1OL     H2R 1266   4.349   3.205   6.789  0.2317  0.4803  1.3966
    1OL     H2S 1267   4.246   3.149   6.922 -0.4880  0.1138 -0.8066
    1OL     C13 1268   4.159   3.144   6.727  0.1217 -0.4080 -0.2429
    1OL     H3R 1269   4.097   3.229   6.758  2.1647  1.4335 -0.9732
    1OL     H3S 1270   4.103   3.051   6.735  0.5814 -0.5838  1.2015
    1OL     C14 1271   4.205   3.168   6.579 -0.0345 -0.9124 -0.3273
    1OL     H4R 1272   4.241   3.069   6.548 -2.1714 -2.5166  1.8422
    1OL     H4S 1273   4.280   3.247   6.577 -1.0692  0.0802 -0.5589
    1OL     C15 1274   4.082   3.196   6.483  1.0722  0.6658  0.4168
    1OL     H5R 1275   4.108   3.249   6.391 -2.2510 -1.1955 -1.8197
    1OL     H5S 1276   4.004   3.248   6.539 -0.4232 -1.2855  0.2664
    1OL     C16 1277   4.006   3.066   6.437 -0.4157  0.6215 -0.2442
    1OL     H6R 1278   3.968   3.009   6.521  0.1484  2.0467  1.0257
    1OL     H6S 1279   4.077   2.996   6.391  0.4245  0.6730  0.9280
    1OL     C17 1280   3.879   3.089   6.351 -1.0105  0.0082 -0.0262
    1OL     H7R 1281   3.809   3.143   6.415 -2.1672  1.4943 -2.4066
    1OL     H7S 1282   3.839   2.988   6.336  1.9081 -1.4570  1.1116
    1OL     C18 1283   3.881   3.153   6.216  0.5446  0.1757 -0.4776
    1OL     H8R 1284   3.958   3.230   6.216  0.6759  0.0443 -0.4729
    1OL     H8S 1285   3.788   3.205   6.193  0.3097  0.1260  0.3099
    1OL     C19 1286   3.905   3.053   6.110 -0.5601  0.2994  0.3084
    1OL     H9R 1287   3.987   2.984   6.129  0.9515  1.6125 -1.1115
    1OL    C110 1288   3.841   3.037   5.999 -0.4176 -0.4937  0.2995
    1OL    H10R 1289   3.874   2.958   5.931  3.2760  1.8027 -0.8936
    1OL    C111 1290   3.731   3.122   5.947  0.4887  0.1820 -0.2980
    1OL    H11R 1291   3.736   3.223   5.989  1.6246  0.6131 -1.4016
    1OL    H11S 1292   3.639   3.071   5.976  0.1685 -0.1175 -1.7294
    1OL    C112 1293   3.738   3.140   5.799  0.0256  0.1850  0.1823
    1OL    H12R 1294   3.646   3.180   5.757  1.4682  0.8851 -2.5789
    1OL    H12S 1295   3.756   3.043   5.754  0.1076  1.1317 -1.9294
    1OL    C113 1296   3.852   3.226   5.752  0.4602 -0.4991  0.2106
    1OL    H13R 1297   3.869   3.212   5.645 -1.3211 -0.2100 -0.1333
    1OL    H13S 1298   3.945   3.187   5.794  0.4362  0.9988  1.7821
    1OL    C114 1299   3.842   3.376   5.789 -0.3159 -0.1972 -0.0153
    1OL    H14R 1300   3.824   3.391   5.896 -1.6648  1.3325 -0.4186
    1OL    H14S 1301   3.749   3.416   5.749 -0.0947  1.6975  1.2120
    1OL    C115 1302   3.960   3.468   5.739  0.0685 -0.4682 -0.2262
    1OL    H15R 1303   3.929   3.569   5.766 -3.2422 -0.4304 -3.4319
    1OL    H15S 1304   3.963   3.476   5.630 -1.5472  1.2929 -0.2012
    1OL    C116 1305   4.106   3.434   5.782  0.6728  0.2248 -0.3716
    1OL    H16R 1306   4.178   3.498   5.730 -0.5712 -1.4329 -4.5039
    1OL    H16S 1307   4.118   3.333   5.743  0.6481 -0.1462  0.5550
    1OL    C117 1308   4.141   3.433   5.937  0.2771 -0.5302  0.0262
    1OL    H17R 1309   4.068   3.370   5.989  2.3905 -0.9278  2.7320
    1OL    H17S 1310   4.141   3.534   5.979 -0.8363 -1.1584  1.6185
    1OL    C118 1311   4.273   3.362   5.965  0.4177 -0.1672 -0.1503
    1OL    H18R 1312   4.268   3.340   6.072 -0.9406 -3.8747 -0.8311
    1OL    H18S 1313   4.362   3.422   5.943  1.7250 -2.1062 -0.4310
    1OL    H18T 1314   4.271   3.264   5.917  3.1270 -0.2101 -0.3549
    1PA    C116 1315   3.950   1.504   4.997 -0.4782 -0.2519  0.3599
    1PA    H16R 1316   4.058   1.513   5.012 -0.7134  2.0483  1.2038
    1PA    H16S 1317   3.914   1.582   4.929  0.5846  0.2554  0.3578
    1PA    H16T 1318   3.930   1.405   4.958  0.8447 -0.5908  0.4764
    1PA    C115 1319   3.887   1.531   5.134 -0.4233  0.5015 -0.1833
    1PA    H15R 1320   3.933   1.487   5.222 -0.0622 -0.6214 -0.9160
    1PA    H15S 1321   3.896   1.639   5.149 -1.9473  0.5578  0.4806
    1PA    C114 1322   3.736   1.489   5.133  0.2712 -0.0650  0.0584
    1PA    H14R 1323   3.698   1.506   5.032 -2.9251  1.2350  1.3569
    1PA    H14S 1324   3.720   1.384   5.160 -0.5652 -0.4463 -1.7523
    1PA    C113 1325   3.671   1.577   5.242 -0.1614 -0.3345  0.2048
    1PA    H13R 1326   3.734   1.568   5.330  2.6980  1.1504 -1.5369
    1PA    H13S 1327   3.685   1.684   5.226  0.5984 -0.0187  2.5706
    1PA    C112 1328   3.520   1.548   5.256 -0.9426 -0.4086  0.0458
    1PA    H12R 1329   3.484   1.570   5.155  1.1974 -0.9894 -0.9108
    1PA    H12S 1330   3.509   1.445   5.291  2.2018 -0.4606  1.2645
    1PA    C111 1331   3.435   1.637   5.354  0.5428  0.3377 -0.1198
    1PA    H11R 1332   3.402   1.732   5.311 -0.4140  0.8983  1.7379
    1PA    H11S 1333   3.344   1.580   5.372  0.5887  0.5623  0.8467
    1PA    C110 1334   3.504   1.658   5.494 -1.4293  0.1552  1.2054
    1PA    H10R 1335   3.563   1.572   5.527  0.9697  0.9479 -0.7120
    1PA    H10S 1336   3.580   1.734   5.473 -0.4121 -0.6719  1.7921
    1PA     C19 1337   3.416   1.720   5.603 -0.1984  0.0945  0.1872
    1PA     H9R 1338   3.357   1.802   5.563  0.8541  0.9586  0.3789
    1PA     H9S 1339   3.340   1.644   5.621  0.0779 -0.7641 -1.9156
    1PA     C18 1340   3.492   1.755   5.735 -0.0073 -0.3332  0.2425
    1PA     H8R 1341   3.565   1.834   5.712 -0.5961 -0.4180 -2.1736
    1PA     H8S 1342   3.416   1.806   5.795 -1.2714 -1.9280  0.0551
    1PA     C17 1343   3.544   1.627   5.808 -0.1856 -0.2285 -0.2121
    1PA     H7R 1344   3.459   1.560   5.824 -0.1957  0.0658  1.0677
    1PA     H7S 1345   3.607   1.574   5.737  0.5215 -1.4578  1.2747
    1PA     C16 1346   3.618   1.648   5.938  0.5726  0.1529 -0.6868
    1PA     H6R 1347   3.667   1.556   5.968  0.0737 -0.4381 -1.6355
    1PA     H6S 1348   3.681   1.737   5.933 -1.1649  1.4970  0.2002
    1PA     C15 1349   3.513   1.679   6.055 -0.2461  0.6549  0.1670
    1PA     H5R 1350   3.480   1.776   6.018  1.7813  1.1585 -0.4748
    1PA     H5S 1351   3.431   1.607   6.052 -0.0564  0.4694 -1.2672
    1PA     C14 1352   3.582   1.680   6.198  0.6044 -0.0677  0.8764
    1PA     H4R 1353   3.634   1.588   6.226  1.7755 -0.3290 -1.8031
    1PA     H4S 1354   3.665   1.750   6.207 -0.3975  1.0729  1.4023
    1PA     C13 1355   3.474   1.713   6.305 -0.2362  0.0175  0.3726
    1PA     H3R 1356   3.403   1.783   6.262 -2.6211 -3.3608 -1.6905
    1PA     H3S 1357   3.418   1.623   6.331  3.2824 -1.6944  2.9778
    1PA     C12 1358   3.524   1.760   6.439  0.0173  0.1133 -0.0238
    1PA     H2R 1359   3.608   1.830   6.430 -0.0811  0.3564  0.8688
    1PA     H2S 1360   3.439   1.809   6.487  2.5349  3.6149  1.2880
    1PC     C11 1361   3.566   1.651   6.530 -0.9437  0.4541  0.6958
    1PC     O12 1362   3.484   1.566   6.566 -0.4424 -0.5201 -0.3191
    1PC     O11 1363   3.699   1.648   6.551  0.3212 -0.5869 -0.2333
    1PC      C1 1364   3.754   1.531   6.616 -0.4337 -0.1647  0.6069
    1PC      HR 1365   3.828   1.563   6.690 -1.5809  0.7274  1.4010
    1PC      HS 1366   3.671   1.477   6.663 -3.3316  2.5455 -1.0639
    1PC      C2 1367   3.830   1.438   6.523 -0.1957 -0.7670 -0.0344
    1PC      HX 1368   3.774   1.416   6.432 -1.3294  1.2836  0.1207
    1PC      C3 1369   3.847   1.293   6.582  0.6289  0.1964 -0.2488
    1PC      HA 1370   3.746   1.255   6.598  0.2607  0.8512 -1.0159
    1PC      HB 1371   3.899   1.233   6.507 -0.4225 -0.7978 -0.1985
    1PC     O31 1372   3.924   1.308   6.701 -0.3826 -0.7624 -0.1851
    1PC     P31 1373   3.901   1.218   6.821 -0.0801 -0.0859  0.1001
    1PC     O32 1374   3.955   1.084   6.757 -0.4384  0.2097  0.1749
    1PC     C31 1375   3.869   0.991   6.687  0.0685 -0.1267 -0.2939
    1PC     H1A 1376   3.777   1.039   6.652  0.3649  0.4036 -0.3573
    1PC     H1B 1377   3.922   0.951   6.600 -1.9078 -0.3542 -1.4537
    1PC     C32 1378   3.830   0.875   6.776  0.6772  0.5170 -0.2362
    1PC     H2A 1379   3.920   0.814   6.789 -0.1242 -0.3357  1.6994
    1PC     H2B 1380   3.800   0.916   6.872  0.9150 -1.7035  0.8456
    1PC     N31 1381   3.722   0.788   6.722  0.5097  0.1555 -0.0289
    1PC     C33 1382   3.775   0.720   6.598  0.0977 -0.4756 -0.5012
    1PC     H3A 1383   3.879   0.688   6.611  0.3386  0.8367  1.2622
    1PC     H3B 1384   3.711   0.634   6.580 -0.7562  0.4029 -1.8323
    1PC     H3C 1385   3.769   0.796   6.521  1.3083 -0.8917 -1.0302
    1PC     C34 1386   3.696   0.681   6.827  0.2015  0.2193  0.4824
    1PC     H4A 1387   3.784   0.623   6.854 -0.2723 -0.3761  0.7631
    1PC     H4B 1388   3.657   0.741   6.909 -1.8854  0.5473 -0.6683
    1PC     H4C 1389   3.626   0.610   6.784  0.9423 -0.5297  0.4788
    1PC     C35 1390   3.594   0.850   6.704 -0.2615  0.0906 -0.7881
    1PC     H5A 1391   3.518   0.772   6.693 -1.4421  0.9856  0.5469
    1PC     H5B 1392   3.605   0.910   6.614 -0.3128  0.1244 -0.7720
    1PC     H5C 1393   3.575   0.912   6.792 -1.7268 -0.3298 -0.7819
    1PC     O33 1394   3.992   1.245   6.931 -0.1445  0.6705  0.0663
    1PC     O34 1395   3.755   1.211   6.842 -0.2799  0.5686  0.1147
    1PC     O21 1396   3.957   1.506   6.487 -0.0465 -0.7615 -0.3201
    1PC     C21 1397   3.973   1.558   6.364 -1.0028  0.1099  0.5742
    1PC     O22 1398   3.880   1.573   6.289  0.2153 -0.0228 -0.2148
    1OL     C12 1399   4.120   1.566   6.313  0.9338 -0.1218 -0.4874
    1OL     H2R 1400   4.174   1.552   6.407 -0.3366  0.2610  0.3229
    1OL     H2S 1401   4.130   1.667   6.273 -0.1699  0.3114  0.2780
    1OL     C13 1402   4.156   1.461   6.205  0.4894 -0.1419  0.4052
    1OL     H3R 1403   4.121   1.361   6.232 -0.2840  0.3827  1.4096
    1OL     H3S 1404   4.265   1.460   6.203  0.5034  0.7047 -1.5102
    1OL     C14 1405   4.098   1.509   6.071  0.7977  0.2790 -0.0904
    1OL     H4R 1406   4.004   1.564   6.079  0.8458  1.0511 -3.2706
    1OL     H4S 1407   4.070   1.410   6.034  0.6506  0.0959  0.5082
    1OL     C15 1408   4.188   1.589   5.981 -0.3297 -0.2883  0.2493
    1OL     H5R 1409   4.278   1.527   5.972  0.2917  0.3582  1.7986
    1OL     H5S 1410   4.229   1.677   6.030  0.6165 -1.3513  1.4346
    1OL     C16 1411   4.133   1.610   5.839  0.1612 -0.3827  0.7262
    1OL     H6R 1412   4.041   1.668   5.837  1.0254  1.2091  2.9950
    1OL     H6S 1413   4.108   1.510   5.802 -1.7823  0.2270  0.3218
    1OL     C17 1414   4.237   1.685   5.756 -0.2985 -0.0131  0.2184
    1OL     H7R 1415   4.311   1.610   5.727 -0.2832  0.2429 -0.4098
    1OL     H7S 1416   4.291   1.755   5.820  0.5212  0.4960 -1.0020
    1OL     C18 1417   4.188   1.761   5.626  0.4481  0.4027  0.4434
    1OL     H8R 1418   4.265   1.831   5.591  0.0053 -0.4264 -2.4387
    1OL     H8S 1419   4.093   1.812   5.642 -0.3265 -0.7091 -0.4696
    1OL     C19 1420   4.172   1.658   5.522  0.4776  0.0525  0.1879
    1OL     H9R 1421   4.151   1.557   5.558  1.4117 -0.1022  0.3428
    1OL    C110 1422   4.190   1.670   5.393 -0.0665 -0.5372  0.8817
    1OL    H10R 1423   4.179   1.584   5.327 -0.8711 -0.3462  0.7521
    1OL    C111 1424   4.198   1.803   5.320  0.7894  0.0846 -0.2167
    1OL    H11R 1425   4.195   1.885   5.392  0.1046 -1.7633  1.9855
    1OL    H11S 1426   4.111   1.801   5.254 -0.0194 -1.7659  0.8311
    1OL    C112 1427   4.322   1.805   5.231 -0.2373 -0.0895  0.3174
    1OL    H12R 1428   4.327   1.716   5.168 -0.0520  0.8630 -1.0658
    1OL    H12S 1429   4.409   1.800   5.297 -1.1594 -0.2764  1.5481
    1OL    C113 1430   4.332   1.940   5.149  0.4324 -0.5389  0.0101
    1OL    H13R 1431   4.352   2.024   5.215 -2.4436 -0.4768  0.9259
    1OL    H13S 1432   4.237   1.955   5.098 -0.0227  0.3766  1.1193
    1OL    C114 1433   4.436   1.943   5.035  0.0046 -0.2988 -0.6294
    1OL    H14R 1434   4.435   2.041   4.987  2.0237 -0.4948 -1.1497
    1OL    H14S 1435   4.413   1.859   4.969  0.6925 -3.1532  2.4737
    1OL    C115 1436   4.584   1.927   5.083  1.0616 -0.7132 -0.5621
    1OL    H15R 1437   4.583   1.826   5.125 -1.4155 -0.8098 -0.6673
    1OL    H15S 1438   4.606   1.990   5.169 -0.9007  0.1184 -0.6034
    1OL    C116 1439   4.688   1.950   4.977  0.2096  0.2821  0.2313
    1OL    H16R 1440   4.654   1.897   4.889 -3.7589  0.8837  1.1923
    1OL    H16S 1441   4.788   1.920   5.010  0.2387 -1.4777 -1.3211
    1OL    C117 1442   4.699   2.093   4.939 -0.1535  0.1363  0.3422
    1OL    H17R 1443   4.684   2.159   5.025 -0.0361 -0.3191  0.7118
    1OL    H17S 1444   4.629   2.125   4.860  1.3852  0.7004 -0.8443
    1OL    C118 1445   4.835   2.109   4.871 -0.0565  0.1630  0.2731
    1OL    H18R 1446   4.843   2.211   4.834 -0.4127 -0.0543 -0.4097
    1OL    H18S 1447   4.855   2.034   4.794  2.0749 -0.9855  1.8033
    1OL    H18T 1448   4.915   2.086   4.943  0.3300  1.3349  0.2343
    1PA    C116 1449   1.760   2.532   5.643  0.0533 -0.5299 -0.1648
    1PA    H16R 1450   1.786   2.615   5.709 -0.2082 -0.0803 -0.6104
    1PA    H16S 1451   1.696   2.568   5.562  2.6928  1.1073 -1.6599
    1PA    H16T 1452   1.860   2.508   5.606  1.1321  2.7297  0.2642
    1PA    C115 1453   1.690   2.406   5.700 -0.1190 -0.2488 -0.1276
    1PA    H15R 1454   1.590   2.423   5.741  0.2595  0.0496  0.6907
    1PA    H15S 1455   1.686   2.333   5.618  0.5793 -0.5874  0.1333
    1PA    C114 1456   1.788   2.352   5.814 -0.6276  0.5505 -0.0855
    1PA    H14R 1457   1.804   2.245   5.805 -0.3734  0.3944  1.7620
    1PA    H14S 1458   1.888   2.397   5.808 -0.6739  1.2141  2.5004
    1PA    C113 1459   1.743   2.377   5.958  0.3513  0.5427  0.5192
    1PA    H13R 1460   1.635   2.359   5.957  0.0182  2.3701 -0.2176
    1PA    H13S 1461   1.783   2.311   6.034  0.2784 -0.5875 -0.3987
    1PA    C112 1462   1.774   2.524   6.011  0.1259 -0.1756  0.5380
    1PA    H12R 1463   1.727   2.593   5.940  0.2949  0.3901  0.9721
    1PA    H12S 1464   1.732   2.547   6.109  0.2225  1.8143  0.1486
    1PA    C111 1465   1.928   2.559   6.008 -0.2802 -0.2465  0.2943
    1PA    H11R 1466   1.976   2.531   5.913 -0.3291 -0.4826  0.3374
    1PA    H11S 1467   1.958   2.663   6.016 -0.9014  0.1089 -1.5127
    1PA    C110 1468   2.003   2.503   6.130 -0.2386  0.4553  0.2256
    1PA    H10R 1469   1.943   2.517   6.220 -1.5751  1.3982 -0.7745
    1PA    H10S 1470   2.017   2.395   6.122 -2.0629  0.0066  2.2647
    1PA     C19 1471   2.142   2.556   6.143  0.2671  0.1150 -1.1623
    1PA     H9R 1472   2.186   2.492   6.220  0.3011  0.0706 -1.2196
    1PA     H9S 1473   2.206   2.539   6.057  2.1914  2.0559 -0.1928
    1PA     C18 1474   2.158   2.703   6.188 -0.7626 -0.3627  0.7131
    1PA     H8R 1475   2.082   2.764   6.139  0.2248  0.8075  0.6178
    1PA     H8S 1476   2.142   2.720   6.295 -3.7366  0.9464  0.1739
    1PA     C17 1477   2.300   2.758   6.155  0.3821 -0.3367  0.5956
    1PA     H7R 1478   2.367   2.681   6.195  1.1609  1.1203  2.2372
    1PA     H7S 1479   2.308   2.772   6.047  0.2127  0.0689  0.6368
    1PA     C16 1480   2.319   2.893   6.227 -0.6504 -0.1321  0.6165
    1PA     H6R 1481   2.279   2.875   6.327  0.2686 -1.6947  0.7442
    1PA     H6S 1482   2.426   2.916   6.232 -0.3264 -1.1693 -0.9516
    1PA     C15 1483   2.237   3.007   6.157 -0.6416  0.0158 -0.5735
    1PA     H5R 1484   2.284   3.044   6.065  1.8847  0.6124  0.8704
    1PA     H5S 1485   2.138   2.971   6.128 -1.7150  1.0981  1.5158
    1PA     C14 1486   2.209   3.127   6.257  0.7413  0.1887 -0.3094
    1PA     H4R 1487   2.294   3.126   6.326  2.1884  0.2886 -2.0334
    1PA     H4S 1488   2.218   3.222   6.205  1.5137  0.2077 -0.1547
    1PA     C13 1489   2.074   3.118   6.325 -0.3995 -0.4727  0.1449
    1PA     H3R 1490   2.068   3.190   6.407  0.4304  0.5808 -0.6768
    1PA     H3S 1491   2.006   3.166   6.254  1.4473  3.1754  0.5584
    1PA     C12 1492   2.030   2.986   6.387  0.2514  0.1753  0.6626
    1PA     H2R 1493   2.023   2.918   6.302 -0.9559  3.0584 -1.6841
    1PA     H2S 1494   2.105   2.953   6.459  0.9743  1.5959  0.5920
    1PC     C11 1495   1.902   2.998   6.463 -0.0387  0.0274  0.3688
    1PC     O12 1496   1.877   3.092   6.531 -0.1965  0.1527 -0.3739
    1PC     O11 1497   1.825   2.893   6.439  0.0491  0.6597 -0.0187
    1PC      C1 1498   1.687   2.897   6.508 -0.9950  0.3616  0.1509
    1PC      HR 1499   1.711   2.931   6.609  1.8364  3.2267 -1.2883
    1PC      HS 1500   1.627   2.975   6.460 -0.4035  1.0019  0.4265
    1PC      C2 1501   1.631   2.760   6.522  0.3963 -0.6100  0.3289
    1PC      HX 1502   1.549   2.770   6.593  0.8867  0.1953  0.7944
    1PC      C3 1503   1.740   2.661   6.574 -0.5500 -0.0794 -0.0737
    1PC      HA 1504   1.690   2.564   6.573  1.8154 -1.4572 -3.1456
    1PC      HB 1505   1.816   2.670   6.496 -0.5904  0.2483 -0.0739
    1PC     O31 1506   1.792   2.703   6.696 -0.3862 -0.3033 -0.4707
    1PC     P31 1507   1.743   2.651   6.841 -0.2494  0.0749 -0.4477
    1PC     O32 1508   1.813   2.506   6.866  0.0824 -0.1216  0.9714
    1PC     C31 1509   1.764   2.380   6.815 -0.1564  0.3769  0.0825
    1PC     H1A 1510   1.691   2.352   6.891  2.5323 -1.6093  2.1189
    1PC     H1B 1511   1.728   2.391   6.712  0.7054 -0.2380 -0.3001
    1PC     C32 1512   1.883   2.279   6.816 -0.3501  0.1981  0.3962
    1PC     H2A 1513   1.853   2.183   6.774 -2.5801  0.9307  0.1693
    1PC     H2B 1514   1.957   2.319   6.746 -1.2828 -0.2406 -0.8757
    1PC     N31 1515   1.968   2.243   6.940  0.7697  0.3749  0.4143
    1PC     C33 1516   1.886   2.216   7.060  0.1983  0.0901  0.1123
    1PC     H3A 1517   1.959   2.179   7.133 -2.4559 -1.3757  2.2251
    1PC     H3B 1518   1.852   2.313   7.094 -1.0930 -0.5624  0.7669
    1PC     H3C 1519   1.807   2.143   7.041 -0.0312 -0.2944  2.2524
    1PC     C34 1520   2.044   2.120   6.914  0.4104  0.0765 -0.1062
    1PC     H4A 1521   2.151   2.135   6.928  0.8842 -3.2018  0.6157
    1PC     H4B 1522   2.025   2.048   6.993  4.9159  0.8686  2.0477
    1PC     H4C 1523   2.028   2.082   6.813 -0.2267  0.7722 -0.2735
    1PC     C35 1524   2.057   2.355   6.986 -0.0182  0.2681 -0.2860
    1PC     H5A 1525   2.004   2.450   6.986  0.8984  0.7884 -0.1703
    1PC     H5B 1526   2.143   2.355   6.918  2.8192 -0.2107  3.0086
    1PC     H5C 1527   2.101   2.343   7.085  1.1906 -3.3611 -1.0958
    1PC     O33 1528   1.801   2.737   6.949  0.0755  0.0379 -0.0556
    1PC     O34 1529   1.598   2.623   6.843  0.3466  0.3037  0.0322
    1PC     O21 1530   1.585   2.706   6.393  1.1099 -0.0685 -0.4332
    1PC     C21 1531   1.469   2.643   6.390 -0.0568  0.0529 -0.1853
    1PC     O22 1532   1.400   2.620   6.485  0.4584  0.4376 -0.2272
    1OL     C12 1533   1.425   2.619   6.245  0.0363 -0.6024  0.2176
    1OL     H2R 1534   1.359   2.532   6.246 -1.9269  0.8191  1.0953
    1OL     H2S 1535   1.506   2.601   6.174  0.2732  2.0270 -0.2682
    1OL     C13 1536   1.350   2.755   6.201 -0.4079  0.1927  0.4866
    1OL     H3R 1537   1.403   2.846   6.230 -3.8263  2.5200  0.0044
    1OL     H3S 1538   1.249   2.758   6.241 -0.8249 -1.7459 -0.3192
    1OL     C14 1539   1.326   2.759   6.048  0.5633  0.2840  0.7766
    1OL     H4R 1540   1.263   2.846   6.023  0.6577  0.1859  0.1723
    1OL     H4S 1541   1.276   2.667   6.018 -1.2071  1.6543 -0.7813
    1OL     C15 1542   1.459   2.782   5.971  0.2851  0.1983 -0.6978
    1OL     H5R 1543   1.530   2.704   5.999 -0.0692  0.9566  2.7490
    1OL     H5S 1544   1.495   2.880   6.006 -1.9132  0.7577  0.1435
    1OL     C16 1545   1.439   2.788   5.815  0.2886 -0.0466 -0.8990
    1OL     H6R 1546   1.356   2.858   5.805 -0.0185 -0.1445  0.6291
    1OL     H6S 1547   1.414   2.687   5.781  2.1935 -0.3668 -1.5130
    1OL     C17 1548   1.559   2.837   5.744  0.8793  0.0424  0.4227
    1OL     H7R 1549   1.635   2.758   5.738  1.4219  0.5258  0.8591
    1OL     H7S 1550   1.592   2.922   5.803 -0.9472 -0.4722  2.2737
    1OL     C18 1551   1.525   2.873   5.598 -0.1946  0.2353 -0.1887
    1OL     H8R 1552   1.451   2.953   5.593 -1.9129 -1.1931  1.1167
    1OL     H8S 1553   1.496   2.779   5.549 -0.5309 -0.4021  1.1890
    1OL     C19 1554   1.652   2.912   5.535 -0.1437 -0.0714  0.6109
    1OL     H9R 1555   1.716   2.976   5.596 -1.3407  0.0427  1.8146
    1OL    C110 1556   1.706   2.859   5.423  0.6323  0.0605  0.1085
    1OL    H10R 1557   1.800   2.902   5.392  0.5703  0.8489  0.9804
    1OL    C111 1558   1.655   2.755   5.331 -0.9117  0.1784  0.8046
    1OL    H11R 1559   1.620   2.788   5.233  1.2712 -0.8979 -0.4212
    1OL    H11S 1560   1.573   2.697   5.373 -1.0446 -1.4669 -1.5548
    1OL    C112 1561   1.776   2.655   5.309 -0.2967 -0.5232 -0.0457
    1OL    H12R 1562   1.818   2.618   5.402 -0.6455 -1.5005 -0.2649
    1OL    H12S 1563   1.859   2.705   5.258 -0.1058 -1.9532 -1.2070
    1OL    C113 1564   1.735   2.540   5.214 -0.6517 -0.1765  0.0856
    1OL    H13R 1565   1.731   2.591   5.118 -0.1547 -0.3207 -0.0167
    1OL    H13S 1566   1.636   2.497   5.229 -0.2283 -0.6992  1.5840
    1OL    C114 1567   1.834   2.427   5.198 -0.2678  0.0884  0.3540
    1OL    H14R 1568   1.933   2.459   5.165  0.5244 -1.3183  1.2235
    1OL    H14S 1569   1.795   2.362   5.121 -2.3397  0.1135  1.3157
    1OL    C115 1570   1.848   2.343   5.327  0.7338 -0.0374 -0.1863
    1OL    H15R 1571   1.752   2.296   5.349  1.0080  0.1370  1.4893
    1OL    H15S 1572   1.868   2.409   5.411 -0.5995  0.0517  0.0794
    1OL    C116 1573   1.940   2.218   5.328 -0.3560 -0.8125  0.2564
    1OL    H16R 1574   2.038   2.259   5.304 -1.2119  0.7632 -0.7544
    1OL    H16S 1575   1.903   2.146   5.254 -0.0599 -0.3483 -0.3586
    1OL    C117 1576   1.936   2.150   5.471  0.5736 -0.1468  0.3738
    1OL    H17R 1577   1.832   2.124   5.493 -0.3966  2.0473 -1.2222
    1OL    H17S 1578   1.977   2.218   5.545 -0.6797  1.4647 -0.3218
    1OL    C118 1579   2.027   2.015   5.466  0.2342 -0.4580  0.5721
    1OL    H18R 1580   2.130   2.049   5.453 -0.1129  0.2786 -0.3810
    1OL    H18S 1581   1.996   1.961   5.376 -0.6873  1.5921 -0.4327
    1OL    H18T 1582   2.019   1.956   5.557 -2.0560  0.4389  1.0302
    1PA    C116 1583   2.688   0.345   5.378 -0.6336  0.5008 -0.0347
    1PA    H16R 1584   2.641   0.438   5.410 -1.2003  1.4833 -3.2738
    1PA    H16S 1585   2.730   0.311   5.472  1.2793  3.1811  0.1995
    1PA    H16T 1586   2.615   0.271   5.347  0.0379  0.0853 -0.6620
    1PA    C115 1587   2.799   0.354   5.275 -0.0347  0.0280 -0.0529
    1PA    H15R 1588   2.830   0.253   5.247 -3.5900 -1.0424 -0.5884
    1PA    H15S 1589   2.762   0.400   5.183  0.7921  1.1915  0.1682
    1PA    C114 1590   2.918   0.432   5.331  0.0201 -0.1940 -0.6421
    1PA    H14R 1591   2.948   0.371   5.417  0.0636 -0.1681 -0.6388
    1PA    H14S 1592   3.000   0.419   5.260  0.5728  0.0951 -0.0707
    1PA    C113 1593   2.906   0.584   5.365 -0.3221  0.4204 -0.0142
    1PA    H13R 1594   2.863   0.640   5.282 -1.2599  0.6386  0.5935
    1PA    H13S 1595   2.836   0.594   5.449 -2.2649 -1.8885 -1.2406
    1PA    C112 1596   3.042   0.650   5.415 -0.4703 -0.3027  0.8808
    1PA    H12R 1597   3.107   0.644   5.327 -1.4824 -1.2227  0.1604
    1PA    H12S 1598   3.031   0.755   5.443  3.7057  0.4121  0.4938
    1PA    C111 1599   3.100   0.579   5.532  0.1912 -0.5196 -0.0113
    1PA    H11R 1600   3.016   0.577   5.602  0.2535 -0.4455  0.0664
    1PA    H11S 1601   3.108   0.472   5.511 -2.5666 -0.7073 -0.4915
    1PA    C110 1602   3.234   0.627   5.595 -0.0812 -0.0425 -0.0569
    1PA    H10R 1603   3.243   0.541   5.663 -0.4673 -0.2634 -0.2839
    1PA    H10S 1604   3.318   0.605   5.528  0.0863  0.3715  0.0158
    1PA     C19 1605   3.250   0.756   5.667  0.1929  0.6523 -0.0481
    1PA     H9R 1606   3.357   0.769   5.687 -0.1004  1.4471  1.0793
    1PA     H9S 1607   3.220   0.837   5.599  0.0431  2.1673  1.7489
    1PA     C18 1608   3.167   0.773   5.789  0.2535 -0.7288 -0.9666
    1PA     H8R 1609   3.161   0.879   5.815  1.0190 -0.4244 -1.9646
    1PA     H8S 1610   3.065   0.749   5.760 -0.9884  1.3471  1.2754
    1PA     C17 1611   3.209   0.689   5.913 -0.2241 -0.2434 -0.1495
    1PA     H7R 1612   3.233   0.586   5.886 -1.6155 -0.7403  0.4206
    1PA     H7S 1613   3.291   0.747   5.956  0.5327 -1.3149 -0.0952
    1PA     C16 1614   3.100   0.685   6.024 -0.4634  0.6748 -0.0315
    1PA     H6R 1615   3.145   0.650   6.117 -1.9429  2.3400  1.3806
    1PA     H6S 1616   3.072   0.788   6.048  0.4716  0.6120  1.4041
    1PA     C15 1617   2.974   0.593   5.980 -0.6402 -0.5576  0.0017
    1PA     H5R 1618   2.937   0.613   5.879 -0.1542  0.6460  0.0480
    1PA     H5S 1619   3.000   0.487   5.978 -2.3057 -0.9984 -1.1141
    1PA     C14 1620   2.856   0.614   6.082  0.0664  0.2924 -0.2367
    1PA     H4R 1621   2.837   0.720   6.100 -2.1426 -0.3550  1.7207
    1PA     H4S 1622   2.761   0.577   6.044 -1.5237  1.5624  2.2075
    1PA     C13 1623   2.882   0.548   6.218 -0.3311 -0.2065  0.0586
    1PA     H3R 1624   2.924   0.453   6.186 -0.6102  0.0485 -1.0914
    1PA     H3S 1625   2.957   0.606   6.271 -1.8803  1.0015  1.0451
    1PA     C12 1626   2.746   0.543   6.303 -0.1581  0.5642  0.7095
    1PA     H2R 1627   2.707   0.641   6.332 -0.6941  0.3608  0.6869
    1PA     H2S 1628   2.674   0.495   6.236  1.0876  1.2434 -1.2024
    1PC     C11 1629   2.775   0.465   6.432  0.0366 -0.0892 -0.0181
    1PC     O12 1630   2.881   0.475   6.498 -0.1488 -0.7927 -0.1094
    1PC     O11 1631   2.664   0.402   6.489  0.1727 -0.2082  0.4132
    1PC      C1 1632   2.690   0.328   6.614 -0.4198 -0.4410  0.8236
    1PC      HR 1633   2.609   0.258   6.639 -0.4834 -0.8907 -0.5358
    1PC      HS 1634   2.784   0.273   6.606  0.4021  1.2357 -3.2542
    1PC      C2 1635   2.711   0.428   6.734 -0.2830  0.4190 -0.4866
    1PC      HX 1636   2.803   0.486   6.720  1.2611 -2.0204 -0.9947
    1PC      C3 1637   2.722   0.366   6.876 -0.2625 -0.5499  0.6097
    1PC      HA 1638   2.806   0.297   6.865 -0.0501 -0.0406 -1.3856
    1PC      HB 1639   2.752   0.438   6.952 -1.0229 -0.0877  0.4890
    1PC     O31 1640   2.613   0.286   6.910  0.2499  0.2735 -0.4750
    1PC     P31 1641   2.607   0.198   7.047 -0.3751  0.0995  0.2681
    1PC     O32 1642   2.579   0.300   7.162  0.3489 -0.1023 -0.2447
    1PC     C31 1643   2.456   0.374   7.164  0.2728 -0.1432  0.7277
    1PC     H1A 1644   2.474   0.472   7.120  1.0507  0.1552  1.6668
    1PC     H1B 1645   2.375   0.321   7.114  0.8734 -1.5006  1.1562
    1PC     C32 1646   2.405   0.389   7.309  0.5868 -0.4186  1.6438
    1PC     H2A 1647   2.306   0.435   7.318  1.1854  0.5087  5.8268
    1PC     H2B 1648   2.383   0.293   7.356 -2.2586 -0.3296  0.6915
    1PC     N31 1649   2.482   0.469   7.396  0.6399 -0.4409 -0.2145
    1PC     C33 1650   2.537   0.595   7.329  0.0443 -0.0259  0.0815
    1PC     H3A 1651   2.615   0.556   7.264 -1.1202 -2.0278 -0.1968
    1PC     H3B 1652   2.468   0.642   7.258  0.9649  0.2747 -0.6371
    1PC     H3C 1653   2.573   0.666   7.404 -2.7422  0.9534  0.6185
    1PC     C34 1654   2.398   0.511   7.509  0.8596 -1.2323 -0.6564
    1PC     H4A 1655   2.356   0.432   7.571 -0.9276  1.4328  1.7733
    1PC     H4B 1656   2.456   0.580   7.571  1.2349 -2.1261 -0.0067
    1PC     H4C 1657   2.315   0.569   7.467  1.1784  1.0520  1.5753
    1PC     C35 1658   2.591   0.397   7.456 -0.7175  0.1222  0.3302
    1PC     H5A 1659   2.662   0.372   7.378  0.3764  0.1213  1.3026
    1PC     H5B 1660   2.549   0.309   7.504 -0.9401  0.5571  0.9587
    1PC     H5C 1661   2.647   0.460   7.526 -0.9730  1.3226 -0.5146
    1PC     O33 1662   2.494   0.099   7.040 -0.7887 -0.3176  0.3170
    1PC     O34 1663   2.742   0.141   7.078 -0.2614  0.1516  0.3421
    1PC     O21 1664   2.595   0.511   6.742  0.0014 -0.7483  0.0954
    1PC     C21 1665   2.601   0.645   6.746  0.1373  1.3909 -0.0907
    1PC     O22 1666   2.698   0.713   6.742 -0.2123  0.4618 -0.3729
    1OL     C12 1667   2.466   0.709   6.756  0.0888 -0.0287  0.0574
    1OL     H2R 1668   2.449   0.773   6.843  2.7557  1.6653 -0.5543
    1OL     H2S 1669   2.386   0.635   6.766 -1.5795  1.5570 -0.9233
    1OL     C13 1670   2.442   0.799   6.632  0.3435 -0.0326  0.7561
    1OL     H3R 1671   2.506   0.884   6.610  1.6639 -1.5128 -1.5416
    1OL     H3S 1672   2.336   0.824   6.642  0.0043 -1.0125 -0.1329
    1OL     C14 1673   2.442   0.718   6.500  0.5553 -0.2802 -0.0458
    1OL     H4R 1674   2.385   0.625   6.505  1.0738 -0.6855 -1.2826
    1OL     H4S 1675   2.543   0.694   6.467  1.1477 -2.3077  2.8497
    1OL     C15 1676   2.380   0.814   6.392  0.4942  0.1899 -0.2556
    1OL     H5R 1677   2.415   0.918   6.394 -1.1425  0.8025 -1.3854
    1OL     H5S 1678   2.271   0.820   6.398  0.5034  0.4353 -0.3197
    1OL     C16 1679   2.421   0.770   6.261  0.3607  0.4537  0.7742
    1OL     H6R 1680   2.526   0.740   6.253  0.0572 -0.7898  1.2140
    1OL     H6S 1681   2.407   0.858   6.198 -1.7971 -0.2209  0.2183
    1OL     C17 1682   2.323   0.658   6.211 -0.0396  0.4278  0.8114
    1OL     H7R 1683   2.221   0.695   6.204 -0.5868 -0.5185  3.0758
    1OL     H7S 1684   2.321   0.576   6.283 -0.8638  0.6707  1.0712
    1OL     C18 1685   2.378   0.615   6.071  0.2972  0.3205  0.4932
    1OL     H8R 1686   2.486   0.600   6.082  0.5319  0.8607 -0.8445
    1OL     H8S 1687   2.364   0.688   5.991  1.9688  0.4767  0.3049
    1OL     C19 1688   2.319   0.496   6.009  0.6601  0.1049  0.4324
    1OL     H9R 1689   2.235   0.451   6.062  1.3439 -0.1003  1.3471
    1OL    C110 1690   2.367   0.436   5.900 -0.1840  0.2826 -0.1894
    1OL    H10R 1691   2.317   0.347   5.864 -1.7316  0.8265  0.5421
    1OL    C111 1692   2.487   0.482   5.815 -0.1020  0.1474  0.5179
    1OL    H11R 1693   2.550   0.394   5.804 -0.0422  0.0289  1.6691
    1OL    H11S 1694   2.552   0.557   5.862  1.9685 -0.0621 -1.8303
    1OL    C112 1695   2.473   0.524   5.665 -0.4348 -0.2155 -0.4588
    1OL    H12R 1696   2.433   0.442   5.605  0.5424 -1.0210 -0.0401
    1OL    H12S 1697   2.574   0.543   5.629 -0.2249  0.1997  0.3308
    1OL    C113 1698   2.365   0.632   5.641 -0.0145  0.3728  0.3112
    1OL    H13R 1699   2.395   0.725   5.691  0.7746 -0.1370  0.7966
    1OL    H13S 1700   2.274   0.607   5.697 -0.8553  0.0943 -1.1284
    1OL    C114 1701   2.330   0.666   5.499 -0.1499 -0.2291 -0.0697
    1OL    H14R 1702   2.283   0.582   5.448  1.8409 -0.9414 -0.8588
    1OL    H14S 1703   2.425   0.691   5.452  1.2753 -0.8480  2.2797
    1OL    C115 1704   2.238   0.790   5.494 -0.3453  0.3401  0.2928
    1OL    H15R 1705   2.295   0.883   5.501  0.0532  0.0831  0.4528
    1OL    H15S 1706   2.172   0.786   5.580  0.4149  0.1719  0.8742
    1OL    C116 1707   2.139   0.796   5.373 -0.0844  0.1505 -0.5251
    1OL    H16R 1708   2.083   0.702   5.377  0.8662 -0.4385 -0.6903
    1OL    H16S 1709   2.198   0.793   5.281  2.1816  0.8866  0.8306
    1OL    C117 1710   2.035   0.909   5.369 -0.7274 -0.4406  0.4172
    1OL    H17R 1711   1.974   0.914   5.459  1.5431  2.1237  1.9647
    1OL    H17S 1712   1.968   0.886   5.286  0.8768 -0.1541 -1.0226
    1OL    C118 1713   2.107   1.044   5.366 -0.5966 -0.7522 -0.2466
    1OL    H18R 1714   2.047   1.132   5.342 -1.0829 -0.6248  1.3277
    1OL    H18S 1715   2.192   1.052   5.298  0.0872  0.1658  0.6792
    1OL    H18T 1716   2.146   1.053   5.468 -1.4505  0.7969 -0.0308
    1PA    C116 1717   5.046   2.305   5.370 -0.7728 -0.2468 -0.6827
    1PA    H16R 1718   5.125   2.380   5.355  0.0715 -1.4142 -2.5043
    1PA    H16S 1719   5.098   2.210   5.373  0.6665  0.5334  0.6753
    1PA    H16T 1720   4.997   2.327   5.465  0.9200 -1.4633  0.5265
    1PA    C115 1721   4.941   2.315   5.259  0.1011  0.8307  0.1835
    1PA    H15R 1722   4.900   2.416   5.250 -1.1589  0.1685 -3.6914
    1PA    H15S 1723   4.991   2.286   5.166  0.8598 -2.3123  1.4519
    1PA    C114 1724   4.822   2.222   5.259 -0.4568  0.4108  0.0505
    1PA    H14R 1725   4.757   2.273   5.187 -0.6547  1.4800  0.9519
    1PA    H14S 1726   4.837   2.117   5.231 -2.3947 -0.0182  0.4382
    1PA    C113 1727   4.750   2.238   5.395  0.5508 -0.4935  0.4129
    1PA    H13R 1728   4.826   2.227   5.473  0.6742 -0.4233  0.3027
    1PA    H13S 1729   4.717   2.342   5.397 -1.3123 -1.0129 -0.9324
    1PA    C112 1730   4.641   2.133   5.414 -0.3118  0.1234  0.4197
    1PA    H12R 1731   4.592   2.161   5.507  1.0626 -0.6554  1.4184
    1PA    H12S 1732   4.572   2.143   5.330  1.4275 -1.9835 -1.3867
    1PA    C111 1733   4.691   1.989   5.420 -0.6013 -0.0834 -0.7792
    1PA    H11R 1734   4.606   1.935   5.377 -1.6998  1.7622 -0.9972
    1PA    H11S 1735   4.772   1.970   5.349 -0.8783  0.7526 -1.3276
    1PA    C110 1736   4.729   1.933   5.565  0.1038 -0.4292 -0.5549
    1PA    H10R 1737   4.765   1.831   5.549 -1.9393 -1.5938  1.5423
    1PA    H10S 1738   4.801   1.994   5.621  1.2444 -1.5927 -0.7208
    1PA     C19 1739   4.603   1.919   5.641  0.0580 -0.2576 -0.0976
    1PA     H9R 1740   4.562   2.020   5.644  1.5303  0.4974 -2.7494
    1PA     H9S 1741   4.540   1.866   5.569 -0.1192  1.2346 -1.0902
    1PA     C18 1742   4.607   1.849   5.782 -0.0585 -0.2408  0.5320
    1PA     H8R 1743   4.675   1.907   5.845  3.0147 -1.1714 -1.6765
    1PA     H8S 1744   4.502   1.849   5.812  0.1575  0.7546  1.3428
    1PA     C17 1745   4.663   1.708   5.780  0.1451  0.2888  0.0392
    1PA     H7R 1746   4.612   1.649   5.704 -0.0380 -0.7316  0.9192
    1PA     H7S 1747   4.772   1.700   5.785 -0.0224 -2.0596  1.8372
    1PA     C16 1748   4.617   1.645   5.918 -0.6644 -0.4091 -0.6455
    1PA     H6R 1749   4.686   1.686   5.992  0.3877 -0.0516 -1.7819
    1PA     H6S 1750   4.517   1.665   5.957  0.9206  0.5577  3.4223
    1PA     C15 1751   4.633   1.494   5.923 -0.4590  0.3156 -0.3631
    1PA     H5R 1752   4.566   1.450   5.849 -1.4832  1.1550  0.0393
    1PA     H5S 1753   4.735   1.458   5.904 -0.3783  2.0357 -4.1427
    1PA     C14 1754   4.587   1.424   6.055  0.1788 -0.5427  0.9845
    1PA     H4R 1755   4.479   1.435   6.064  0.0512 -0.0730 -0.7438
    1PA     H4S 1756   4.605   1.317   6.052 -1.8840 -0.9187  0.1143
    1PA     C13 1757   4.657   1.480   6.174  0.2743 -0.4420  0.6261
    1PA     H3R 1758   4.765   1.468   6.164  0.2345  0.1834 -0.7876
    1PA     H3S 1759   4.633   1.586   6.189  0.2876 -0.3485  0.0005
    1PA     C12 1760   4.615   1.405   6.302  0.6094 -0.0047  0.5590
    1PA     H2R 1761   4.511   1.435   6.319  0.5453 -0.0366  0.2366
    1PA     H2S 1762   4.627   1.298   6.285  1.0157  0.1141  0.0567
    1PC     C11 1763   4.697   1.444   6.419 -0.6035  0.0265  0.1766
    1PC     O12 1764   4.812   1.410   6.422 -0.5686  1.0821 -0.1062
    1PC     O11 1765   4.635   1.512   6.516  0.6307 -0.4264  0.4255
    1PC      C1 1766   4.704   1.573   6.630  0.2370 -0.3300 -0.1484
    1PC      HR 1767   4.727   1.493   6.700 -0.2890  0.7681  1.3307
    1PC      HS 1768   4.787   1.622   6.580 -0.9072 -0.0675 -1.8843
    1PC      C2 1769   4.613   1.691   6.689  0.0189 -0.4246 -0.0094
    1PC      HX 1770   4.671   1.755   6.756  0.6524 -1.3442  0.3417
    1PC      C3 1771   4.487   1.633   6.763  0.1188 -0.3588  0.6469
    1PC      HA 1772   4.423   1.720   6.780  1.6813  0.8326  0.5775
    1PC      HB 1773   4.442   1.557   6.697 -0.1405  0.4119 -0.0871
    1PC     O31 1774   4.533   1.564   6.884 -0.1924  0.0028  0.2559
    1PC     P31 1775   4.567   1.630   7.023 -0.0588 -0.8025  0.1682
    1PC     O32 1776   4.426   1.645   7.088  0.0848  0.3091 -0.0766
    1PC     C31 1777   4.361   1.771   7.080  0.3895 -0.5115  0.1168
    1PC     H1A 1778   4.409   1.851   7.137 -0.1613  0.5239 -0.8185
    1PC     H1B 1779   4.353   1.803   6.975 -0.5052  2.1461  0.9181
    1PC     C32 1780   4.212   1.747   7.135  0.5397  0.5092 -0.4088
    1PC     H2A 1781   4.150   1.835   7.116  0.7872  0.4570 -1.4981
    1PC     H2B 1782   4.174   1.664   7.076  0.7355 -0.2785  0.5532
    1PC     N31 1783   4.198   1.711   7.279 -0.2671  0.2874 -0.3762
    1PC     C33 1784   4.217   1.569   7.305 -0.1932 -0.0408  0.4851
    1PC     H3A 1785   4.318   1.543   7.274  0.5409  0.7304  2.1097
    1PC     H3B 1786   4.214   1.546   7.412  0.9672 -3.1482 -0.0470
    1PC     H3C 1787   4.139   1.510   7.256  0.3959 -1.4048  1.1278
    1PC     C34 1788   4.297   1.782   7.357 -0.0595 -0.6185 -0.6238
    1PC     H4A 1789   4.294   1.751   7.461  1.0955 -0.7437 -0.6115
    1PC     H4B 1790   4.397   1.762   7.318 -0.4917 -2.8050 -0.7143
    1PC     H4C 1791   4.273   1.888   7.344  1.3539 -0.1862  0.0781
    1PC     C35 1792   4.065   1.757   7.328 -0.6238 -0.1935 -0.5379
    1PC     H5A 1793   3.990   1.737   7.252 -0.9847 -0.2519 -0.1723
    1PC     H5B 1794   4.078   1.862   7.353  0.5999 -0.9208  2.2565
    1PC     H5C 1795   4.049   1.702   7.421  2.3631  1.1896  0.9520
    1PC     O33 1796   4.643   1.531   7.099 -0.4058  0.1263  0.4003
    1PC     O34 1797   4.620   1.764   6.997  0.0172 -0.2410  0.2068
    1PC     O21 1798   4.565   1.765   6.575 -0.4016  0.2387  0.2656
    1PC     C21 1799   4.659   1.835   6.502  0.5446 -0.0436  0.2255
    1PC     O22 1800   4.771   1.867   6.544  0.2447  0.0392  0.0978
    1OL     C12 1801   4.619   1.871   6.363  0.3437 -0.6446 -0.4793
    1OL     H2R 1802   4.620   1.790   6.290 -0.2308 -1.3217  0.2437
    1OL     H2S 1803   4.681   1.958   6.340 -1.0031  1.3600  2.8396
    1OL     C13 1804   4.475   1.912   6.338 -0.2445 -0.0213  0.0258
    1OL     H3R 1805   4.428   1.988   6.401 -0.4369  0.2807 -0.4753
    1OL     H3S 1806   4.418   1.820   6.351 -0.5473  0.1615 -0.0065
    1OL     C14 1807   4.436   1.949   6.189  0.4506 -0.1390  0.1460
    1OL     H4R 1808   4.327   1.954   6.179  0.4153 -0.4732  0.3411
    1OL     H4S 1809   4.450   1.863   6.123  2.0245  1.1407 -1.2636
    1OL     C15 1810   4.493   2.075   6.130  0.6130  0.2690 -0.2300
    1OL     H5R 1811   4.458   2.097   6.029  1.7413  2.0584 -0.2796
    1OL     H5S 1812   4.602   2.063   6.128  0.8273  1.1162  2.4766
    1OL     C16 1813   4.461   2.200   6.218  0.2441  0.3559  0.6018
    1OL     H6R 1814   4.497   2.292   6.172  2.7806 -0.0933  1.4712
    1OL     H6S 1815   4.518   2.191   6.312 -0.3595  1.1985  1.0541
    1OL     C17 1816   4.309   2.213   6.244 -1.4783 -0.1082  0.3087
    1OL     H7R 1817   4.275   2.129   6.306 -1.4556  0.1857  0.7212
    1OL     H7S 1818   4.250   2.220   6.153 -0.1327  1.1587 -0.5150
    1OL     C18 1819   4.274   2.346   6.311  0.0015 -0.0004  0.1411
    1OL     H8R 1820   4.324   2.354   6.408 -1.1948 -0.6802  0.8456
    1OL     H8S 1821   4.170   2.338   6.341  0.0033  0.2450  0.2109
    1OL     C19 1822   4.311   2.459   6.224 -0.3565 -0.1205  0.6564
    1OL     H9R 1823   4.410   2.498   6.248  0.0600 -1.4384  1.1882
    1OL    C110 1824   4.232   2.514   6.132  0.6277  0.4392 -0.1803
    1OL    H10R 1825   4.267   2.601   6.077  0.9216  1.4873  1.5737
    1OL    C111 1826   4.094   2.467   6.100  0.0311  0.5106 -0.3099
    1OL    H11R 1827   4.023   2.547   6.119  1.0228  1.3722 -0.1077
    1OL    H11S 1828   4.070   2.376   6.156  0.2357  1.8516  2.0892
    1OL    C112 1829   4.081   2.449   5.949  0.3063  0.0124  0.5252
    1OL    H12R 1830   4.095   2.550   5.908 -0.8906  0.0684  0.2052
    1OL    H12S 1831   3.976   2.423   5.936 -0.4504  3.4068 -1.4285
    1OL    C113 1832   4.174   2.348   5.875  0.4278 -0.5331  0.1896
    1OL    H13R 1833   4.167   2.247   5.916  1.5482 -0.2209  1.1967
    1OL    H13S 1834   4.276   2.381   5.899  0.2122  0.2753  0.0187
    1OL    C114 1835   4.156   2.350   5.721 -0.6096 -0.4614 -0.2112
    1OL    H14R 1836   4.164   2.450   5.678 -2.8021 -0.6558 -1.2105
    1OL    H14S 1837   4.056   2.308   5.704 -1.2021 -2.0608  5.1913
    1OL    C115 1838   4.264   2.255   5.650  0.6124  0.1237 -0.5460
    1OL    H15R 1839   4.245   2.150   5.672  0.8133  0.2058  0.0234
    1OL    H15S 1840   4.361   2.278   5.694 -0.0747  0.4684  0.8312
    1OL    C116 1841   4.269   2.292   5.499 -0.4559  0.1365 -0.0434
    1OL    H16R 1842   4.366   2.260   5.460  0.1641  1.4627  0.3534
    1OL    H16S 1843   4.265   2.401   5.497 -0.8258  0.1386  0.7181
    1OL    C117 1844   4.161   2.229   5.414  0.2497 -1.3837 -0.0860
    1OL    H17R 1845   4.057   2.249   5.442  0.4881  3.4019 -1.6555
    1OL    H17S 1846   4.183   2.122   5.406  5.3570 -0.4500 -2.4396
    1OL    C118 1847   4.164   2.290   5.271  0.0075  0.0496 -0.0857
    1OL    H18R 1848   4.088   2.235   5.214 -1.9907  1.6343  0.9567
    1OL    H18S 1849   4.258   2.267   5.219  0.4992 -0.0525  0.8283
    1OL    H18T 1850   4.137   2.394   5.285  0.0037  0.0588 -0.1602
    1PA    C116 1851   3.752   1.038   5.012  0.8309 -0.0852  0.5725
    1PA    H16R 1852   3.695   1.116   4.961 -0.0104 -1.3459 -0.4713
    1PA    H16S 1853   3.697   0.944   5.001  1.8580 -0.6607  0.1966
    1PA    H16T 1854   3.847   1.029   4.959  0.1630 -0.9579 -0.5166
    1PA    C115 1855   3.771   1.076   5.155  0.4161 -0.4212  0.9737
    1PA    H15R 1856   3.844   1.018   5.211  0.2771 -1.5772 -0.0031
    1PA    H15S 1857   3.809   1.178   5.156  1.4216 -0.7473 -0.6080
    1PA    C114 1858   3.630   1.091   5.225 -0.1539  0.1163  0.3021
    1PA    H14R 1859   3.630   1.178   5.291  1.8363  1.4477 -1.3124
    1PA    H14S 1860   3.560   1.108   5.143 -3.3660 -1.8605  2.4319
    1PA    C113 1861   3.587   0.963   5.293 -0.7109  0.2330  0.0771
    1PA    H13R 1862   3.602   0.877   5.228 -0.7995 -0.0810  0.4650
    1PA    H13S 1863   3.649   0.938   5.379 -0.6740  0.3097  0.0724
    1PA    C112 1864   3.446   0.963   5.343 -0.1092 -0.2548  0.3042
    1PA    H12R 1865   3.375   0.982   5.262  0.6149 -0.8559 -0.4900
    1PA    H12S 1866   3.425   0.860   5.371  1.5417 -0.7881 -0.3307
    1PA    C111 1867   3.413   1.062   5.459 -0.3847 -0.1994  0.1003
    1PA    H11R 1868   3.399   1.160   5.413  1.6375 -1.3116 -3.2307
    1PA    H11S 1869   3.319   1.024   5.502 -0.2952 -3.1756 -2.0496
    1PA    C110 1870   3.524   1.074   5.569  0.4002 -0.6855  0.0370
    1PA    H10R 1871   3.545   0.975   5.611 -0.7837 -0.7655  0.5007
    1PA    H10S 1872   3.611   1.106   5.512  0.2703  0.0009  0.2120
    1PA     C19 1873   3.492   1.156   5.687 -0.0464  0.0808 -0.2490
    1PA     H9R 1874   3.473   1.262   5.666 -0.9750 -0.2881 -1.3589
    1PA     H9S 1875   3.395   1.123   5.727  0.8830 -0.3909  1.7334
    1PA     C18 1876   3.606   1.137   5.786  0.4063  0.1958 -0.4069
    1PA     H8R 1877   3.609   1.035   5.825  3.1530  0.7628  1.1484
    1PA     H8S 1878   3.700   1.163   5.737  0.6741 -0.4738 -0.2512
    1PA     C17 1879   3.582   1.241   5.902  0.0152 -0.9586  0.3214
    1PA     H7R 1880   3.667   1.241   5.972 -0.9064 -0.5404  1.4873
    1PA     H7S 1881   3.585   1.345   5.869  0.1921 -0.3627  2.0872
    1PA     C16 1882   3.445   1.217   5.975 -0.0572 -0.3242 -0.4171
    1PA     H6R 1883   3.366   1.264   5.915 -0.7156 -0.4560  0.3400
    1PA     H6S 1884   3.428   1.110   5.986 -1.7827 -0.1778 -1.3796
    1PA     C15 1885   3.446   1.278   6.116  0.9033 -0.6808 -0.3502
    1PA     H5R 1886   3.478   1.382   6.114  0.7455 -0.4673  2.7406
    1PA     H5S 1887   3.342   1.256   6.142  1.1901 -0.5363  0.9848
    1PA     C14 1888   3.527   1.213   6.224  0.9674  0.9444  0.5809
    1PA     H4R 1889   3.505   1.106   6.223  3.3745  0.3893  0.4475
    1PA     H4S 1890   3.634   1.214   6.200  0.7664  0.4232 -0.3778
    1PA     C13 1891   3.493   1.278   6.354  0.2421  0.1778  0.2625
    1PA     H3R 1892   3.574   1.268   6.425 -1.3743  0.6363  2.2557
    1PA     H3S 1893   3.468   1.382   6.331  0.6618  0.1553 -0.3440
    1PA     C12 1894   3.364   1.217   6.412  0.6868  0.3969 -0.1904
    1PA     H2R 1895   3.341   1.268   6.506 -1.4327  0.6898 -0.8164
    1PA     H2S 1896   3.272   1.234   6.356 -0.0957 -2.8246 -0.1007
    1PC     C11 1897   3.363   1.079   6.466  0.2417 -0.2372 -0.2350
    1PC     O12 1898   3.452   0.999   6.444  0.7813  0.4180  0.2451
    1PC     O11 1899   3.255   1.057   6.547  0.2041  0.0034 -0.3123
    1PC      C1 1900   3.263   0.937   6.630  0.3993  0.3282  0.3728
    1PC      HR 1901   3.301   0.851   6.574  0.1668  0.8769 -0.6548
    1PC      HS 1902   3.332   0.954   6.714  0.9764 -1.3151  0.2696
    1PC      C2 1903   3.121   0.902   6.688 -0.5976  0.4915  0.1270
    1PC      HX 1904   3.081   0.996   6.727  0.8006  1.4720 -0.6964
    1PC      C3 1905   3.134   0.812   6.816  0.0954  0.2530 -0.0056
    1PC      HA 1906   3.162   0.878   6.899 -0.3894  1.8018 -1.0412
    1PC      HB 1907   3.032   0.778   6.837  0.2583  1.2120  2.7654
    1PC     O31 1908   3.233   0.705   6.789  0.6058  0.2474 -0.7916
    1PC     P31 1909   3.286   0.605   6.901 -0.1083  0.3043  0.3387
    1PC     O32 1910   3.153   0.528   6.952  0.0583  0.3709 -0.1283
    1PC     C31 1911   3.064   0.585   7.051  0.0124  0.3683 -0.0259
    1PC     H1A 1912   3.056   0.694   7.044 -1.1350  0.2321 -1.3356
    1PC     H1B 1913   2.965   0.539   7.048  0.4839 -0.6858  0.0996
    1PC     C32 1914   3.130   0.561   7.192  0.7138  0.1013  0.8903
    1PC     H2A 1915   3.220   0.621   7.207  0.7569  0.1716  0.3845
    1PC     H2B 1916   3.056   0.619   7.247  1.0482  3.1439 -1.5374
    1PC     N31 1917   3.147   0.427   7.238  0.4239  0.1554 -0.1663
    1PC     C33 1918   3.236   0.346   7.144 -0.2133  0.0419 -0.0139
    1PC     H3A 1919   3.183   0.325   7.050 -2.0732  1.1197  0.7331
    1PC     H3B 1920   3.331   0.398   7.136 -0.4548  0.6912  1.1509
    1PC     H3C 1921   3.249   0.251   7.196 -0.5424  0.2487  0.4515
    1PC     C34 1922   3.211   0.433   7.376 -0.5336  0.0750  0.5350
    1PC     H4A 1923   3.292   0.505   7.381 -2.4097  2.2858  0.7790
    1PC     H4B 1924   3.135   0.464   7.448  2.1888  3.3887  2.2538
    1PC     H4C 1925   3.237   0.335   7.416 -0.4773 -0.5995 -1.1090
    1PC     C35 1926   3.023   0.352   7.254  0.5338  0.3593  0.1164
    1PC     H5A 1927   2.976   0.352   7.156 -0.1516  1.4735  0.4212
    1PC     H5B 1928   2.962   0.397   7.333 -1.0443 -1.8211  0.2101
    1PC     H5C 1929   3.049   0.256   7.298  0.3071  1.1819  2.1502
    1PC     O33 1930   3.382   0.514   6.835 -0.3291 -0.2417  0.4094
    1PC     O34 1931   3.341   0.694   7.001  0.3040 -0.1001 -0.4007
    1PC     O21 1932   3.023   0.837   6.599  0.5535  0.7311 -0.2829
    1PC     C21 1933   2.899   0.886   6.602  0.2470  0.3568 -0.4298
    1PC     O22 1934   2.847   0.955   6.684  0.0718 -0.1699 -0.0803
    1OL     C12 1935   2.817   0.856   6.481 -0.8170 -0.0786  0.7000
    1OL     H2R 1936   2.750   0.773   6.506 -1.8036  0.7297  0.7756
    1OL     H2S 1937   2.879   0.820   6.398  0.9116 -1.8286  2.6416
    1OL     C13 1938   2.744   0.968   6.411  0.3775 -0.8181 -0.5405
    1OL     H3R 1939   2.650   0.980   6.466  0.8088  0.5884 -0.0763
    1OL     H3S 1940   2.716   0.923   6.315 -0.7230 -2.4273  0.4788
    1OL     C14 1941   2.819   1.100   6.386  0.7340  0.0481  0.2934
    1OL     H4R 1942   2.840   1.147   6.482  2.5399 -1.0714  0.4881
    1OL     H4S 1943   2.745   1.169   6.342 -1.1775 -0.6214  2.2891
    1OL     C15 1944   2.943   1.087   6.294 -0.4526 -0.1224 -0.1698
    1OL     H5R 1945   3.004   1.001   6.320 -2.5470 -1.4704  0.5987
    1OL     H5S 1946   2.996   1.181   6.309 -1.6615  0.7439 -1.1102
    1OL     C16 1947   2.916   1.087   6.139 -0.2841  0.3297 -0.3111
    1OL     H6R 1948   2.835   1.151   6.106  0.3666  0.2841 -2.0952
    1OL     H6S 1949   2.886   0.983   6.123 -0.3190 -0.1232  2.3008
    1OL     C17 1950   3.052   1.126   6.064  0.5755  0.9876 -0.2322
    1OL     H7R 1951   3.141   1.068   6.087  0.0556  0.6311  0.9687
    1OL     H7S 1952   3.080   1.227   6.093  2.6237  0.8322 -1.4644
    1OL     C18 1953   3.037   1.123   5.909 -0.2003 -0.6189  0.5720
    1OL     H8R 1954   2.998   1.035   5.859 -0.5037 -0.5291  0.6511
    1OL     H8S 1955   3.138   1.145   5.872  0.8701 -1.2679  2.9052
    1OL     C19 1956   2.940   1.234   5.875  1.1088 -0.8921 -0.2136
    1OL     H9R 1957   2.856   1.249   5.942  0.4690 -1.7043 -0.8136
    1OL    C110 1958   2.951   1.317   5.772 -0.6086 -0.0595  0.9595
    1OL    H10R 1959   2.874   1.391   5.753 -0.0797  0.4141  0.6288
    1OL    C111 1960   3.058   1.289   5.660  0.5362  0.0485 -1.1467
    1OL    H11R 1961   3.106   1.191   5.672 -0.9902 -0.4884  1.2436
    1OL    H11S 1962   3.143   1.358   5.666  0.0709  0.5544  0.0696
    1OL    C112 1963   3.011   1.290   5.515  0.5806 -0.4484  0.5818
    1OL    H12R 1964   2.946   1.376   5.498 -0.3749 -1.0927  0.9205
    1OL    H12S 1965   2.943   1.209   5.490 -1.9059  1.5312  0.5752
    1OL    C113 1966   3.134   1.292   5.420 -0.1964 -0.7119  0.1647
    1OL    H13R 1967   3.190   1.201   5.439 -0.1917 -0.9011 -0.7237
    1OL    H13S 1968   3.197   1.381   5.434 -0.1873 -0.5691 -0.7379
    1OL    C114 1969   3.086   1.294   5.269 -0.3992 -0.5839  0.7459
    1OL    H14R 1970   3.010   1.371   5.250  1.4307  1.8872  2.7183
    1OL    H14S 1971   3.032   1.203   5.245 -1.2184  0.4307 -1.4575
    1OL    C115 1972   3.203   1.337   5.176 -0.1230  0.5189 -0.4306
    1OL    H15R 1973   3.288   1.272   5.197  0.0854  1.0314  0.3578
    1OL    H15S 1974   3.231   1.436   5.214 -1.2913 -0.1144  2.3385
    1OL    C116 1975   3.188   1.341   5.024  0.7020  0.9339  0.6178
    1OL    H16R 1976   3.266   1.405   4.982  0.8668 -0.1465 -0.7886
    1OL    H16S 1977   3.095   1.391   4.998 -0.2888 -1.4437 -0.7503
    1OL    C117 1978   3.185   1.199   4.962  0.0899  0.0005  0.2772
    1OL    H17R 1979   3.108   1.150   5.023 -0.8798  0.1130 -0.8177
    1OL    H17S 1980   3.278   1.148   4.987  1.5767  2.0618 -0.7368
    1OL    C118 1981   3.151   1.185   4.810  0.6350  0.0577  0.5178
    1OL    H18R 1982   3.219   1.239   4.743 -1.3373  0.7172 -1.0556
    1OL    H18S 1983   3.052   1.225   4.786 -0.8748 -1.9665  2.8930
    1OL    H18T 1984   3.154   1.080   4.782 -2.0575 -0.3053  1.2838
    1PA    C116 1985   2.367   4.617   5.058 -0.6207  0.3339  0.1168
    1PA    H16R 1986   2.399   4.581   4.960 -1.8248 -0.9314  0.1465
    1PA    H16S 1987   2.406   4.718   5.050  2.3599 -0.7458 -0.1685
    1PA    H16T 1988   2.258   4.607   5.063 -0.6553  0.8451  0.3685
    1PA    C115 1989   2.433   4.556   5.181 -0.3523  0.7380 -0.2112
    1PA    H15R 1990   2.411   4.449   5.185 -1.2520  0.8509 -1.4300
    1PA    H15S 1991   2.541   4.556   5.166 -0.0663 -0.0965  1.5285
    1PA    C114 1992   2.382   4.626   5.313 -0.5954  0.2192 -0.0808
    1PA    H14R 1993   2.405   4.732   5.305 -1.9935  0.6839  1.3936
    1PA    H14S 1994   2.273   4.627   5.327 -0.4565  0.8824  1.0635
    1PA    C113 1995   2.456   4.581   5.436  0.0075  0.9600  0.1614
    1PA    H13R 1996   2.426   4.482   5.471  3.4411 -0.1213  0.4225
    1PA    H13S 1997   2.562   4.573   5.410 -0.4708 -0.8326 -1.4648
    1PA    C112 1998   2.435   4.669   5.557 -0.5967  0.4137  0.0006
    1PA    H12R 1999   2.490   4.631   5.642 -0.1448 -0.2227 -0.5708
    1PA    H12S 2000   2.461   4.772   5.531 -1.0077  0.4378 -0.3350
    1PA    C111 2001   2.292   4.698   5.589  0.9597 -0.0429  0.1283
    1PA    H11R 2002   2.288   4.794   5.642  1.4301  0.7207 -1.1584
    1PA    H11S 2003   2.227   4.722   5.505  0.5128 -0.7785  0.2640
    1PA    C110 2004   2.227   4.592   5.676 -0.0558  0.1907 -0.2968
    1PA    H10R 2005   2.222   4.503   5.613 -0.4274  0.2260 -0.3172
    1PA    H10S 2006   2.293   4.574   5.761  0.0260 -1.3341 -0.6448
    1PA     C19 2007   2.081   4.635   5.704  0.8907  0.1844 -0.2586
    1PA     H9R 2008   2.067   4.730   5.758  1.5563  0.6064 -0.8063
    1PA     H9S 2009   2.034   4.659   5.609  0.5205 -0.6256 -0.2791
    1PA     C18 2010   2.003   4.525   5.766  0.4159 -1.1623  0.0720
    1PA     H8R 2011   1.895   4.543   5.764  0.5494 -0.3942 -0.4531
    1PA     H8S 2012   2.024   4.435   5.709  0.5077 -0.7099 -0.6226
    1PA     C17 2013   2.058   4.509   5.905  0.3878  1.0798  0.1395
    1PA     H7R 2014   2.163   4.481   5.905 -0.5850 -3.3860  0.6300
    1PA     H7S 2015   2.044   4.608   5.948  0.4494  1.5884 -0.9741
    1PA     C16 2016   1.982   4.406   5.998  0.3161  0.2920 -0.0191
    1PA     H6R 2017   2.013   4.416   6.102  0.3897 -0.8884  0.0963
    1PA     H6S 2018   1.876   4.429   5.994  0.6331  1.7967 -3.0175
    1PA     C15 2019   1.991   4.254   5.953  0.6001 -0.1557 -0.0796
    1PA     H5R 2020   1.927   4.186   6.010 -0.1973  1.7537  1.4459
    1PA     H5S 2021   1.945   4.253   5.854 -2.2881 -0.3335  1.1516
    1PA     C14 2022   2.134   4.195   5.953 -0.3970  0.1118 -0.3001
    1PA     H4R 2023   2.128   4.093   5.916 -0.9885 -1.3338  3.4116
    1PA     H4S 2024   2.191   4.259   5.885  0.0335 -0.1034 -0.1442
    1PA     C13 2025   2.201   4.186   6.085 -0.0236  0.6228  0.0564
    1PA     H3R 2026   2.292   4.127   6.072  0.3123  1.5212 -2.0200
    1PA     H3S 2027   2.231   4.281   6.130  1.1860 -1.6079  4.6484
    1PA     C12 2028   2.114   4.100   6.187  0.6062 -0.1539  0.6004
    1PA     H2R 2029   2.029   4.162   6.216  0.5143 -0.9695  2.2118
    1PA     H2S 2030   2.083   4.008   6.137  0.1126  0.8062 -0.9321
    1PC     C11 2031   2.181   4.067   6.305 -0.0514 -0.6879  0.3045
    1PC     O12 2032   2.291   4.104   6.341 -0.6264 -0.0753  0.1921
    1PC     O11 2033   2.102   3.983   6.381 -0.4381 -0.1649  0.3331
    1PC      C1 2034   2.162   3.935   6.499  0.1921  0.5470 -0.3115
    1PC      HR 2035   2.266   3.907   6.484  0.1941 -0.9762  1.8919
    1PC      HS 2036   2.164   4.024   6.562 -1.4310  0.4674 -0.1033
    1PC      C2 2037   2.088   3.814   6.561 -0.5259  0.2483 -0.3270
    1PC      HX 2038   1.985   3.837   6.590 -0.5339  0.6899 -0.6946
    1PC      C3 2039   2.172   3.767   6.681  0.1833 -0.3954  0.4941
    1PC      HA 2040   2.117   3.680   6.720 -0.6023  0.0205  0.3395
    1PC      HB 2041   2.272   3.727   6.662  1.0953  2.2447 -0.7965
    1PC     O31 2042   2.185   3.871   6.783 -0.2169  0.2104 -0.0053
    1PC     P31 2043   2.256   3.839   6.922  0.2737 -0.1948  0.3675
    1PC     O32 2044   2.405   3.821   6.874 -0.2701 -0.1393  0.0875
    1PC     C31 2045   2.480   3.930   6.816  0.1710  0.1946  1.2639
    1PC     H1A 2046   2.561   3.902   6.748 -0.8879  2.7805 -1.3050
    1PC     H1B 2047   2.413   3.974   6.741 -0.5998 -2.3617  0.3391
    1PC     C32 2048   2.526   4.033   6.916  0.2345 -0.2471  0.7142
    1PC     H2A 2049   2.584   4.102   6.855  0.4192 -0.0790  1.0746
    1PC     H2B 2050   2.440   4.086   6.958  1.1630  1.1608  0.9343
    1PC     N31 2051   2.617   3.985   7.023 -0.1256 -0.0008  0.2634
    1PC     C33 2052   2.744   3.916   6.972  0.7745 -0.1681 -0.0067
    1PC     H3A 2053   2.721   3.815   6.936 -2.0398  0.7863 -1.1866
    1PC     H3B 2054   2.792   3.974   6.894 -1.3133  0.0021 -1.2613
    1PC     H3C 2055   2.812   3.909   7.056  0.1822 -0.7689  0.4394
    1PC     C34 2056   2.653   4.104   7.108 -0.0097  0.0078 -0.3539
    1PC     H4A 2057   2.711   4.179   7.055  2.4070 -1.8075 -0.4352
    1PC     H4B 2058   2.563   4.154   7.143 -0.2218 -0.2196 -0.5631
    1PC     H4C 2059   2.714   4.068   7.191 -1.1043  0.5546  0.7191
    1PC     C35 2060   2.553   3.895   7.123  0.1579  0.0215 -0.7991
    1PC     H5A 2061   2.616   3.885   7.211  0.1988  2.2021 -0.5388
    1PC     H5B 2062   2.538   3.795   7.080 -0.3086 -1.1498  1.8867
    1PC     H5C 2063   2.455   3.935   7.150 -0.2690 -1.8576  0.6311
    1PC     O33 2064   2.251   3.957   7.009  0.1130 -0.3295  0.0151
    1PC     O34 2065   2.205   3.706   6.967  0.0098  0.1748 -0.4290
    1PC     O21 2066   2.083   3.707   6.464  0.3048 -0.5503  0.7121
    1PC     C21 2067   1.982   3.614   6.475 -0.3209 -0.5033 -0.3485
    1PC     O22 2068   1.888   3.628   6.555  0.4600  0.0669 -0.5514
    1OL     C12 2069   1.992   3.502   6.373  0.0226 -0.2421  0.4082
    1OL     H2R 2070   1.961   3.408   6.420  0.7659  0.5425  2.5301
    1OL     H2S 2071   2.098   3.488   6.350  0.2903  3.5892 -1.6098
    1OL     C13 2072   1.901   3.510   6.254  0.6026 -0.3568  0.4043
    1OL     H3R 2073   1.805   3.529   6.302  0.1303  0.6877 -0.8969
    1OL     H3S 2074   1.903   3.410   6.209 -1.0921 -0.3100  0.1623
    1OL     C14 2075   1.946   3.609   6.147 -0.6691 -0.8045  0.0877
    1OL     H4R 2076   2.045   3.589   6.106 -0.3170  0.8897  0.0242
    1OL     H4S 2077   1.964   3.700   6.206 -0.9144  0.0832 -1.1686
    1OL     C15 2078   1.840   3.623   6.032 -0.1776 -0.5753  0.2454
    1OL     H5R 2079   1.741   3.646   6.073  1.1037  1.8072  2.2872
    1OL     H5S 2080   1.827   3.535   5.969  1.2457 -0.3391 -0.4134
    1OL     C16 2081   1.871   3.738   5.939 -0.1397 -0.6987 -0.1441
    1OL     H6R 2082   1.879   3.831   5.996 -3.1191 -1.2322  1.3583
    1OL     H6S 2083   1.779   3.750   5.883 -1.7682 -1.9865  2.0624
    1OL     C17 2084   1.997   3.713   5.858  0.2907 -0.4854 -0.6212
    1OL     H7R 2085   2.080   3.690   5.925 -0.3321  0.2459  0.4247
    1OL     H7S 2086   1.979   3.627   5.792  0.6486 -0.7509 -0.3741
    1OL     C18 2087   2.039   3.840   5.784 -0.1908 -0.6172  0.6212
    1OL     H8R 2088   2.064   3.912   5.862  4.2138 -0.4887 -0.6518
    1OL     H8S 2089   1.960   3.882   5.721 -0.3714 -2.1362 -0.2097
    1OL     C19 2090   2.165   3.828   5.699 -0.4460  0.1530 -0.3726
    1OL     H9R 2091   2.263   3.850   5.741 -0.5254  1.2511 -0.7371
    1OL    C110 2092   2.175   3.765   5.580  0.6364 -0.0307  0.1147
    1OL    H10R 2093   2.278   3.761   5.544  0.6799  0.4087  0.1819
    1OL    C111 2094   2.059   3.703   5.504  0.3243 -0.5351 -0.0888
    1OL    H11R 2095   1.969   3.705   5.565  0.5609 -2.1211  0.3503
    1OL    H11S 2096   2.084   3.600   5.478  0.8083 -0.2959 -0.6081
    1OL    C112 2097   2.015   3.801   5.389 -0.0093 -0.6061 -0.7641
    1OL    H12R 2098   1.981   3.894   5.434 -0.4347 -1.2465  0.2742
    1OL    H12S 2099   1.924   3.767   5.338 -1.0372 -0.0107  0.6037
    1OL    C113 2100   2.123   3.818   5.287  0.0355 -0.1579  0.4666
    1OL    H13R 2101   2.144   3.715   5.256  0.6056  0.4311 -1.2191
    1OL    H13S 2102   2.213   3.864   5.328 -1.7036  1.2316  3.0417
    1OL    C114 2103   2.078   3.901   5.167  0.4844 -0.1820 -0.4221
    1OL    H14R 2104   2.076   4.007   5.193 -0.0244 -0.4127  0.5358
    1OL    H14S 2105   1.975   3.885   5.134  0.0557  0.9345  0.3083
    1OL    C115 2106   2.171   3.887   5.055  0.4260 -0.4549  0.5647
    1OL    H15R 2107   2.172   3.783   5.022  0.0271 -0.2462 -0.1463
    1OL    H15S 2108   2.273   3.900   5.091  0.0122  0.0084  1.6103
    1OL    C116 2109   2.150   3.977   4.931 -0.7066 -0.1564  0.1914
    1OL    H16R 2110   2.060   3.949   4.876  0.9043 -1.5329 -1.8836
    1OL    H16S 2111   2.228   3.947   4.861 -1.0936  0.9791 -0.7488
    1OL    C117 2112   2.159   4.125   4.958 -0.3957 -0.2777  0.1486
    1OL    H17R 2113   2.170   4.184   4.866  3.3660  0.0579  0.6330
    1OL    H17S 2114   2.069   4.163   5.007  1.3984  1.8748  2.0649
    1OL    C118 2115   2.273   4.163   5.056  0.3761 -0.0119  0.3927
    1OL    H18R 2116   2.366   4.114   5.026  0.0437 -0.1932 -0.3865
    1OL    H18S 2117   2.246   4.145   5.160 -2.5486  0.8953 -0.1077
    1OL    H18T 2118   2.295   4.270   5.048 -0.6999  0.1648 -0.3420
    1PA    C116 2119   3.774   4.505   5.266  0.1041 -0.0834  0.1868
    1PA    H16R 2120   3.854   4.565   5.310  1.0243 -0.8632 -0.3788
    1PA    H16S 2121   3.679   4.559   5.269  0.2033  0.0644  1.2157
    1PA    H16T 2122   3.816   4.469   5.172 -0.2207 -1.3097  0.4883
    1PA    C115 2123   3.764   4.376   5.356 -0.6440  0.1486 -0.2318
    1PA    H15R 2124   3.674   4.319   5.336  0.2204 -0.9315 -1.1543
    1PA    H15S 2125   3.854   4.317   5.339 -0.4989 -0.1969  1.5673
    1PA    C114 2126   3.772   4.420   5.504  0.3110  0.6386  0.3242
    1PA    H14R 2127   3.871   4.463   5.521  0.4290  0.4509  0.1175
    1PA    H14S 2128   3.690   4.486   5.531 -2.2200 -1.9654 -0.4391
    1PA    C113 2129   3.781   4.293   5.592  0.3142  0.0429  0.1780
    1PA    H13R 2130   3.681   4.252   5.606 -0.2156  1.7217  1.6968
    1PA    H13S 2131   3.848   4.221   5.545 -0.4426 -0.9977  0.6632
    1PA    C112 2132   3.847   4.339   5.726  0.0817 -0.0508  0.2544
    1PA    H12R 2133   3.954   4.354   5.715  0.2134 -0.1313  1.2747
    1PA    H12S 2134   3.812   4.436   5.762  0.4890  1.1982 -2.4607
    1PA    C111 2135   3.820   4.236   5.844  0.5325 -0.4286  0.1789
    1PA    H11R 2136   3.711   4.232   5.855  0.5766  0.5531  1.1477
    1PA    H11S 2137   3.862   4.136   5.829  1.6271  0.0360  0.0972
    1PA    C110 2138   3.869   4.277   5.982 -1.2051 -0.1574 -0.0671
    1PA    H10R 2139   3.970   4.309   5.956 -0.7597 -1.2788  0.2449
    1PA    H10S 2140   3.806   4.360   6.015  0.3052  0.3183  1.8248
    1PA     C19 2141   3.875   4.166   6.081 -0.2922 -0.4540 -0.4204
    1PA     H9R 2142   3.784   4.107   6.091  0.2101 -1.2447 -0.4163
    1PA     H9S 2143   3.947   4.095   6.041 -1.9861 -0.1732 -4.5127
    1PA     C18 2144   3.911   4.212   6.221  0.1892  0.1892 -0.3636
    1PA     H8R 2145   3.992   4.285   6.227  2.1503 -1.7203 -2.2307
    1PA     H8S 2146   3.821   4.260   6.261  0.2552  1.8220 -2.0755
    1PA     C17 2147   3.943   4.086   6.302  0.4621 -0.0989  0.5149
    1PA     H7R 2148   3.868   4.009   6.284  1.4762 -1.9159  3.3114
    1PA     H7S 2149   4.044   4.057   6.271  1.1234  1.2728  1.2712
    1PA     C16 2150   3.934   4.112   6.454  0.2921  0.0946 -0.5286
    1PA     H6R 2151   3.990   4.205   6.468 -0.0105  0.1332  0.5525
    1PA     H6S 2152   3.830   4.123   6.486  0.9640  1.3964  1.3995
    1PA     C15 2153   3.997   3.995   6.532 -0.3213 -0.0350  0.8720
    1PA     H5R 2154   3.949   3.902   6.501  2.1008 -1.5903  1.4748
    1PA     H5S 2155   4.102   3.988   6.505 -0.8388 -2.4685 -0.7768
    1PA     C14 2156   3.987   4.011   6.684 -0.3873 -0.3803  0.3783
    1PA     H4R 2157   3.881   4.000   6.709 -0.4123 -0.4969  0.2249
    1PA     H4S 2158   4.026   3.925   6.738  0.7528 -1.1136 -1.5248
    1PA     C13 2159   4.048   4.139   6.739  0.4805  0.5347 -0.3568
    1PA     H3R 2160   4.152   4.152   6.710  1.0988  0.5837  1.7304
    1PA     H3S 2161   3.993   4.230   6.716  0.2353  0.2978 -0.7139
    1PA     C12 2162   4.074   4.147   6.889  0.1447  0.6312 -0.8441
    1PA     H2R 2163   3.977   4.130   6.935  1.0613 -1.9084  0.3762
    1PA     H2S 2164   4.137   4.064   6.922 -1.0872  0.6783  1.8928
    1PC     C11 2165   4.129   4.272   6.944 -0.4407  0.0496  0.3387
    1PC     O12 2166   4.241   4.285   6.992 -0.2372 -0.1123 -0.1220
    1PC     O11 2167   4.033   4.365   6.938 -0.6862  0.5573 -0.1548
    1PC      C1 2168   4.059   4.477   7.020 -0.0347 -0.1727  0.5646
    1PC      HR 2169   3.969   4.539   7.012 -0.4357 -0.9432 -1.4471
    1PC      HS 2170   4.075   4.456   7.126  0.8334  0.6753  0.6241
    1PC      C2 2171   4.163   4.577   6.959 -0.1072 -0.2312 -0.3949
    1PC      HX 2172   4.268   4.546   6.952 -0.4620 -1.0786 -3.2888
    1PC      C3 2173   4.160   4.713   7.034  0.5836 -0.1149 -0.5370
    1PC      HA 2174   4.239   4.774   6.990 -0.5185  1.1465 -0.8232
    1PC      HB 2175   4.064   4.763   7.023 -0.1000 -1.3874 -0.6454
    1PC     O31 2176   4.191   4.702   7.180  0.2706  0.0324  0.5933
    1PC     P31 2177   4.222   4.823   7.273  0.2130 -0.0661 -0.0030
    1PC     O32 2178   4.377   4.812   7.309 -0.1314 -0.2307  0.1658
    1PC     C31 2179   4.424   4.707   7.398  0.0493  1.0411  0.1573
    1PC     H1A 2180   4.375   4.615   7.366  3.3552 -0.9283  0.2869
    1PC     H1B 2181   4.531   4.692   7.381 -0.1638 -3.1279  1.3849
    1PC     C32 2182   4.411   4.747   7.544  0.3798 -0.1698  0.2571
    1PC     H2A 2183   4.484   4.825   7.565  0.8128 -0.0744 -1.4965
    1PC     H2B 2184   4.312   4.786   7.568  0.9897  2.1530 -0.7590
    1PC     N31 2185   4.441   4.624   7.639  0.2704  0.0431  0.5504
    1PC     C33 2186   4.518   4.524   7.569 -0.7165 -0.3291 -0.3367
    1PC     H3A 2187   4.455   4.469   7.499 -1.3469 -0.6362  0.4544
    1PC     H3B 2188   4.598   4.579   7.519  0.5314 -0.2091  1.6818
    1PC     H3C 2189   4.553   4.450   7.641  0.5937  0.8794  0.3194
    1PC     C34 2190   4.530   4.679   7.748 -0.4714 -0.5674 -0.1846
    1PC     H4A 2191   4.549   4.594   7.813 -1.6750 -0.4462  0.3381
    1PC     H4B 2192   4.622   4.722   7.707 -0.2174  0.0857  1.0360
    1PC     H4C 2193   4.478   4.748   7.814  0.8991 -0.2130  0.5590
    1PC     C35 2194   4.328   4.556   7.706 -0.5920 -0.4310 -0.7467
    1PC     H5A 2195   4.364   4.480   7.776  2.2453 -0.2976 -1.9426
    1PC     H5B 2196   4.267   4.508   7.629  0.0580  1.2561 -2.3787
    1PC     H5C 2197   4.267   4.630   7.758  0.3120  0.2570 -0.6476
    1PC     O33 2198   4.214   4.944   7.191 -0.2905  0.5524  0.1739
    1PC     O34 2199   4.141   4.813   7.392  0.5416  0.0695 -0.1354
    1PC     O21 2200   4.112   4.595   6.819  0.0550  0.1338  0.0335
    1PC     C21 2201   4.208   4.608   6.724  0.0080 -0.0020 -0.1358
    1PC     O22 2202   4.331   4.617   6.744  0.2664  0.2693 -0.3717
    1OL     C12 2203   4.143   4.589   6.587  0.6363  0.0541 -0.5278
    1OL     H2R 2204   4.072   4.667   6.559 -1.2535 -1.3453  0.1341
    1OL     H2S 2205   4.073   4.506   6.604 -0.7821  0.9336 -1.8214
    1OL     C13 2206   4.236   4.548   6.476  0.1141 -0.1169  0.2823
    1OL     H3R 2207   4.301   4.633   6.454 -1.9767  1.3260 -0.6218
    1OL     H3S 2208   4.163   4.553   6.396  0.5053 -0.2874 -0.0911
    1OL     C14 2209   4.311   4.418   6.485  0.5504  1.2450 -0.1958
    1OL     H4R 2210   4.250   4.331   6.508 -0.8774  1.4400 -2.8959
    1OL     H4S 2211   4.383   4.430   6.566 -0.7014  1.4531  0.9289
    1OL     C15 2212   4.385   4.394   6.348 -0.0917 -0.9163  0.2527
    1OL     H5R 2213   4.460   4.321   6.381 -1.5562 -2.0113  1.2926
    1OL     H5S 2214   4.431   4.488   6.317 -1.2138  0.3786  2.2841
    1OL     C16 2215   4.297   4.335   6.239  0.1215 -0.1848 -0.5814
    1OL     H6R 2216   4.220   4.412   6.224  0.2000  0.8898  3.3388
    1OL     H6S 2217   4.245   4.248   6.279  0.3943 -0.5007 -0.9088
    1OL     C17 2218   4.375   4.310   6.106 -0.4946 -0.6187  0.4743
    1OL     H7R 2219   4.451   4.238   6.136  0.2112 -0.3777 -0.7178
    1OL     H7S 2220   4.423   4.403   6.077  2.2139 -1.8477  0.7262
    1OL     C18 2221   4.282   4.253   5.990 -0.2996 -0.2195 -0.2129
    1OL     H8R 2222   4.215   4.330   5.953 -0.9429 -0.4875  0.3740
    1OL     H8S 2223   4.228   4.171   6.038  2.5119 -2.8097 -1.1420
    1OL     C19 2224   4.371   4.194   5.878  0.3189  0.0140  0.4101
    1OL     H9R 2225   4.446   4.125   5.917  0.1367 -0.5399 -0.2069
    1OL    C110 2226   4.369   4.210   5.750  0.3083 -0.0770  1.0641
    1OL    H10R 2227   4.442   4.168   5.681  0.5045  1.2892  0.3898
    1OL    C111 2228   4.252   4.282   5.683 -0.1721  0.3974  0.0080
    1OL    H11R 2229   4.246   4.386   5.715 -1.2375 -0.1975  1.8796
    1OL    H11S 2230   4.155   4.236   5.703 -1.3445  2.5005 -0.4696
    1OL    C112 2231   4.268   4.271   5.531  0.0627 -0.0581 -0.0189
    1OL    H12R 2232   4.261   4.164   5.510  0.3935 -0.1386  0.2758
    1OL    H12S 2233   4.362   4.314   5.496 -0.2592 -0.0157 -0.8531
    1OL    C113 2234   4.145   4.332   5.455  0.2173  0.7993 -0.6194
    1OL    H13R 2235   4.145   4.440   5.472 -2.3811  0.7792 -0.1900
    1OL    H13S 2236   4.048   4.296   5.488  1.1882 -1.9351 -0.5290
    1OL    C114 2237   4.157   4.285   5.306  0.9262 -0.5172 -0.3892
    1OL    H14R 2238   4.089   4.337   5.239 -0.4244  0.0635  1.3344
    1OL    H14S 2239   4.124   4.182   5.296 -0.1478 -0.2526  0.2475
    1OL    C115 2240   4.301   4.307   5.249 -0.2130  0.0501  0.3787
    1OL    H15R 2241   4.364   4.228   5.292  1.8719  1.4683  0.0442
    1OL    H15S 2242   4.328   4.409   5.278 -0.8102  0.0508  0.9590
    1OL    C116 2243   4.315   4.291   5.099  0.2226  0.5161 -0.3903
    1OL    H16R 2244   4.300   4.392   5.059 -1.8168  1.7430  3.0302
    1OL    H16S 2245   4.233   4.225   5.068 -0.6808  1.4063  0.0403
    1OL    C117 2246   4.444   4.224   5.053  0.3703 -0.0145  0.0357
    1OL    H17R 2247   4.458   4.132   5.112  2.1982 -0.7037 -1.3955
    1OL    H17S 2248   4.521   4.295   5.083 -0.9762  0.8278  1.6703
    1OL    C118 2249   4.461   4.190   4.907  0.2773 -0.0509 -0.3185
    1OL    H18R 2250   4.554   4.134   4.896  0.5101  0.3593 -0.4615
    1OL    H18S 2251   4.465   4.284   4.851  0.6484 -0.7942 -1.5838
    1OL    H18T 2252   4.374   4.135   4.870 -1.2207  2.9256 -1.6462
    1PA    C116 2253   4.830   2.387   5.770 -0.5884  0.1390 -0.0019
    1PA    H16R 2254   4.827   2.461   5.690 -0.4540 -0.6104 -0.7119
    1PA    H16S 2255   4.913   2.329   5.728  0.6266  3.7457 -3.1577
    1PA    H16T 2256   4.858   2.429   5.867  1.2284 -1.2157  0.1057
    1PA    C115 2257   4.705   2.308   5.795 -0.0963 -0.0336  0.1451
    1PA    H15R 2258   4.655   2.304   5.698  1.1068  1.4751 -0.5909
    1PA    H15S 2259   4.740   2.207   5.819  3.4646  0.8288 -0.7576
    1PA    C114 2260   4.612   2.371   5.899 -0.3070 -0.0024 -0.7956
    1PA    H14R 2261   4.514   2.322   5.889  0.2261 -1.1488 -0.6019
    1PA    H14S 2262   4.647   2.350   6.000 -0.6305 -0.7316 -0.8230
    1PA    C113 2263   4.596   2.528   5.910 -0.0452  0.1072 -0.4348
    1PA    H13R 2264   4.533   2.552   5.996  0.1041  1.8819 -0.7713
    1PA    H13S 2265   4.690   2.579   5.935 -0.2953  0.3950 -0.0740
    1PA    C112 2266   4.538   2.578   5.780 -0.0936  0.6304 -0.5052
    1PA    H12R 2267   4.609   2.549   5.702  0.9372 -0.2748  0.7224
    1PA    H12S 2268   4.441   2.529   5.764 -0.5304  0.9362  1.0847
    1PA    C111 2269   4.524   2.728   5.773  0.0561  0.2198  0.2382
    1PA    H11R 2270   4.480   2.752   5.677  1.2475  0.4080 -0.2752
    1PA    H11S 2271   4.451   2.750   5.851  0.6030  1.3033  0.4631
    1PA    C110 2272   4.652   2.807   5.803  0.6167  0.3962  1.3190
    1PA    H10R 2273   4.699   2.789   5.900 -0.4279 -0.1491  1.7457
    1PA    H10S 2274   4.719   2.781   5.721 -1.6924 -1.1321 -0.1806
    1PA     C19 2275   4.629   2.955   5.790  0.1729  0.1099 -0.3418
    1PA     H9R 2276   4.597   2.966   5.686  1.0306 -0.2288 -0.6557
    1PA     H9S 2277   4.565   2.992   5.870  2.2871  3.2834  0.0904
    1PA     C18 2278   4.766   3.025   5.801  0.0646 -0.6512 -0.0165
    1PA     H8R 2279   4.812   3.019   5.899  0.8512 -0.4024 -0.3618
    1PA     H8S 2280   4.835   2.975   5.733  0.2312  0.7645 -0.9331
    1PA     C17 2281   4.754   3.170   5.752 -0.1225 -0.2970 -0.7969
    1PA     H7R 2282   4.855   3.211   5.742  0.7788 -2.4602 -1.3251
    1PA     H7S 2283   4.704   3.168   5.656 -0.3582  1.4150 -0.7409
    1PA     C16 2284   4.659   3.251   5.839 -0.2996  0.2044  0.0094
    1PA     H6R 2285   4.658   3.353   5.801  1.0913  0.2976  0.1616
    1PA     H6S 2286   4.556   3.217   5.826 -0.8277  1.9776 -0.7149
    1PA     C15 2287   4.696   3.259   5.988 -0.4028  0.1457 -0.1477
    1PA     H5R 2288   4.705   3.155   6.020  0.4420  0.1890 -0.2277
    1PA     H5S 2289   4.793   3.306   6.003 -0.0902 -0.1696 -1.1241
    1PA     C14 2290   4.595   3.342   6.064  0.4928  0.4950  0.4192
    1PA     H4R 2291   4.578   3.436   6.011 -0.0138 -0.6505 -1.5581
    1PA     H4S 2292   4.505   3.280   6.064  0.4669  0.5256  1.1257
    1PA     C13 2293   4.635   3.377   6.208 -0.6424 -0.4016 -0.6094
    1PA     H3R 2294   4.680   3.297   6.267 -2.9817  0.0775  2.1167
    1PA     H3S 2295   4.718   3.446   6.196  0.3559 -0.9397  2.3524
    1PA     C12 2296   4.517   3.437   6.292  0.3956 -0.2930 -0.0160
    1PA     H2R 2297   4.481   3.524   6.237 -1.4768  1.6566  3.8631
    1PA     H2S 2298   4.433   3.366   6.293 -0.2644  0.2149 -4.2973
    1PC     C11 2299   4.559   3.479   6.429  0.3628 -0.5315  0.4010
    1PC     O12 2300   4.618   3.582   6.446 -0.1898 -0.2446 -0.0746
    1PC     O11 2301   4.501   3.408   6.532  0.4756  0.1614 -1.0330
    1PC      C1 2302   4.557   3.415   6.666 -0.5103 -0.1040 -0.2751
    1PC      HR 2303   4.600   3.515   6.681  0.7292 -0.2801 -2.3432
    1PC      HS 2304   4.478   3.400   6.740 -1.2136  1.1220 -0.7448
    1PC      C2 2305   4.652   3.296   6.681 -0.0848  0.5642  0.1584
    1PC      HX 2306   4.601   3.201   6.659  2.6264 -1.1300  0.7365
    1PC      C3 2307   4.720   3.276   6.824  0.6660  0.2991 -0.2326
    1PC      HA 2308   4.773   3.181   6.833 -2.5838 -1.4621  2.8045
    1PC      HB 2309   4.800   3.351   6.831  0.2940  0.6126  1.0960
    1PC     O31 2310   4.630   3.299   6.936 -0.3693  0.4102  0.1435
    1PC     P31 2311   4.691   3.315   7.081  0.2368 -0.2516 -0.2809
    1PC     O32 2312   4.726   3.168   7.127 -0.0325  0.6198  0.3235
    1PC     C31 2313   4.620   3.091   7.186 -1.2579  0.1730 -0.1942
    1PC     H1A 2314   4.587   3.139   7.278  2.4496 -0.5745  1.7153
    1PC     H1B 2315   4.536   3.075   7.117 -2.4182 -0.9402  1.3943
    1PC     C32 2316   4.681   2.946   7.214  0.2645 -0.9207  0.0148
    1PC     H2A 2317   4.598   2.877   7.233  0.2660 -0.8467  0.3005
    1PC     H2B 2318   4.737   2.912   7.127  0.7741  1.6659 -0.7645
    1PC     N31 2319   4.784   2.932   7.329 -0.6481 -0.0066  0.8679
    1PC     C33 2320   4.831   2.790   7.331 -0.0460 -0.3210  0.5489
    1PC     H3A 2321   4.743   2.732   7.302 -1.6919  2.3371 -0.1044
    1PC     H3B 2322   4.906   2.782   7.253 -2.8901 -0.3956 -2.3598
    1PC     H3C 2323   4.872   2.764   7.429 -0.3352  1.4578  1.1763
    1PC     C34 2324   4.899   3.016   7.299  0.0183 -0.5795 -0.4108
    1PC     H4A 2325   4.851   3.111   7.275 -0.6507 -0.6511  0.5641
    1PC     H4B 2326   4.958   3.020   7.391 -0.4934 -0.4037 -0.0814
    1PC     H4C 2327   4.960   2.984   7.215 -2.2689 -0.2852 -2.2823
    1PC     C35 2328   4.719   2.965   7.455 -0.1009 -0.3285  0.7451
    1PC     H5A 2329   4.641   2.891   7.469 -0.0902 -0.6246 -0.6272
    1PC     H5B 2330   4.688   3.068   7.439  3.1585  0.4876 -1.3670
    1PC     H5C 2331   4.798   2.969   7.531 -0.7903  1.0124  1.4208
    1PC     O33 2332   4.820   3.384   7.067  0.8437  0.0958  0.2134
    1PC     O34 2333   4.591   3.374   7.174  0.4358  0.6089  0.1859
    1PC     O21 2334   4.757   3.309   6.585 -0.0837 -0.4048  0.2713
    1PC     C21 2335   4.831   3.209   6.534  1.0659  0.6266 -0.3354
    1PC     O22 2336   4.790   3.097   6.550 -0.0334 -0.5250 -0.1582
    1OL     C12 2337   4.967   3.253   6.474 -0.4769  0.1658  0.2006
    1OL     H2R 2338   5.046   3.204   6.531 -0.3236 -1.5589 -1.3877
    1OL     H2S 2339   4.975   3.360   6.495  0.0186  0.3046 -0.6628
    1OL     C13 2340   4.984   3.214   6.327 -0.0894  0.1017 -0.5153
    1OL     H3R 2341   5.073   3.262   6.286  1.8669 -0.5482  2.6106
    1OL     H3S 2342   4.889   3.235   6.278 -1.9022 -2.9833  1.4158
    1OL     C14 2343   5.007   3.066   6.312 -0.1761 -0.4870 -0.2063
    1OL     H4R 2344   4.919   3.008   6.342 -0.6785 -0.3744 -1.4326
    1OL     H4S 2345   5.093   3.029   6.368  0.2266  1.4996  0.5485
    1OL     C15 2346   5.025   3.044   6.163  0.4988  0.7339  0.6062
    1OL     H5R 2347   5.106   3.108   6.126 -0.7779  0.6651 -2.6054
    1OL     H5S 2348   4.933   3.063   6.107  1.0809  0.3107 -0.5369
    1OL     C16 2349   5.079   2.902   6.136 -0.2610 -0.0169 -0.2243
    1OL     H6R 2350   5.094   2.842   6.226  1.3197 -1.1398 -1.1811
    1OL     H6S 2351   5.180   2.898   6.094  1.0820 -1.8707  2.8438
    1OL     C17 2352   4.987   2.825   6.037 -0.3799  0.8475  1.0080
    1OL     H7R 2353   4.986   2.880   5.942 -1.7874 -2.2374 -0.9351
    1OL     H7S 2354   4.889   2.818   6.084 -1.1766  1.0431 -0.5437
    1OL     C18 2355   5.038   2.684   5.997  0.4127  0.4216  0.1900
    1OL     H8R 2356   4.958   2.653   5.929 -0.3294  0.5990  0.9637
    1OL     H8S 2357   5.038   2.617   6.083 -1.6957 -2.1702 -1.6416
    1OL     C19 2358   5.168   2.687   5.935 -0.8736 -0.8087  0.6980
    1OL     H9R 2359   5.255   2.685   6.000  1.0265 -1.8380 -1.7013
    1OL    C110 2360   5.197   2.675   5.803  0.2360  0.5473 -0.3408
    1OL    H10R 2361   5.298   2.655   5.771  0.6134  0.1692  1.0317
    1OL    C111 2362   5.086   2.658   5.698 -0.0450 -0.2222  0.0505
    1OL    H11R 2363   4.987   2.625   5.730  0.5013 -2.2730 -0.1916
    1OL    H11S 2364   5.113   2.575   5.633  0.6338 -0.8124  1.0563
    1OL    C112 2365   5.059   2.784   5.618  0.8422  0.3939  0.5779
    1OL    H12R 2366   5.148   2.821   5.566  0.1974  1.4229  0.1772
    1OL    H12S 2367   5.032   2.861   5.690  0.8664  0.4209  0.5582
    1OL    C113 2368   4.939   2.760   5.520 -0.5578 -0.0296 -0.5830
    1OL    H13R 2369   4.861   2.750   5.596  1.4146 -0.4387  1.5050
    1OL    H13S 2370   4.941   2.672   5.456 -0.0822 -0.8522  0.5230
    1OL    C114 2371   4.917   2.883   5.429  0.1627 -0.1310  0.4216
    1OL    H14R 2372   4.983   2.868   5.343  2.5315 -0.8686  2.2308
    1OL    H14S 2373   4.945   2.974   5.482 -2.4475  0.5997  0.6852
    1OL    C115 2374   4.770   2.894   5.381  0.2648 -0.0689  0.0839
    1OL    H15R 2375   4.700   2.892   5.465  1.3318 -0.2257  0.9782
    1OL    H15S 2376   4.748   2.813   5.312 -1.9502  1.1859 -0.8035
    1OL    C116 2377   4.753   3.024   5.303  0.1871  0.8346 -0.2577
    1OL    H16R 2378   4.810   3.029   5.210  2.0149 -0.4506  0.7302
    1OL    H16S 2379   4.786   3.106   5.366  0.6343 -0.9713  1.9972
    1OL    C117 2380   4.600   3.032   5.287  0.9815 -0.1680 -0.1236
    1OL    H17R 2381   4.552   3.034   5.385 -2.4657 -2.7016 -1.5631
    1OL    H17S 2382   4.562   2.946   5.232 -2.4598  2.4852 -2.3840
    1OL    C118 2383   4.560   3.155   5.197 -0.0002 -0.5555  0.6936
    1OL    H18R 2384   4.461   3.143   5.151 -0.0986 -0.6527  0.9265
    1OL    H18S 2385   4.634   3.161   5.117 -1.1905 -1.6564 -0.5530
    1OL    H18T 2386   4.554   3.246   5.256  1.2429 -1.2767  1.9999
    1PA    C116 2387   1.629   3.245   5.559  0.1310  0.2849 -0.5769
    1PA    H16R 2388   1.617   3.167   5.484  0.7779 -1.6884  1.2839
    1PA    H16S 2389   1.530   3.292   5.567  0.5371  1.2939 -1.2684
    1PA    H16T 2390   1.643   3.207   5.660 -2.9617  0.0400 -0.1390
    1PA    C115 2391   1.736   3.345   5.516  0.0234  0.4606  0.2338
    1PA    H15R 2392   1.830   3.294   5.495  1.6148  2.7342  1.3205
    1PA    H15S 2393   1.704   3.391   5.422 -0.7909 -1.8578 -0.6933
    1PA    C114 2394   1.778   3.446   5.627 -0.3112 -0.0093 -0.7305
    1PA    H14R 2395   1.783   3.402   5.727 -0.0728  1.5771 -0.0191
    1PA    H14S 2396   1.882   3.479   5.622  0.5299 -0.5510  5.5392
    1PA    C113 2397   1.689   3.569   5.642 -0.3775  0.2146  0.8769
    1PA    H13R 2398   1.589   3.542   5.676  0.8908 -1.5303  3.5530
    1PA    H13S 2399   1.733   3.633   5.719  1.5453  0.6852 -0.5349
    1PA    C112 2400   1.680   3.654   5.518 -0.2306 -0.1454 -0.0997
    1PA    H12R 2401   1.780   3.683   5.488  0.8662 -1.2072  2.2218
    1PA    H12S 2402   1.626   3.600   5.440 -1.6234  2.2766 -0.9345
    1PA    C111 2403   1.592   3.775   5.542  0.1387 -0.0678  0.5141
    1PA    H11R 2404   1.568   3.810   5.441 -1.1863 -1.3879  0.3251
    1PA    H11S 2405   1.493   3.741   5.572 -1.1517  1.6261 -1.5257
    1PA    C110 2406   1.647   3.875   5.644  0.2739 -0.4851 -0.6747
    1PA    H10R 2407   1.635   3.823   5.739  3.8678  2.9318  1.9781
    1PA    H10S 2408   1.755   3.888   5.629  0.6318 -2.9034 -0.7055
    1PA     C19 2409   1.576   4.014   5.628 -1.0738  0.0549  0.5963
    1PA     H9R 2410   1.601   4.060   5.532 -1.2823 -1.1589 -0.0594
    1PA     H9S 2411   1.471   3.984   5.627 -0.6101 -1.6936  0.6245
    1PA     C18 2412   1.609   4.112   5.737 -0.6965  0.1929  0.1649
    1PA     H8R 2413   1.712   4.135   5.709 -1.3465  0.3100 -2.4293
    1PA     H8S 2414   1.549   4.203   5.734  1.7473  1.8783 -1.9675
    1PA     C17 2415   1.606   4.074   5.887 -0.6307  0.4792  0.2026
    1PA     H7R 2416   1.515   4.030   5.928  1.2146 -2.3449  1.5205
    1PA     H7S 2417   1.688   4.004   5.898 -0.7697  0.1704 -0.6336
    1PA     C16 2418   1.631   4.193   5.987 -0.1113  0.3298  0.1502
    1PA     H6R 2419   1.727   4.237   5.961 -0.5750 -0.0327 -2.4808
    1PA     H6S 2420   1.563   4.274   5.960 -0.8882 -0.2926  0.1858
    1PA     C15 2421   1.630   4.163   6.141 -0.1223 -0.6561 -0.3888
    1PA     H5R 2422   1.650   4.255   6.196  1.7993 -1.3313  0.1202
    1PA     H5S 2423   1.526   4.141   6.167 -0.9676  0.9767 -2.1340
    1PA     C14 2424   1.720   4.044   6.192  0.3368 -0.0080  0.0547
    1PA     H4R 2425   1.701   3.955   6.131 -0.0132  0.4298 -0.4923
    1PA     H4S 2426   1.824   4.072   6.180 -0.1911  1.9672 -0.2290
    1PA     C13 2427   1.683   4.010   6.333 -0.2407 -0.2972  0.0389
    1PA     H3R 2428   1.725   4.093   6.389  1.5475 -0.7823 -0.5066
    1PA     H3S 2429   1.576   4.027   6.348 -0.3162 -0.9161  0.2304
    1PA     C12 2430   1.745   3.883   6.390  0.3593  0.5173 -0.8532
    1PA     H2R 2431   1.742   3.798   6.321  2.4767  1.1914 -1.8578
    1PA     H2S 2432   1.849   3.910   6.409  0.1627  2.0134 -1.7016
    1PC     C11 2433   1.679   3.847   6.524  0.1588 -0.1103 -0.4733
    1PC     O12 2434   1.703   3.907   6.629 -0.4824  0.1767 -0.2556
    1PC     O11 2435   1.586   3.744   6.517 -0.6082  0.7045 -0.3320
    1PC      C1 2436   1.535   3.695   6.642  0.5003 -0.4065  0.1411
    1PC      HR 2437   1.618   3.668   6.707  1.0099  1.4348  0.3273
    1PC      HS 2438   1.475   3.774   6.687  0.3910 -0.2030 -0.3550
    1PC      C2 2439   1.441   3.573   6.630 -0.3379 -0.1107 -1.4588
    1PC      HX 2440   1.359   3.593   6.560 -1.9045  1.8961  0.8165
    1PC      C3 2441   1.376   3.544   6.767 -0.1977  0.4589  0.4768
    1PC      HA 2442   1.301   3.623   6.782  0.9470  1.9102 -1.0451
    1PC      HB 2443   1.329   3.446   6.762  1.4756 -0.3772  0.4701
    1PC     O31 2444   1.478   3.548   6.872 -0.6138  0.6798 -0.3951
    1PC     P31 2445   1.452   3.484   7.010  0.2710  0.0629  0.2758
    1PC     O32 2446   1.469   3.324   6.995 -0.4233 -0.1379 -0.2463
    1PC     C31 2447   1.602   3.260   7.007 -0.6856 -0.6340  0.0764
    1PC     H1A 2448   1.658   3.303   7.090  0.9042 -2.0205 -0.2311
    1PC     H1B 2449   1.592   3.151   7.014 -1.5149 -0.6291 -0.7265
    1PC     C32 2450   1.680   3.285   6.875 -0.3226  0.4985  0.1943
    1PC     H2A 2451   1.627   3.245   6.788  1.9238 -0.4626 -0.8124
    1PC     H2B 2452   1.702   3.390   6.855 -0.1335  0.2995 -0.6943
    1PC     N31 2453   1.822   3.234   6.858 -0.3872  0.2853  0.4758
    1PC     C33 2454   1.809   3.084   6.846  0.4969  0.3907  0.0495
    1PC     H3A 2455   1.903   3.036   6.818 -0.7089 -2.1579  0.1071
    1PC     H3B 2456   1.766   3.052   6.941  0.5979 -0.1944 -0.0972
    1PC     H3C 2457   1.739   3.072   6.763  0.0060 -0.2617  0.5523
    1PC     C34 2458   1.880   3.297   6.739 -0.2754 -0.0199  0.5325
    1PC     H4A 2459   1.963   3.234   6.708  1.1362  1.3338  1.4189
    1PC     H4B 2460   1.800   3.293   6.664 -1.0399 -0.3487  1.3420
    1PC     H4C 2461   1.917   3.395   6.769  1.2930 -1.3131  3.2471
    1PC     C35 2462   1.902   3.273   6.979 -0.2780  0.8229  0.2117
    1PC     H5A 2463   1.894   3.381   6.992 -1.7670  0.5763  1.5478
    1PC     H5B 2464   2.003   3.243   6.949 -0.6189 -0.3038  0.1524
    1PC     H5C 2465   1.875   3.228   7.074  1.3217 -2.3602 -0.6977
    1PC     O33 2466   1.553   3.533   7.107  0.0927 -0.5224 -0.2785
    1PC     O34 2467   1.308   3.505   7.043 -0.3523  0.1528  0.6569
    1PC     O21 2468   1.522   3.457   6.592  0.0273  0.1893 -0.0494
    1PC     C21 2469   1.459   3.358   6.528 -0.2040  0.9879  0.4837
    1PC     O22 2470   1.344   3.349   6.493  0.2967 -0.5105  0.1613
    1OL     C12 2471   1.567   3.251   6.485  0.4254  0.5055 -0.3537
    1OL     H2R 2472   1.517   3.155   6.481  0.6472  0.4220 -1.7176
    1OL     H2S 2473   1.640   3.264   6.565 -0.8861  0.8878  0.8164
    1OL     C13 2474   1.629   3.282   6.342  0.2059  0.6756 -0.2430
    1OL     H3R 2475   1.720   3.224   6.325  0.8356  2.4763 -3.9130
    1OL     H3S 2476   1.658   3.387   6.348 -1.1732  1.0402  0.6896
    1OL     C14 2477   1.527   3.287   6.228  0.1634 -0.4164  0.3440
    1OL     H4R 2478   1.466   3.377   6.231 -0.5304 -0.8763  0.1948
    1OL     H4S 2479   1.461   3.200   6.235 -0.6106  0.1846  0.6586
    1OL     C15 2480   1.601   3.266   6.095  0.3518 -0.5776 -0.3948
    1OL     H5R 2481   1.694   3.211   6.108  1.4284  1.5011  1.4545
    1OL     H5S 2482   1.643   3.366   6.085 -1.6999  0.5736  1.5388
    1OL     C16 2483   1.523   3.206   5.973 -0.1279 -0.2880  0.3381
    1OL     H6R 2484   1.520   3.098   5.989  1.7451 -0.2223  1.4169
    1OL     H6S 2485   1.570   3.228   5.877  0.9260  1.5562  1.2235
    1OL     C17 2486   1.379   3.256   5.971  0.3655 -0.1637 -0.2332
    1OL     H7R 2487   1.381   3.363   5.993 -1.6604 -0.3792  1.2470
    1OL     H7S 2488   1.334   3.201   6.053  1.8559 -0.7772  0.1986
    1OL     C18 2489   1.299   3.228   5.842 -0.0420 -0.0469 -0.2634
    1OL     H8R 2490   1.303   3.121   5.822  1.0346 -0.3609  1.4049
    1OL     H8S 2491   1.345   3.290   5.764  3.9100  0.5661  2.2873
    1OL     C19 2492   1.156   3.258   5.867  0.4558 -0.1846 -0.1570
    1OL     H9R 2493   1.143   3.286   5.971  0.4155 -1.5344  0.2162
    1OL    C110 2494   1.060   3.277   5.777 -0.8107 -0.8880 -0.5638
    1OL    H10R 2495   0.961   3.314   5.801  0.3185  2.7448 -0.9210
    1OL    C111 2496   1.078   3.262   5.623 -0.1445  0.1043 -0.7713
    1OL    H11R 2497   0.989   3.217   5.577 -1.0458  1.3458 -0.3176
    1OL    H11S 2498   1.168   3.204   5.603 -0.1218 -0.0129 -0.3498
    1OL    C112 2499   1.092   3.406   5.568  1.1336 -0.1480 -0.2780
    1OL    H12R 2500   1.174   3.463   5.612  2.2246 -0.5520 -1.7118
    1OL    H12S 2501   1.002   3.451   5.611  1.3011 -1.1094  1.1509
    1OL    C113 2502   1.088   3.417   5.418  0.0436  0.4289 -0.8025
    1OL    H13R 2503   1.075   3.519   5.380 -0.7402  0.7676  0.3221
    1OL    H13S 2504   0.996   3.369   5.385 -0.3528  0.9089 -0.4235
    1OL    C114 2505   1.226   3.350   5.374 -0.2616  0.0695 -0.0903
    1OL    H14R 2506   1.225   3.241   5.384 -0.1152 -0.0137 -0.9250
    1OL    H14S 2507   1.307   3.383   5.439  0.1042 -1.4029  0.2542
    1OL    C115 2508   1.284   3.383   5.238 -0.1431 -0.3794  0.3774
    1OL    H15R 2509   1.287   3.492   5.231 -1.2231 -0.3188  0.6722
    1OL    H15S 2510   1.219   3.365   5.152  1.4303  0.9268 -1.1537
    1OL    C116 2511   1.421   3.316   5.218  0.3414 -0.2574  0.1921
    1OL    H16R 2512   1.415   3.207   5.225 -0.9265 -0.0903  2.4621
    1OL    H16S 2513   1.489   3.342   5.299  0.1467 -0.9122  0.5752
    1OL    C117 2514   1.494   3.356   5.085  0.3477 -0.1050 -0.0507
    1OL    H17R 2515   1.590   3.303   5.083  0.9159  0.8875 -0.0594
    1OL    H17S 2516   1.520   3.461   5.069  1.6224 -0.8124 -3.3721
    1OL    C118 2517   1.419   3.311   4.969  0.1944  0.7569  0.0465
    1OL    H18R 2518   1.327   3.369   4.970 -0.3641 -0.1241  1.0130
    1OL    H18S 2519   1.402   3.204   4.985  0.6609  0.6536 -0.1107
    1OL    H18T 2520   1.469   3.330   4.873 -0.5438 -1.3882 -0.8274
    1PA    C116 2521   1.592   2.084   5.252  0.1727  0.0441 -0.2171
    1PA    H16R 2522   1.580   2.101   5.144 -0.2164 -0.1279 -0.2034
    1PA    H16S 2523   1.687   2.131   5.279  0.3721  0.0814 -0.9581
    1PA    H16T 2524   1.518   2.140   5.310 -1.3704 -0.8463 -1.2478
    1PA    C115 2525   1.598   1.937   5.294 -0.3289 -0.0702 -0.2292
    1PA    H15R 2526   1.632   1.882   5.206  1.8675  2.7913 -1.3777
    1PA    H15S 2527   1.669   1.929   5.377 -1.3509  1.1061  0.7921
    1PA    C114 2528   1.456   1.895   5.328 -0.1027  0.1735 -0.2234
    1PA    H14R 2529   1.379   1.959   5.283 -0.8919 -1.0673 -0.6849
    1PA    H14S 2530   1.446   1.797   5.282  0.1996  0.4851 -0.9814
    1PA    C113 2531   1.432   1.863   5.479  0.3878  0.4103 -0.5140
    1PA    H13R 2532   1.344   1.799   5.476  0.2766  0.5027  0.3574
    1PA    H13S 2533   1.515   1.807   5.522 -1.0580  0.8742  3.3385
    1PA    C112 2534   1.409   1.990   5.572 -0.3821  0.0869 -0.2989
    1PA    H12R 2535   1.344   2.063   5.523 -0.5743  0.5606  0.6358
    1PA    H12S 2536   1.347   1.968   5.659 -0.3478 -0.5041 -0.4200
    1PA    C111 2537   1.547   2.052   5.610 -1.0130 -0.5558 -0.0474
    1PA    H11R 2538   1.604   2.098   5.530  0.1444  0.9124  1.5567
    1PA    H11S 2539   1.541   2.137   5.677  2.0896  0.1365 -0.5188
    1PA    C110 2540   1.633   1.958   5.702  0.1932  0.2047  0.0361
    1PA    H10R 2541   1.651   1.858   5.663  0.8837  0.1742  0.4121
    1PA    H10S 2542   1.734   1.998   5.718  1.0948 -2.2393  0.8436
    1PA     C19 2543   1.568   1.966   5.842 -0.1184  0.6808  0.6816
    1PA     H9R 2544   1.542   2.071   5.861  2.0862  0.7986  3.8242
    1PA     H9S 2545   1.471   1.917   5.838  0.0614  0.1846  1.9751
    1PA     C18 2546   1.664   1.919   5.957 -0.2478  0.1309 -0.0779
    1PA     H8R 2547   1.719   1.828   5.932  0.7478 -0.2033  2.9407
    1PA     H8S 2548   1.745   1.991   5.956 -0.7605  0.7148 -0.7519
    1PA     C17 2549   1.606   1.913   6.096  0.4442 -0.2041  0.3832
    1PA     H7R 2550   1.682   1.877   6.165  1.2801  0.0835 -0.3648
    1PA     H7S 2551   1.574   2.011   6.130  1.2091  0.3523 -0.4587
    1PA     C16 2552   1.478   1.823   6.105 -1.0517  0.3194  0.4233
    1PA     H6R 2553   1.395   1.860   6.044  0.6979 -2.4302 -4.2177
    1PA     H6S 2554   1.499   1.719   6.077 -0.2950  0.5800  0.0019
    1PA     C15 2555   1.444   1.818   6.248  1.2006  0.0687 -0.1518
    1PA     H5R 2556   1.434   1.712   6.276 -3.0227 -0.1882 -1.8030
    1PA     H5S 2557   1.527   1.847   6.313  1.2487  1.6018 -0.8551
    1PA     C14 2558   1.301   1.875   6.290 -0.4200  0.3953 -0.1182
    1PA     H4R 2559   1.312   1.983   6.287  1.5346  0.2161 -0.9250
    1PA     H4S 2560   1.221   1.853   6.219 -3.6652  1.2855  2.9496
    1PA     C13 2561   1.247   1.826   6.431 -0.6125  0.7561  0.6491
    1PA     H3R 2562   1.330   1.844   6.499  0.1406  0.1392 -0.0914
    1PA     H3S 2563   1.162   1.888   6.461 -0.9617 -0.4928  2.3344
    1PA     C12 2564   1.203   1.679   6.444 -0.8620 -0.3288 -1.0584
    1PA     H2R 2565   1.103   1.667   6.400 -1.7663  0.8642  0.5638
    1PA     H2S 2566   1.287   1.621   6.408 -0.1731 -1.0120  1.4589
    1PC     C11 2567   1.184   1.646   6.588 -0.4867 -0.2399  0.4118
    1PC     O12 2568   1.128   1.717   6.670  0.3903 -0.8412  0.1562
    1PC     O11 2569   1.245   1.525   6.618  0.7015 -0.2230  0.0252
    1PC      C1 2570   1.276   1.501   6.756 -0.0675  0.1315  0.7024
    1PC      HR 2571   1.224   1.568   6.825 -1.9171 -0.0826 -0.4144
    1PC      HS 2572   1.248   1.399   6.785 -1.4337  0.6098  1.1582
    1PC      C2 2573   1.431   1.520   6.771  0.5393 -0.4442  0.3417
    1PC      HX 2574   1.474   1.444   6.705 -0.3793 -2.1015  1.5701
    1PC      C3 2575   1.484   1.493   6.916 -0.8087 -0.2868  0.3995
    1PC      HA 2576   1.484   1.386   6.934  0.5428 -0.3215  0.2476
    1PC      HB 2577   1.589   1.522   6.920 -1.0473  0.5978  0.4383
    1PC     O31 2578   1.397   1.562   7.018 -0.0955  0.0550  0.0336
    1PC     P31 2579   1.434   1.704   7.072 -0.2100 -0.5187 -0.0928
    1PC     O32 2580   1.402   1.804   6.960  0.0148  0.4892 -0.0228
    1PC     C31 2581   1.265   1.855   6.928  0.1759  0.4406  0.9026
    1PC     H1A 2582   1.263   1.886   6.824 -3.2500 -2.7105 -0.1670
    1PC     H1B 2583   1.190   1.779   6.946  1.6370 -1.9281 -2.2066
    1PC     C32 2584   1.243   1.985   7.009 -0.1345 -0.1251 -0.2900
    1PC     H2A 2585   1.260   1.954   7.112 -1.7100 -3.0071 -0.7920
    1PC     H2B 2586   1.315   2.064   6.986  0.1448 -0.6597 -1.3069
    1PC     N31 2587   1.109   2.054   6.995 -0.6073  0.0445 -0.4686
    1PC     C33 2588   1.113   2.139   6.863 -0.2958 -0.3444 -0.4079
    1PC     H3A 2589   1.204   2.200   6.870  1.0456 -2.3855  1.0681
    1PC     H3B 2590   1.131   2.078   6.775  0.3847  0.0102 -0.5181
    1PC     H3C 2591   1.023   2.201   6.865 -1.2597 -1.3981  5.0068
    1PC     C34 2592   0.992   1.957   6.998  0.3780  0.0199 -0.7171
    1PC     H4A 2593   1.001   1.911   7.097  0.6646 -0.8602 -1.1445
    1PC     H4B 2594   0.899   2.014   7.001  0.4260  0.1860  3.0119
    1PC     H4C 2595   0.993   1.884   6.917  2.3074 -1.4414  0.5070
    1PC     C35 2596   1.094   2.152   7.110 -0.0856 -0.4430  0.0771
    1PC     H5A 2597   1.178   2.222   7.096  1.4886 -2.3160 -0.2419
    1PC     H5B 2598   1.116   2.100   7.203  0.1481  0.7600  0.7272
    1PC     H5C 2599   0.992   2.190   7.120  1.1325  2.4521  4.9745
    1PC     O33 2600   1.346   1.753   7.183 -0.0868  0.0136  0.2199
    1PC     O34 2601   1.577   1.716   7.103 -0.3437 -0.0877 -0.3256
    1PC     O21 2602   1.456   1.651   6.721 -0.6157  0.3936 -0.1861
    1PC     C21 2603   1.580   1.680   6.685 -0.7847  0.1908  0.4121
    1PC     O22 2604   1.667   1.598   6.667  0.1450 -0.0240 -0.2629
    1OL     C12 2605   1.601   1.828   6.663  0.1257  1.0399  1.0362
    1OL     H2R 2606   1.568   1.864   6.760  0.2072 -0.1307  1.5120
    1OL     H2S 2607   1.534   1.865   6.584 -0.7931 -0.8275  0.8911
    1OL     C13 2608   1.748   1.867   6.640 -0.2742  0.0228 -0.7093
    1OL     H3R 2609   1.794   1.802   6.566  0.0554 -0.7426  0.1495
    1OL     H3S 2610   1.812   1.850   6.727 -0.6143  1.7277 -0.0891
    1OL     C14 2611   1.755   2.010   6.587 -0.1740  1.5218  0.7748
    1OL     H4R 2612   1.855   2.053   6.598  0.3338  0.3930  0.7164
    1OL     H4S 2613   1.683   2.079   6.631 -1.4414 -0.1601  1.4178
    1OL     C15 2614   1.713   2.015   6.435  0.0086  0.0510 -0.0844
    1OL     H5R 2615   1.605   2.031   6.426  0.2326  1.9290  0.1850
    1OL     H5S 2616   1.726   1.918   6.386  1.8345  0.5894 -0.7673
    1OL     C16 2617   1.788   2.119   6.346 -0.7882 -0.3995  0.1179
    1OL     H6R 2618   1.755   2.114   6.242 -0.8303  0.4021  0.0861
    1OL     H6S 2619   1.890   2.084   6.332 -0.6192 -0.2338  0.8707
    1OL     C17 2620   1.779   2.265   6.392  0.0178  0.2067 -0.5325
    1OL     H7R 2621   1.872   2.316   6.369  0.9185 -1.5248 -0.9112
    1OL     H7S 2622   1.775   2.269   6.502  0.7643 -3.9836 -0.1853
    1OL     C18 2623   1.659   2.345   6.352  0.0584 -0.3156  0.3741
    1OL     H8R 2624   1.663   2.343   6.243  1.4678 -1.5332  0.4049
    1OL     H8S 2625   1.672   2.448   6.383  1.5271  0.6644 -3.0172
    1OL     C19 2626   1.524   2.284   6.384  0.4333 -0.4463  0.7940
    1OL     H9R 2627   1.504   2.260   6.488  0.3960  1.4031  1.2334
    1OL    C110 2628   1.430   2.249   6.294 -0.1475 -0.2935 -0.4604
    1OL    H10R 2629   1.336   2.205   6.325 -0.3662 -1.0573 -2.1160
    1OL    C111 2630   1.438   2.281   6.141 -0.5135  0.0181 -1.0784
    1OL    H11R 2631   1.503   2.207   6.094  0.0610  0.7308 -1.4216
    1OL    H11S 2632   1.491   2.373   6.116  0.5446 -0.3614 -0.3152
    1OL    C112 2633   1.300   2.276   6.086 -0.4420  0.3311  0.4616
    1OL    H12R 2634   1.242   2.352   6.139  2.3032  0.5437  3.4553
    1OL    H12S 2635   1.254   2.180   6.109  0.3667  0.2757  1.9692
    1OL    C113 2636   1.308   2.295   5.932  0.3048 -0.1695 -0.3099
    1OL    H13R 2637   1.344   2.205   5.882 -0.9266 -0.4135 -0.8116
    1OL    H13S 2638   1.385   2.369   5.909  1.4141 -1.8231 -2.3186
    1OL    C114 2639   1.179   2.320   5.853  0.5216 -0.4945  0.6783
    1OL    H14R 2640   1.146   2.422   5.875 -0.6715 -1.1419  2.0253
    1OL    H14S 2641   1.103   2.258   5.900 -0.7407  0.2779 -0.2933
    1OL    C115 2642   1.181   2.295   5.705 -1.0064 -0.0498  0.2476
    1OL    H15R 2643   1.084   2.321   5.662 -0.7728 -1.3234 -1.1594
    1OL    H15S 2644   1.194   2.187   5.688 -1.4375  0.0675 -0.9049
    1OL    C116 2645   1.302   2.373   5.649  0.0746  0.0816  0.5193
    1OL    H16R 2646   1.396   2.324   5.675 -0.3255  0.0977  2.0375
    1OL    H16S 2647   1.309   2.466   5.706 -0.1538 -0.3605  1.2771
    1OL    C117 2648   1.287   2.389   5.491  0.1095  0.1028  0.7122
    1OL    H17R 2649   1.188   2.425   5.461  0.0993 -0.0618  0.5465
    1OL    H17S 2650   1.293   2.289   5.448 -0.3563  0.5592 -0.4372
    1OL    C118 2651   1.400   2.465   5.415 -0.5679 -0.1112  0.6589
    1OL    H18R 2652   1.481   2.394   5.399 -0.8879 -0.5598  1.0009
    1OL    H18S 2653   1.436   2.546   5.479 -0.2374 -0.0726  0.4247
    1OL    H18T 2654   1.373   2.496   5.314  1.6747 -0.5973 -0.1390
    1PA    C116 2655   2.767   0.972   5.601  0.2149  0.5674  0.3579
    1PA    H16R 2656   2.738   0.981   5.496  0.1941 -1.6573  0.1383
    1PA    H16S 2657   2.868   0.940   5.625 -0.2000 -1.5712 -0.5130
    1PA    H16T 2658   2.749   1.071   5.643 -1.3188  1.4809 -2.1813
    1PA    C115 2659   2.674   0.865   5.661 -0.5657 -0.2537  0.7313
    1PA    H15R 2660   2.577   0.887   5.616 -0.1050  0.4333  0.0434
    1PA    H15S 2661   2.706   0.766   5.627 -1.3875 -0.3467  0.1982
    1PA    C114 2662   2.662   0.881   5.813  0.7314 -0.6333  0.1993
    1PA    H14R 2663   2.591   0.804   5.843 -0.7242  0.2157 -0.9201
    1PA    H14S 2664   2.749   0.852   5.872 -0.3201 -1.4127  1.3975
    1PA    C113 2665   2.607   1.014   5.865  0.2072  0.1396  0.1160
    1PA    H13R 2666   2.682   1.092   5.852 -0.0280  0.0840 -1.8773
    1PA    H13S 2667   2.520   1.041   5.804  1.1070  0.8816 -0.8696
    1PA    C112 2668   2.580   1.014   6.012  0.4411 -0.6840 -0.0472
    1PA    H12R 2669   2.534   0.918   6.038 -1.5887  0.3214  0.2208
    1PA    H12S 2670   2.674   1.020   6.068 -1.0258  0.0843  2.5030
    1PA    C111 2671   2.490   1.132   6.049  0.2600 -0.2045 -0.6213
    1PA    H11R 2672   2.509   1.163   6.152 -0.8754 -1.8596  0.1259
    1PA    H11S 2673   2.525   1.216   5.988  1.2829  0.4326  0.7783
    1PA    C110 2674   2.339   1.119   6.019 -0.5394  0.1574  0.4721
    1PA    H10R 2675   2.354   1.036   5.949  0.2526 -0.5709  1.4839
    1PA    H10S 2676   2.285   1.072   6.101 -2.0240 -1.5270 -1.3773
    1PA     C19 2677   2.275   1.246   5.967  0.7705  0.1692  0.0878
    1PA     H9R 2678   2.344   1.310   5.911  0.4798 -0.2482 -0.7562
    1PA     H9S 2679   2.200   1.210   5.897  1.1035 -1.9958  0.7907
    1PA     C18 2680   2.197   1.326   6.078  0.6349  0.0644  0.2025
    1PA     H8R 2681   2.267   1.363   6.153 -0.3918 -0.5476  1.5156
    1PA     H8S 2682   2.162   1.414   6.024 -2.3547 -1.3850 -0.4488
    1PA     C17 2683   2.088   1.260   6.154  0.2466 -0.6298  0.2036
    1PA     H7R 2684   2.000   1.235   6.094 -0.5810  0.2850  1.0027
    1PA     H7S 2685   2.124   1.167   6.198  0.0574 -1.0022 -0.4174
    1PA     C16 2686   2.031   1.343   6.271 -0.3012  0.5902 -0.0575
    1PA     H6R 2687   2.106   1.338   6.350 -0.7502  1.6436  0.4643
    1PA     H6S 2688   2.021   1.446   6.235 -1.5625  0.1583 -1.0181
    1PA     C15 2689   1.899   1.290   6.330 -0.4809 -0.0955 -0.2644
    1PA     H5R 2690   1.826   1.275   6.250 -0.0223 -4.0662 -0.1391
    1PA     H5S 2691   1.917   1.191   6.373 -1.1646  0.3300  1.0543
    1PA     C14 2692   1.832   1.388   6.432  0.2557  0.2993 -0.3937
    1PA     H4R 2693   1.903   1.411   6.511 -0.7104 -1.5384  1.1107
    1PA     H4S 2694   1.803   1.480   6.380 -0.4014  0.6754  0.6273
    1PA     C13 2695   1.709   1.322   6.503 -0.7096  0.3933  0.3887
    1PA     H3R 2696   1.637   1.400   6.530 -1.0015  0.1683  0.2583
    1PA     H3S 2697   1.659   1.243   6.447  0.5405 -1.8248  2.2274
    1PA     C12 2698   1.758   1.248   6.633  0.6971 -0.0790  0.0720
    1PA     H2R 2699   1.802   1.150   6.614  0.1773 -0.1988 -0.5605
    1PA     H2S 2700   1.821   1.310   6.697  0.3412  0.5140 -0.1428
    1PC     C11 2701   1.647   1.212   6.722  0.7821  0.2475 -0.4162
    1PC     O12 2702   1.531   1.207   6.688 -0.3410  0.1275  0.0500
    1PC     O11 2703   1.687   1.162   6.842 -0.5376 -0.2090  0.1197
    1PC      C1 2704   1.584   1.101   6.928 -0.1019 -0.9010  0.3491
    1PC      HR 2705   1.510   1.172   6.966 -0.6922 -0.8835 -0.7866
    1PC      HS 2706   1.526   1.027   6.872  1.2337 -1.8411  0.1747
    1PC      C2 2707   1.653   1.037   7.048  0.5490 -0.2442  0.4610
    1PC      HX 2708   1.601   0.955   7.099  2.1182 -1.2891  0.4748
    1PC      C3 2709   1.691   1.151   7.141  1.0252  0.1979  0.4376
    1PC      HA 2710   1.738   1.229   7.082 -0.5375  1.0546  0.2673
    1PC      HB 2711   1.606   1.196   7.193  0.1488 -1.7418  0.7958
    1PC     O31 2712   1.789   1.113   7.243 -0.2447  0.5761  0.0492
    1PC     P31 2713   1.734   1.069   7.387 -0.6118 -0.1448  0.1780
    1PC     O32 2714   1.681   1.204   7.449  0.2135 -0.6433 -0.3261
    1PC     C31 2715   1.741   1.273   7.557 -0.4716 -0.3606 -0.9600
    1PC     H1A 2716   1.848   1.254   7.569 -0.3805  0.6545  0.0114
    1PC     H1B 2717   1.723   1.381   7.552  0.6896 -0.1153 -0.0993
    1PC     C32 2718   1.669   1.223   7.684 -0.6232  0.1590  0.3808
    1PC     H2A 2719   1.564   1.249   7.672 -0.8734 -1.1636 -0.4264
    1PC     H2B 2720   1.670   1.114   7.690 -1.2233  0.2153  2.1014
    1PC     N31 2721   1.726   1.270   7.810 -0.0242 -0.6806 -0.1945
    1PC     C33 2722   1.642   1.240   7.928 -0.0411  0.2943  0.1214
    1PC     H3A 2723   1.692   1.270   8.020  0.4308  0.0999 -0.0668
    1PC     H3B 2724   1.555   1.300   7.900  0.5303  0.6677 -0.9084
    1PC     H3C 2725   1.619   1.133   7.925  0.5101  0.1826 -0.5473
    1PC     C34 2726   1.854   1.194   7.831 -0.7111  0.4702 -0.4237
    1PC     H4A 2727   1.927   1.228   7.758  0.5575  1.4995  1.2412
    1PC     H4B 2728   1.892   1.207   7.933 -1.1276 -2.2886  0.1641
    1PC     H4C 2729   1.829   1.088   7.818  0.2619  0.0257  1.0264
    1PC     C35 2730   1.762   1.415   7.819 -0.6942 -0.6224  0.0388
    1PC     H5A 2731   1.847   1.425   7.751 -1.3043  2.0373 -0.4344
    1PC     H5B 2732   1.798   1.439   7.919 -1.1449  0.9659 -0.1523
    1PC     H5C 2733   1.677   1.473   7.783  0.0070 -0.7592 -1.9866
    1PC     O33 2734   1.622   0.978   7.371  0.3628  0.0946 -0.3304
    1PC     O34 2735   1.850   1.032   7.471 -0.4437 -0.2584  0.0292
    1PC     O21 2736   1.780   0.979   6.997  0.0322  0.0192 -0.0428
    1PC     C21 2737   1.775   0.861   6.931 -0.4709 -0.3518  0.0036
    1PC     O22 2738   1.668   0.804   6.922 -0.4522 -0.6930 -0.1884
    1OL     C12 2739   1.904   0.828   6.851  0.6906 -0.6556 -0.1475
    1OL     H2R 2740   1.977   0.774   6.912 -0.8960 -1.9021  0.7292
    1OL     H2S 2741   1.953   0.922   6.823  1.3444 -0.7829  0.5338
    1OL     C13 2742   1.890   0.725   6.738 -0.2862  0.6247  0.7191
    1OL     H3R 2743   1.853   0.632   6.782  0.1757  0.5690  0.9987
    1OL     H3S 2744   1.981   0.700   6.683 -0.4463  1.7364 -0.0815
    1OL     C14 2745   1.801   0.771   6.622  0.0855  0.3124 -0.4111
    1OL     H4R 2746   1.714   0.827   6.657 -0.3256 -0.3612 -0.3599
    1OL     H4S 2747   1.774   0.685   6.560 -0.6578  0.7106 -0.6517
    1OL     C15 2748   1.883   0.868   6.539  0.1240  0.5055  0.4761
    1OL     H5R 2749   1.971   0.808   6.513  0.8705  1.1329  1.4703
    1OL     H5S 2750   1.920   0.951   6.600  1.4298  1.7171 -1.8394
    1OL     C16 2751   1.804   0.922   6.424 -0.2032 -0.3579 -0.6067
    1OL     H6R 2752   1.867   1.001   6.383  0.7573 -0.3112  0.8723
    1OL     H6S 2753   1.716   0.981   6.451  0.6011  1.4097 -1.6598
    1OL     C17 2754   1.774   0.826   6.306 -0.1870 -0.6623 -0.0171
    1OL     H7R 2755   1.712   0.881   6.235 -0.7334  0.5229  1.3415
    1OL     H7S 2756   1.714   0.742   6.340 -0.7174 -0.0283  0.6218
    1OL     C18 2757   1.902   0.772   6.237 -1.1002 -0.7707  0.3655
    1OL     H8R 2758   1.886   0.710   6.149  2.2529 -1.1763 -0.0767
    1OL     H8S 2759   1.957   0.706   6.305  2.3842  0.5226 -0.9912
    1OL     C19 2760   1.998   0.879   6.195 -0.4899 -0.0096  0.0324
    1OL     H9R 2761   2.033   0.941   6.277  0.3095  0.5069 -0.6874
    1OL    C110 2762   2.040   0.910   6.077 -0.1477 -0.2353  0.3518
    1OL    H10R 2763   2.115   0.988   6.069  0.0161 -0.5636 -1.8532
    1OL    C111 2764   1.996   0.842   5.946  0.1972  0.8624  0.0397
    1OL    H11R 2765   1.888   0.829   5.943  0.2901  0.0732 -0.0763
    1OL    H11S 2766   2.041   0.743   5.934  0.5907  1.2306 -1.7157
    1OL    C112 2767   2.041   0.924   5.821 -0.2312  0.0992  0.1740
    1OL    H12R 2768   2.002   0.861   5.741  0.4475  1.3410 -1.1766
    1OL    H12S 2769   2.150   0.918   5.808 -0.4415 -0.3094 -1.6802
    1OL    C113 2770   1.991   1.067   5.793 -0.0568 -0.5918 -0.6591
    1OL    H13R 2771   2.034   1.108   5.701  1.4845  0.4621  0.4650
    1OL    H13S 2772   2.019   1.131   5.878  0.7022 -1.9123  0.1174
    1OL    C114 2773   1.840   1.079   5.783 -0.6509 -0.7769  0.0366
    1OL    H14R 2774   1.802   1.068   5.884 -2.2538 -0.8545 -0.5466
    1OL    H14S 2775   1.801   0.999   5.720 -0.1369 -2.2151  1.4856
    1OL    C115 2776   1.782   1.218   5.725  0.7111  0.3977 -0.0341
    1OL    H15R 2777   1.674   1.209   5.711  0.6041 -0.0299  0.9538
    1OL    H15S 2778   1.829   1.230   5.627 -0.7034  0.1500 -0.7683
    1OL    C116 2779   1.818   1.343   5.805 -0.4635 -0.0578  0.0960
    1OL    H16R 2780   1.818   1.431   5.740  2.1831 -1.3641 -1.8485
    1OL    H16S 2781   1.922   1.327   5.835 -0.3111 -1.2968 -0.9984
    1OL    C117 2782   1.739   1.363   5.940 -0.4112 -1.1100  0.6496
    1OL    H17R 2783   1.765   1.288   6.014 -1.3642 -1.8104  0.2989
    1OL    H17S 2784   1.632   1.348   5.921 -0.0377 -3.3657  0.0539
    1OL    C118 2785   1.767   1.508   6.000  0.5273  0.8201 -0.1853
    1OL    H18R 2786   1.706   1.520   6.089  2.1276 -2.5564  1.5713
    1OL    H18S 2787   1.731   1.575   5.922 -1.0472 -0.2003 -0.3645
    1OL    H18T 2788   1.874   1.525   6.014  0.2280  0.8412  2.4766
    1PA    C116 2789   3.383   4.682   5.163  0.0840  0.9546  0.2087
    1PA    H16R 2790   3.455   4.613   5.119 -2.9898 -2.8143  0.5204
    1PA    H16S 2791   3.412   4.782   5.194  0.4909  2.0294 -3.2004
    1PA    H16T 2792   3.312   4.695   5.081  1.2914  0.0172 -1.0197
    1PA    C115 2793   3.318   4.616   5.287 -1.1562 -0.0168  0.5669
    1PA    H15R 2794   3.235   4.683   5.312 -2.3492 -1.2347 -0.0179
    1PA    H15S 2795   3.265   4.524   5.263 -1.0100 -0.5053  1.9967
    1PA    C114 2796   3.425   4.587   5.399  0.5780 -0.1927 -0.0113
    1PA    H14R 2797   3.481   4.499   5.368 -1.7663 -2.0290  0.7123
    1PA    H14S 2798   3.485   4.678   5.409  1.8875 -0.9302 -0.8140
    1PA    C113 2799   3.348   4.553   5.525 -0.1339  0.2563 -0.5154
    1PA    H13R 2800   3.278   4.632   5.553 -1.3356 -0.8037 -0.4384
    1PA    H13S 2801   3.284   4.466   5.510  2.1335 -1.3863 -1.1761
    1PA    C112 2802   3.436   4.515   5.656  0.1319 -0.2662  0.7048
    1PA    H12R 2803   3.519   4.450   5.628  1.3084  0.6571  1.9047
    1PA    H12S 2804   3.483   4.609   5.688  0.5119  0.7703 -2.5019
    1PA    C111 2805   3.354   4.438   5.762 -0.9069 -0.0052 -0.2355
    1PA    H11R 2806   3.264   4.496   5.784 -2.1810 -1.4400 -1.4279
    1PA    H11S 2807   3.321   4.344   5.717 -1.2833  1.3367 -2.9682
    1PA    C110 2808   3.421   4.401   5.890 -0.5577  1.1849  0.3126
    1PA    H10R 2809   3.351   4.338   5.945  0.5587 -2.2305 -1.8913
    1PA    H10S 2810   3.505   4.335   5.871 -1.8950 -0.4626 -0.0862
    1PA     C19 2811   3.448   4.533   5.970 -0.2105 -0.6991 -0.0081
    1PA     H9R 2812   3.519   4.595   5.914  0.8824 -0.3454  1.6783
    1PA     H9S 2813   3.354   4.589   5.972  0.6735  1.0735 -2.5032
    1PA     C18 2814   3.499   4.502   6.106  0.4082  0.3314 -0.6381
    1PA     H8R 2815   3.428   4.435   6.154 -1.4293  2.1393 -0.7149
    1PA     H8S 2816   3.595   4.451   6.091  0.2347 -0.6280  1.2516
    1PA     C17 2817   3.532   4.615   6.204  0.6106 -0.2902 -0.2192
    1PA     H7R 2818   3.607   4.685   6.167 -0.3309  1.5723  1.3020
    1PA     H7S 2819   3.445   4.674   6.234  1.0854  1.3733 -1.9298
    1PA     C16 2820   3.598   4.547   6.333  0.4620  0.5771 -0.2227
    1PA     H6R 2821   3.532   4.475   6.380  1.1564  0.5990  0.7995
    1PA     H6S 2822   3.681   4.488   6.293  0.6732  0.4053  0.4621
    1PA     C15 2823   3.655   4.653   6.426  0.1107  0.1799 -0.6203
    1PA     H5R 2824   3.708   4.721   6.360  1.0688 -0.5273 -0.5905
    1PA     H5S 2825   3.571   4.697   6.481 -0.9028 -2.9595  0.5819
    1PA     C14 2826   3.756   4.589   6.518 -0.2483  0.2229 -0.6522
    1PA     H4R 2827   3.841   4.548   6.462 -0.9072  0.5553 -1.9494
    1PA     H4S 2828   3.798   4.671   6.577 -2.9224  2.1046 -1.1590
    1PA     C13 2829   3.690   4.492   6.620  0.2966 -0.0692 -0.6334
    1PA     H3R 2830   3.626   4.538   6.695 -0.5819  1.9271 -2.5028
    1PA     H3S 2831   3.626   4.423   6.563 -2.3200 -0.0532  2.0564
    1PA     C12 2832   3.796   4.397   6.679  0.3414 -0.1977  0.0441
    1PA     H2R 2833   3.822   4.322   6.604  1.1118 -0.7765  0.8765
    1PA     H2S 2834   3.886   4.452   6.708 -0.0867 -0.3187  1.6790
    1PC     C11 2835   3.742   4.339   6.805 -0.5526 -0.1371  0.5251
    1PC     O12 2836   3.740   4.399   6.907 -0.2326 -0.0185 -0.1771
    1PC     O11 2837   3.703   4.212   6.795 -0.4336 -0.5043  0.5666
    1PC      C1 2838   3.666   4.144   6.915 -0.7854  0.0303  0.0535
    1PC      HR 2839   3.663   4.038   6.888 -0.4351  0.3331 -1.2222
    1PC      HS 2840   3.744   4.157   6.990 -0.2729 -1.3662 -0.1936
    1PC      C2 2841   3.526   4.196   6.963 -0.2696 -0.1435  0.4373
    1PC      HX 2842   3.540   4.300   6.996 -2.3767 -0.5787  3.1122
    1PC      C3 2843   3.471   4.118   7.085 -0.8035  0.1780  0.1113
    1PC      HA 2844   3.371   4.152   7.111 -0.3693  2.2048 -0.7174
    1PC      HB 2845   3.463   4.013   7.054 -0.7804  0.1648  0.1498
    1PC     O31 2846   3.563   4.135   7.197 -0.0174  0.8922 -0.0098
    1PC     P31 2847   3.555   4.256   7.294  0.4650 -0.5000  0.1342
    1PC     O32 2848   3.422   4.220   7.363  0.4362 -0.3752  0.2201
    1PC     C31 2849   3.411   4.145   7.484  0.2110 -0.3223 -0.0272
    1PC     H1A 2850   3.469   4.052   7.481  0.0270 -0.4439  0.1758
    1PC     H1B 2851   3.458   4.207   7.561  2.1801 -2.2399  0.4050
    1PC     C32 2852   3.261   4.135   7.526  0.0883  0.8574  0.0969
    1PC     H2A 2853   3.225   4.238   7.532  0.0733  1.0166 -2.0576
    1PC     H2B 2854   3.206   4.082   7.449 -0.0819  0.3869  0.5337
    1PC     N31 2855   3.228   4.059   7.658  0.1607 -0.3082  0.1282
    1PC     C33 2856   3.086   4.071   7.683  0.6529  0.3891 -0.3773
    1PC     H3A 2857   3.026   4.039   7.598 -1.5337  0.7862  0.9536
    1PC     H3B 2858   3.060   3.997   7.760  0.7567  0.1968 -0.5264
    1PC     H3C 2859   3.062   4.173   7.713 -0.3252 -0.3693  1.5865
    1PC     C34 2860   3.269   3.913   7.638 -0.4285 -0.4200 -0.4893
    1PC     H4A 2861   3.237   3.856   7.725  0.0921  0.9076  0.6191
    1PC     H4B 2862   3.217   3.872   7.552 -3.5623 -1.4714  1.7068
    1PC     H4C 2863   3.378   3.912   7.633 -0.4442  1.1076 -1.8860
    1PC     C35 2864   3.286   4.123   7.781  0.7034 -0.2451 -0.1213
    1PC     H5A 2865   3.394   4.109   7.774  0.6387 -0.8291 -0.0085
    1PC     H5B 2866   3.249   4.070   7.869  0.3732 -0.1334 -0.1900
    1PC     H5C 2867   3.242   4.221   7.796  0.9538 -0.2509  0.7051
    1PC     O33 2868   3.670   4.247   7.389  0.0402 -0.3084 -0.7148
    1PC     O34 2869   3.532   4.384   7.225 -0.2388 -0.0711  0.3405
    1PC     O21 2870   3.432   4.190   6.852 -0.3977  0.1996 -0.1084
    1PC     C21 2871   3.360   4.296   6.819  0.4860  0.6230 -0.3240
    1PC     O22 2872   3.371   4.408   6.859 -0.5709 -0.5968 -0.6750
    1OL     C12 2873   3.264   4.256   6.708 -0.3851 -0.6454 -0.5907
    1OL     H2R 2874   3.175   4.236   6.768 -0.0682 -0.6645 -0.1244
    1OL     H2S 2875   3.306   4.163   6.668  0.4615 -0.3272 -0.4691
    1OL     C13 2876   3.253   4.357   6.596 -0.0048  0.5612  0.4716
    1OL     H3R 2877   3.352   4.378   6.555  0.0486  0.0785  0.3487
    1OL     H3S 2878   3.207   4.446   6.639  0.3304 -0.9842  4.4550
    1OL     C14 2879   3.159   4.285   6.490 -0.0822 -0.0039  0.3396
    1OL     H4R 2880   3.084   4.228   6.545  1.4730 -0.8356  1.6923
    1OL     H4S 2881   3.221   4.217   6.431 -1.2906 -1.5669  0.8256
    1OL     C15 2882   3.074   4.378   6.401 -0.2814 -0.3522  0.0160
    1OL     H5R 2883   3.026   4.461   6.455 -1.7957 -1.8691  1.1362
    1OL     H5S 2884   2.989   4.320   6.364 -2.2910  0.9749  2.1826
    1OL     C16 2885   3.147   4.429   6.269 -0.1937  0.4170  0.2180
    1OL     H6R 2886   3.195   4.347   6.215 -0.2794  1.8276 -2.1458
    1OL     H6S 2887   3.226   4.498   6.300 -0.3626  0.0908  1.4450
    1OL     C17 2888   3.039   4.501   6.190  0.2903  0.6209  0.5765
    1OL     H7R 2889   2.987   4.572   6.255 -0.9428 -1.0175  1.4475
    1OL     H7S 2890   2.966   4.424   6.165  1.8674 -0.8418  0.2572
    1OL     C18 2891   3.101   4.572   6.065  0.0017  0.3176  0.2780
    1OL     H8R 2892   3.159   4.501   6.006  0.9388  0.8760  0.5160
    1OL     H8S 2893   3.178   4.643   6.097 -0.2540  0.1493  1.2829
    1OL     C19 2894   2.997   4.648   5.978 -0.6208 -0.2841 -0.2569
    1OL     H9R 2895   2.975   4.746   6.019  1.1209 -0.1617  0.4656
    1OL    C110 2896   2.935   4.616   5.868 -0.1066 -0.1650  0.4232
    1OL    H10R 2897   2.880   4.690   5.811  3.3022  1.3434 -1.2474
    1OL    C111 2898   2.959   4.481   5.796  0.0741  0.0200  0.1763
    1OL    H11R 2899   2.995   4.405   5.865 -1.4276 -2.1198 -1.2913
    1OL    H11S 2900   3.033   4.497   5.718 -1.4125  2.0429 -0.9170
    1OL    C112 2901   2.826   4.429   5.735 -0.0014  0.4448  0.0849
    1OL    H12R 2902   2.743   4.431   5.805 -1.2526 -0.0437 -1.3274
    1OL    H12S 2903   2.851   4.325   5.713  0.4287  0.2163  1.5698
    1OL    C113 2904   2.791   4.518   5.614  0.3798  0.5880 -0.0290
    1OL    H13R 2905   2.810   4.623   5.638  0.0076  0.6433  0.0254
    1OL    H13S 2906   2.683   4.509   5.600  0.1952 -2.2686  2.1932
    1OL    C114 2907   2.872   4.476   5.490  0.3619 -0.3413 -0.2145
    1OL    H14R 2908   2.851   4.371   5.468  1.7612 -1.6482  3.8251
    1OL    H14S 2909   2.978   4.477   5.515  0.6898 -0.8726 -1.4648
    1OL    C115 2910   2.844   4.556   5.357 -0.0522 -0.2319  0.0825
    1OL    H15R 2911   2.879   4.658   5.378  0.6937 -0.4560 -0.0555
    1OL    H15S 2912   2.738   4.560   5.328 -1.1388 -2.4201  3.3006
    1OL    C116 2913   2.922   4.500   5.242  0.3524  0.1653 -0.3788
    1OL    H16R 2914   2.910   4.391   5.240 -0.1511  0.2119 -0.0264
    1OL    H16S 2915   3.028   4.519   5.260  0.3890  1.1069 -1.4714
    1OL    C117 2916   2.881   4.567   5.108 -0.3049  0.7884 -0.5962
    1OL    H17R 2917   2.897   4.675   5.111  0.3871  0.7029 -0.9680
    1OL    H17S 2918   2.773   4.562   5.098 -0.2909 -2.1952 -0.0693
    1OL    C118 2919   2.953   4.482   5.001  0.0517 -0.6329  0.1261
    1OL    H18R 2920   2.929   4.379   5.025 -1.9908 -0.1195  0.4552
    1OL    H18S 2921   3.062   4.483   4.986  0.1662 -0.5137  0.9239
    1OL    H18T 2922   2.920   4.514   4.901  1.3289 -0.1844 -0.1801
    1PA    C116 2923   0.924   2.582   5.084  0.0037  0.0309  0.1243
    1PA    H16R 2924   0.893   2.481   5.058  0.5937 -0.2174  0.3738
    1PA    H16S 2925   1.029   2.615   5.085 -0.7021  2.5803 -0.8539
    1PA    H16T 2926   0.869   2.645   5.014 -0.5468 -2.3562 -1.7007
    1PA    C115 2927   0.869   2.605   5.223  0.5793  0.4633  0.4231
    1PA    H15R 2928   0.910   2.700   5.257  0.3846  0.1852  1.4738
    1PA    H15S 2929   0.760   2.619   5.227  0.3162 -1.1010 -0.6407
    1PA    C114 2930   0.908   2.507   5.329  0.1645 -0.4783 -0.0340
    1PA    H14R 2931   0.872   2.407   5.303  1.1349 -1.3105  1.6403
    1PA    H14S 2932   1.017   2.517   5.334 -0.0484  3.1181 -0.4282
    1PA    C113 2933   0.841   2.540   5.468 -0.1058  0.4632  0.5408
    1PA    H13R 2934   0.882   2.468   5.539 -0.9151  1.0362  1.6339
    1PA    H13S 2935   0.871   2.638   5.504  2.2720  0.5763 -1.5204
    1PA    C112 2936   0.688   2.528   5.466 -0.3060  0.1226  0.1728
    1PA    H12R 2937   0.650   2.594   5.388  0.6481  1.9787  1.2037
    1PA    H12S 2938   0.655   2.431   5.429  0.2482 -0.2314  0.5839
    1PA    C111 2939   0.601   2.556   5.597  0.5260 -0.1578 -0.3036
    1PA    H11R 2940   0.662   2.523   5.681  2.3121  1.6766 -0.8085
    1PA    H11S 2941   0.578   2.662   5.611 -0.5690 -0.3445 -0.6311
    1PA    C110 2942   0.464   2.485   5.592 -0.3448  0.3936  0.4496
    1PA    H10R 2943   0.398   2.535   5.520 -0.6789  0.5313  0.8479
    1PA    H10S 2944   0.474   2.381   5.562  2.9399  0.8856 -0.5830
    1PA     C19 2945   0.393   2.473   5.730 -0.4276 -0.6050  0.3653
    1PA     H9R 2946   0.455   2.405   5.789 -0.8714 -0.7713  0.6422
    1PA     H9S 2947   0.412   2.570   5.776 -0.5352 -1.2017  1.7221
    1PA     C18 2948   0.245   2.437   5.737  0.1548 -0.1712 -1.0912
    1PA     H8R 2949   0.184   2.484   5.660 -0.1775  0.5035 -0.4326
    1PA     H8S 2950   0.244   2.331   5.712  1.4018 -1.1663  2.4196
    1PA     C17 2951   0.176   2.458   5.879 -0.4335 -0.0075  0.3878
    1PA     H7R 2952   0.252   2.422   5.949  0.9299  0.0026 -1.0321
    1PA     H7S 2953   0.162   2.563   5.904 -1.3217  0.3841 -1.6131
    1PA     C16 2954   0.052   2.366   5.896 -1.1466  0.2579  0.7637
    1PA     H6R 2955  -0.018   2.398   5.819  2.0442 -1.0778 -3.0357
    1PA     H6S 2956   0.077   2.262   5.876 -1.5650  0.3111 -0.0523
    1PA     C15 2957  -0.006   2.374   6.042  0.3113  0.4142  0.5967
    1PA     H5R 2958   0.080   2.371   6.110 -0.0480 -1.6339  1.0331
    1PA     H5S 2959  -0.058   2.470   6.047 -1.3874 -0.4484  0.1260
    1PA     C14 2960  -0.097   2.255   6.078  0.2199  0.3927  0.3138
    1PA     H4R 2961  -0.177   2.232   6.006 -0.6173 -0.5292  1.4948
    1PA     H4S 2962  -0.031   2.169   6.091 -0.1337  0.1375  0.4753
    1PA     C13 2963  -0.180   2.280   6.205  0.4864 -0.0688 -0.3421
    1PA     H3R 2964  -0.105   2.303   6.282  2.4452  0.9629 -2.4413
    1PA     H3S 2965  -0.234   2.375   6.204 -0.1038 -0.3058  1.7826
    1PA     C12 2966  -0.268   2.156   6.240  0.1282 -0.4228  0.0765
    1PA     H2R 2967  -0.353   2.144   6.173  0.4924 -0.5632 -0.3664
    1PA     H2S 2968  -0.214   2.061   6.239 -1.4818 -1.3828  0.6706
    1PC     C11 2969  -0.313   2.155   6.384 -0.2346 -0.9596  0.6676
    1PC     O12 2970  -0.428   2.163   6.418  0.5243  0.0816  0.4936
    1PC     O11 2971  -0.213   2.151   6.473  0.0315  0.1438  0.2201
    1PC      C1 2972  -0.252   2.149   6.613 -0.8956  0.8789 -0.4381
    1PC      HR 2973  -0.353   2.109   6.623 -0.1331 -0.8407  1.1481
    1PC      HS 2974  -0.181   2.084   6.666 -1.9719  0.2995  0.3344
    1PC      C2 2975  -0.255   2.296   6.656 -0.6198  0.4458 -0.0914
    1PC      HX 2976  -0.160   2.344   6.634 -0.5327  1.7126  2.6313
    1PC      C3 2977  -0.282   2.315   6.807 -0.3730  0.0820  0.7255
    1PC      HA 2978  -0.188   2.284   6.854 -0.9864 -1.0181  1.2825
    1PC      HB 2979  -0.299   2.420   6.831  1.3736  0.8801 -1.1991
    1PC     O31 2980  -0.385   2.225   6.851 -0.1465  0.5583 -0.0842
    1PC     P31 2981  -0.493   2.268   6.959 -0.3014  0.2319 -0.2469
    1PC     O32 2982  -0.398   2.294   7.083 -0.2931  0.2933 -0.1931
    1PC     C31 2983  -0.315   2.189   7.149 -0.7700 -0.6269 -0.5028
    1PC     H1A 2984  -0.380   2.110   7.186  1.1231 -1.4003  1.4123
    1PC     H1B 2985  -0.235   2.156   7.082  0.1533 -0.3455  0.4249
    1PC     C32 2986  -0.256   2.258   7.281  0.3842 -0.2917  0.1055
    1PC     H2A 2987  -0.195   2.342   7.247  0.7433 -2.0855 -4.4654
    1PC     H2B 2988  -0.340   2.287   7.344  0.4633 -1.1866  0.6418
    1PC     N31 2989  -0.185   2.165   7.374 -0.1029  0.5691  0.5321
    1PC     C33 2990  -0.069   2.105   7.296  0.0201  0.4963  0.4495
    1PC     H3A 2991  -0.102   2.055   7.205 -0.5726  2.0896 -0.2353
    1PC     H3B 2992   0.013   2.173   7.272  0.5887 -0.5139 -0.6163
    1PC     H3C 2993  -0.027   2.032   7.366  2.9125  1.8872  0.3040
    1PC     C34 2994  -0.146   2.235   7.497  0.1694 -0.5656  0.4084
    1PC     H4A 2995  -0.054   2.185   7.527  0.4629 -0.5665 -0.4904
    1PC     H4B 2996  -0.137   2.342   7.478 -0.6720 -0.6919 -0.8259
    1PC     H4C 2997  -0.215   2.220   7.581  0.2484 -1.2582  0.3607
    1PC     C35 2998  -0.265   2.048   7.415  0.2167  0.2706  0.1314
    1PC     H5A 2999  -0.355   2.076   7.471  0.9138  1.1283  0.8425
    1PC     H5B 3000  -0.202   1.988   7.481 -0.8828 -0.3195  0.6795
    1PC     H5C 3001  -0.298   1.989   7.329 -2.9120 -1.4434  2.2726
    1PC     O33 3002  -0.565   2.394   6.934  0.0282  0.1425  1.1884
    1PC     O34 3003  -0.569   2.145   7.002  0.2610  0.1987  0.6310
    1PC     O21 3004  -0.365   2.365   6.596  0.0235  0.4136  0.1323
    1PC     C21 3005  -0.341   2.455   6.503 -0.2146 -0.2009  0.2295
    1PC     O22 3006  -0.228   2.499   6.490  0.2709  0.4045 -0.4485
    1OL     C12 3007  -0.465   2.491   6.423 -0.0695 -0.9177 -0.8748
    1OL     H2R 3008  -0.541   2.484   6.501  0.8481  2.3155  0.5203
    1OL     H2S 3009  -0.479   2.411   6.351 -0.8778  0.8607 -2.8127
    1OL     C13 3010  -0.478   2.633   6.361  0.3790  0.2731 -0.2013
    1OL     H3R 3011  -0.421   2.647   6.269  2.2928  0.9628  1.0239
    1OL     H3S 3012  -0.432   2.710   6.424  0.7677  0.1271 -0.3104
    1OL     C14 3013  -0.628   2.662   6.331  0.6494  0.0695  0.2300
    1OL     H4R 3014  -0.682   2.639   6.423  0.2442 -1.4942 -0.3782
    1OL     H4S 3015  -0.661   2.607   6.243  0.6179  4.0919 -2.5676
    1OL     C15 3016  -0.638   2.810   6.298  0.1184  0.3420 -0.0328
    1OL     H5R 3017  -0.584   2.830   6.205 -0.0136  1.1464  0.0563
    1OL     H5S 3018  -0.581   2.874   6.366  0.1960 -2.1279  2.3690
    1OL     C16 3019  -0.785   2.875   6.301 -0.4018  0.1234  0.1708
    1OL     H6R 3020  -0.785   2.984   6.306  2.1980  0.1521  1.1636
    1OL     H6S 3021  -0.826   2.841   6.396  0.3871 -1.3201  0.0138
    1OL     C17 3022  -0.882   2.823   6.196  1.0987 -0.0121 -0.5692
    1OL     H7R 3023  -0.910   2.720   6.219  0.3753  0.3620  0.2752
    1OL     H7S 3024  -0.829   2.822   6.100  1.9991  0.6805 -0.1037
    1OL     C18 3025  -1.015   2.904   6.172  0.0838 -0.9358 -0.5287
    1OL     H8R 3026  -0.998   2.981   6.096 -0.8850 -1.5097 -1.3567
    1OL     H8S 3027  -1.042   2.951   6.267 -0.8676 -1.1914 -0.6618
    1OL     C19 3028  -1.128   2.814   6.123 -0.0846  0.0946 -0.0999
    1OL     H9R 3029  -1.170   2.752   6.201  0.3102 -0.0035  0.0359
    1OL    C110 3030  -1.178   2.807   6.001  0.7544 -0.2103  0.5185
    1OL    H10R 3031  -1.262   2.742   5.980 -0.6107  1.0876  1.7243
    1OL    C111 3032  -1.137   2.884   5.881 -0.0399 -0.0627  0.3635
    1OL    H11R 3033  -1.030   2.904   5.895  0.0895 -0.2453 -0.3279
    1OL    H11S 3034  -1.193   2.977   5.877  1.2970  0.7517 -0.1598
    1OL    C112 3035  -1.178   2.825   5.748 -0.3532 -0.1211  0.0566
    1OL    H12R 3036  -1.286   2.832   5.736 -0.1374  0.6335 -1.9807
    1OL    H12S 3037  -1.152   2.720   5.761  1.0026  0.2971  0.9114
    1OL    C113 3038  -1.116   2.877   5.620 -1.1432  0.1702 -0.4851
    1OL    H13R 3039  -1.008   2.893   5.633 -1.5907  2.9350  0.6338
    1OL    H13S 3040  -1.161   2.976   5.610 -0.8765  0.6458  2.1986
    1OL    C114 3041  -1.153   2.778   5.502 -0.1172  0.4023 -0.4040
    1OL    H14R 3042  -1.261   2.764   5.499  0.1127 -1.3781 -1.9622
    1OL    H14S 3043  -1.117   2.675   5.508 -0.5304  0.3104  0.9359
    1OL    C115 3044  -1.093   2.829   5.366  0.0378 -0.4602 -0.4323
    1OL    H15R 3045  -1.114   2.760   5.284  1.1846 -0.6802 -0.5522
    1OL    H15S 3046  -0.985   2.842   5.375 -0.3216  1.3718  2.6386
    1OL    C116 3047  -1.148   2.964   5.321 -0.1144 -0.0870  0.0475
    1OL    H16R 3048  -1.126   3.032   5.403 -1.9768  0.9180 -0.2422
    1OL    H16S 3049  -1.257   2.965   5.312 -0.2510 -0.4781  1.4839
    1OL    C117 3050  -1.080   3.011   5.188 -0.2206 -0.0800  0.0565
    1OL    H17R 3051  -0.975   2.983   5.187 -0.2328 -0.1333 -1.4291
    1OL    H17S 3052  -1.080   3.120   5.186 -2.5341 -0.0367 -1.1366
    1OL    C118 3053  -1.157   2.961   5.064  0.3627  0.3792  0.4372
    1OL    H18R 3054  -1.176   2.855   5.075 -0.1028  0.4279  0.1110
    1OL    H18S 3055  -1.103   2.964   4.969 -0.2249 -0.1711  0.0883
    1OL    H18T 3056  -1.247   3.023   5.072 -0.1689 -0.3356  0.0613
    1PA    C116 3057   4.932   1.210   5.276  0.3509  0.5241 -0.2866
    1PA    H16R 3058   4.828   1.234   5.297 -0.7773 -2.3496 -2.0630
    1PA    H16S 3059   4.948   1.256   5.178 -0.6998  0.6934 -0.3913
    1PA    H16T 3060   4.990   1.253   5.358 -2.4969  0.0621  2.1186
    1PA    C115 3061   4.935   1.053   5.286 -0.5365 -0.1435  0.0190
    1PA    H15R 3062   4.874   1.007   5.208  0.0620 -1.9905  0.5862
    1PA    H15S 3063   5.039   1.034   5.257 -0.6784 -0.9592  0.0167
    1PA    C114 3064   4.910   1.005   5.432  0.4231 -1.3017 -0.1022
    1PA    H14R 3065   4.829   1.063   5.478  0.4005 -0.9397 -0.5836
    1PA    H14S 3066   4.892   0.898   5.439  2.0665 -1.6216 -0.3667
    1PA    C113 3067   5.035   1.040   5.522 -0.1594 -0.3968 -0.1317
    1PA    H13R 3068   5.128   1.006   5.476 -0.0103  0.7132 -0.6735
    1PA    H13S 3069   5.048   1.145   5.546 -1.7877 -0.1369 -0.2633
    1PA    C112 3070   5.012   0.966   5.663 -1.0386 -0.1725 -0.1857
    1PA    H12R 3071   4.954   1.035   5.724  0.9357  1.0974  0.3261
    1PA    H12S 3072   4.946   0.879   5.656 -1.3898  0.0303  0.5495
    1PA    C111 3073   5.136   0.930   5.749  0.2988  0.4146  0.5655
    1PA    H11R 3074   5.183   0.855   5.685  0.5273 -0.5014  1.7683
    1PA    H11S 3075   5.205   1.013   5.765  1.1839  0.2127 -1.7536
    1PA    C110 3076   5.094   0.854   5.879  0.8203 -0.1906 -0.6840
    1PA    H10R 3077   5.054   0.927   5.950 -3.3733 -3.0412  0.2392
    1PA    H10S 3078   5.011   0.793   5.844 -0.7405  2.8212 -2.7563
    1PA     C19 3079   5.201   0.766   5.942 -0.4169  0.0127  0.0578
    1PA     H9R 3080   5.166   0.714   6.031  1.1761  0.2992  0.8841
    1PA     H9S 3081   5.232   0.686   5.874 -2.4776 -1.4927  0.8075
    1PA     C18 3082   5.339   0.827   5.977  0.6896  0.0236  0.4499
    1PA     H8R 3083   5.369   0.882   5.888 -0.1987  1.3083  0.9106
    1PA     H8S 3084   5.324   0.895   6.061 -0.7215  0.5803 -0.2172
    1PA     C17 3085   5.446   0.730   6.024 -0.4618 -0.3144 -0.4719
    1PA     H7R 3086   5.497   0.696   5.933 -0.2802  1.6941 -1.1794
    1PA     H7S 3087   5.518   0.799   6.068  0.7733 -2.0665  0.3382
    1PA     C16 3088   5.403   0.605   6.112  0.4923 -0.6351  0.7700
    1PA     H6R 3089   5.315   0.563   6.064 -0.5793  2.6627 -0.3772
    1PA     H6S 3090   5.489   0.538   6.100  0.6918 -0.1280 -0.8241
    1PA     C15 3091   5.352   0.630   6.258  0.1124  0.2051  0.0917
    1PA     H5R 3092   5.256   0.681   6.243  0.9960  2.1900  0.8519
    1PA     H5S 3093   5.351   0.537   6.313  1.5885 -0.2062 -0.5281
    1PA     C14 3094   5.442   0.728   6.333  0.0875  0.5385  0.2499
    1PA     H4R 3095   5.542   0.688   6.349 -0.6093 -1.1827  0.5049
    1PA     H4S 3096   5.448   0.822   6.277 -2.9049  1.0672  0.6214
    1PA     C13 3097   5.380   0.749   6.478 -0.2279  0.3720 -0.3615
    1PA     H3R 3098   5.375   0.647   6.517  2.8877  0.9453  1.9564
    1PA     H3S 3099   5.455   0.803   6.536  0.0903 -0.2543 -0.1854
    1PA     C12 3100   5.251   0.835   6.477 -0.7124 -0.1262 -0.2164
    1PA     H2R 3101   5.277   0.938   6.449 -1.5273  0.7289  1.9527
    1PA     H2S 3102   5.178   0.796   6.405  0.3635 -0.5927 -1.0686
    1PC     C11 3103   5.178   0.822   6.605 -0.1813  0.1699  0.8809
    1PC     O12 3104   5.226   0.795   6.713  0.2217  0.0154 -0.1962
    1PC     O11 3105   5.052   0.852   6.592  0.3006 -0.5087 -0.0034
    1PC      C1 3106   4.966   0.848   6.712  0.5261 -0.3331 -0.6290
    1PC      HR 3107   4.865   0.883   6.691 -0.0452 -0.8869  1.0334
    1PC      HS 3108   4.968   0.748   6.756 -1.2353 -0.2088 -0.2058
    1PC      C2 3109   5.009   0.953   6.819  0.1549 -0.3811  1.3011
    1PC      HX 3110   5.112   0.949   6.856  0.8573 -1.9462 -0.6379
    1PC      C3 3111   4.923   0.922   6.945  0.6173 -0.0715  0.1157
    1PC      HA 3112   4.961   0.839   7.005 -2.2578 -0.2998  1.7876
    1PC      HB 3113   4.934   1.011   7.009  0.3283 -0.5664  0.8691
    1PC     O31 3114   4.784   0.911   6.915  0.0262  1.0315  0.0707
    1PC     P31 3115   4.676   0.956   7.008  0.0643 -0.4360  0.0582
    1PC     O32 3116   4.661   1.108   6.966 -0.1181  1.0539  0.5856
    1PC     C31 3117   4.616   1.149   6.835 -0.2181 -0.6756  0.0049
    1PC     H1A 3118   4.705   1.188   6.786  1.4198 -1.7703  1.9607
    1PC     H1B 3119   4.572   1.073   6.770 -0.1280 -0.6533 -0.0823
    1PC     C32 3120   4.522   1.259   6.866  0.1492  0.2031  0.5193
    1PC     H2A 3121   4.569   1.324   6.939  1.0751 -0.1692  0.2688
    1PC     H2B 3122   4.509   1.325   6.780 -0.0325  1.4291  1.4650
    1PC     N31 3123   4.389   1.226   6.933 -0.0858 -0.0776 -0.1691
    1PC     C33 3124   4.298   1.142   6.850 -0.4410 -0.3929  0.6154
    1PC     H3A 3125   4.207   1.139   6.910  0.4783 -1.5652  2.0424
    1PC     H3B 3126   4.290   1.189   6.753  1.8016 -1.5934 -0.2413
    1PC     H3C 3127   4.334   1.039   6.840  0.1340 -0.2256  0.8669
    1PC     C34 3128   4.403   1.163   7.072  0.3067 -0.0236  0.5472
    1PC     H4A 3129   4.483   1.218   7.121  1.6236 -0.1660 -1.3375
    1PC     H4B 3130   4.313   1.171   7.133  1.1840 -0.3460  1.9498
    1PC     H4C 3131   4.433   1.059   7.055  1.5197  0.0794  1.8376
    1PC     C35 3132   4.319   1.351   6.965  0.0422  0.2804 -0.6221
    1PC     H5A 3133   4.299   1.397   6.868  0.7171 -0.2615 -1.0241
    1PC     H5B 3134   4.380   1.423   7.020  3.1218 -1.5608 -1.4113
    1PC     H5C 3135   4.222   1.327   7.009 -0.4938  2.5281 -0.4724
    1PC     O33 3136   4.548   0.889   6.976  0.3274 -0.5410  0.3957
    1PC     O34 3137   4.733   0.949   7.145 -0.1042 -0.2278  0.5832
    1PC     O21 3138   4.975   1.089   6.769 -0.5979 -0.3731 -0.5540
    1PC     C21 3139   5.076   1.182   6.769 -0.2235 -0.4671  0.2507
    1PC     O22 3140   5.185   1.164   6.819  0.2920  0.6049  0.1285
    1OL     C12 3141   5.029   1.307   6.703  0.0582 -0.6938 -0.7965
    1OL     H2R 3142   5.023   1.387   6.777  0.2191  0.1388 -1.6683
    1OL     H2S 3143   4.926   1.292   6.670 -0.2422 -1.2556  0.3332
    1OL     C13 3144   5.130   1.336   6.597  0.0468 -0.3565  0.1422
    1OL     H3R 3145   5.229   1.339   6.643 -0.3739  0.8148  1.0173
    1OL     H3S 3146   5.120   1.437   6.556  0.4003 -0.4805 -0.2557
    1OL     C14 3147   5.125   1.241   6.471  0.3155 -0.2424  0.2344
    1OL     H4R 3148   5.022   1.219   6.442  0.3669 -1.5235  0.9648
    1OL     H4S 3149   5.158   1.148   6.516  0.1553  0.4192  1.7980
    1OL     C15 3150   5.207   1.276   6.350 -0.3832 -0.5324 -0.3717
    1OL     H5R 3151   5.311   1.287   6.380 -0.3619 -0.4401 -0.4789
    1OL     H5S 3152   5.170   1.374   6.317 -0.1920 -0.7832 -1.3417
    1OL     C16 3153   5.182   1.180   6.233  0.2773 -0.2339  0.3216
    1OL     H6R 3154   5.074   1.173   6.220  0.4166 -1.0110 -0.5421
    1OL     H6S 3155   5.205   1.076   6.260  1.3347 -0.3401 -0.9093
    1OL     C17 3156   5.244   1.218   6.105  0.0507 -0.9772 -0.3011
    1OL     H7R 3157   5.250   1.131   6.039 -1.9859 -1.1815 -0.2771
    1OL     H7S 3158   5.347   1.239   6.135 -0.2424  0.3347 -0.1718
    1OL     C18 3159   5.176   1.337   6.031 -0.0561  0.0510 -1.1913
    1OL     H8R 3160   5.245   1.391   5.966 -0.9097 -2.3263 -4.2624
    1OL     H8S 3161   5.138   1.402   6.111  1.0938 -0.0208 -0.5692
    1OL     C19 3162   5.062   1.272   5.953 -0.3578 -0.0737  0.3574
    1OL     H9R 3163   5.023   1.177   5.991 -0.6964 -0.0003  0.1981
    1OL    C110 3164   5.000   1.332   5.845 -0.3893  1.5734  0.1901
    1OL    H10R 3165   4.926   1.272   5.791  2.0553  1.1239 -2.9976
    1OL    C111 3166   5.036   1.465   5.784  0.3106 -0.1890 -0.1390
    1OL    H11R 3167   5.130   1.492   5.833  0.1974  0.6103 -0.3415
    1OL    H11S 3168   4.967   1.547   5.806  1.4535  0.7755 -0.0002
    1OL    C112 3169   5.052   1.478   5.635  0.3264  0.3619  0.3747
    1OL    H12R 3170   4.966   1.432   5.587  0.1120  0.8095  0.3228
    1OL    H12S 3171   5.145   1.426   5.612  0.2565 -1.1188  3.0239
    1OL    C113 3172   5.052   1.629   5.583  0.0210  0.7406  0.4699
    1OL    H13R 3173   5.135   1.684   5.627  1.6825 -0.8770 -0.4992
    1OL    H13S 3174   4.959   1.684   5.603 -1.1876 -1.2660  0.6199
    1OL    C114 3175   5.084   1.640   5.430  0.3994  0.7910 -0.6088
    1OL    H14R 3176   5.004   1.602   5.367  1.5445 -1.7536 -0.6551
    1OL    H14S 3177   5.170   1.577   5.404 -1.1800 -0.5346 -2.9530
    1OL    C115 3178   5.121   1.787   5.401 -0.1226  0.0190 -0.5448
    1OL    H15R 3179   5.214   1.807   5.453  0.0319 -0.2658 -0.7086
    1OL    H15S 3180   5.043   1.855   5.435  1.3684  1.4406  0.1396
    1OL    C116 3181   5.147   1.806   5.248 -0.2829 -0.1357 -0.1988
    1OL    H16R 3182   5.212   1.723   5.220  1.4527  1.8358 -2.4678
    1OL    H16S 3183   5.204   1.899   5.239  0.7494 -0.5698  1.5655
    1OL    C117 3184   5.020   1.797   5.151 -0.3857  0.1330  0.5575
    1OL    H17R 3185   4.957   1.882   5.180  2.0213  1.7943  1.1745
    1OL    H17S 3186   4.959   1.708   5.168 -3.4818  1.6762 -1.4765
    1OL    C118 3187   5.071   1.819   5.008  0.3761  0.0970  0.1446
    1OL    H18R 3188   5.139   1.739   4.978  0.3373 -0.0904  0.5389
    1OL    H18S 3189   5.131   1.909   4.997  2.0865 -1.0322 -0.1748
    1OL    H18T 3190   4.986   1.832   4.941  2.6740  0.3453 -2.9096
    1PA    C116 3191   3.848   1.307   5.476 -0.4451 -0.9827  0.3733
    1PA    H16R 3192   3.765   1.323   5.545  0.8122 -0.6486  1.8525
    1PA    H16S 3193   3.835   1.206   5.436  0.2638 -0.7607 -0.4594
    1PA    H16T 3194   3.845   1.373   5.389  2.8080 -0.6742  0.4067
    1PA    C115 3195   3.983   1.321   5.549  0.0257  0.4371 -0.2675
    1PA    H15R 3196   3.995   1.420   5.593  0.5251 -0.1362  0.9571
    1PA    H15S 3197   3.989   1.238   5.621 -1.6243 -0.5688 -1.2440
    1PA    C114 3198   4.102   1.308   5.453  1.0960  0.0508  0.3440
    1PA    H14R 3199   4.093   1.222   5.388  0.1699  1.5829 -1.6589
    1PA    H14S 3200   4.107   1.397   5.389 -1.0906 -0.6419 -0.8813
    1PA    C113 3201   4.237   1.297   5.526 -0.1667 -0.3391 -0.0349
    1PA    H13R 3202   4.253   1.364   5.611 -0.1305  0.6502 -0.7962
    1PA    H13S 3203   4.242   1.199   5.574  0.5259 -0.0799  0.4455
    1PA    C112 3204   4.349   1.307   5.423 -0.1303 -0.2260  0.4911
    1PA    H12R 3205   4.330   1.360   5.329  1.3716  0.9486  0.7999
    1PA    H12S 3206   4.421   1.375   5.469 -1.1294  1.0292  0.2692
    1PA    C111 3207   4.415   1.171   5.394 -0.2040 -0.5754  0.0472
    1PA    H11R 3208   4.346   1.099   5.350 -1.6223  0.3442  0.6999
    1PA    H11S 3209   4.488   1.190   5.315  1.8048 -0.4589  1.8539
    1PA    C110 3210   4.483   1.093   5.510  0.4803  0.7874  1.1081
    1PA    H10R 3211   4.407   1.042   5.570  1.5866 -0.2162  1.7070
    1PA    H10S 3212   4.539   1.014   5.460  0.9193  3.1771 -2.5486
    1PA     C19 3213   4.580   1.170   5.609  0.0317  0.1940 -0.1701
    1PA     H9R 3214   4.665   1.209   5.552  0.3472 -0.2832 -0.0306
    1PA     H9S 3215   4.527   1.249   5.663  1.5024 -1.1342  3.5267
    1PA     C18 3216   4.646   1.082   5.716  0.2647  0.6766 -0.2065
    1PA     H8R 3217   4.677   0.993   5.661 -1.9673  0.3805 -1.0797
    1PA     H8S 3218   4.730   1.140   5.757  0.5265 -1.1463  2.0426
    1PA     C17 3219   4.557   1.042   5.833 -0.2196 -0.3279  0.2755
    1PA     H7R 3220   4.497   1.125   5.871 -0.1210 -0.2117  0.1776
    1PA     H7S 3221   4.471   0.980   5.805 -1.0870  0.2184  1.6068
    1PA     C16 3222   4.628   0.975   5.952 -0.4904 -0.2646 -0.7723
    1PA     H6R 3223   4.558   0.901   5.991  1.6656 -1.4695  1.0855
    1PA     H6S 3224   4.709   0.909   5.918 -2.0028 -1.5411 -2.0456
    1PA     C15 3225   4.701   1.069   6.052 -0.0598 -0.3276  0.3967
    1PA     H5R 3226   4.766   1.138   5.999 -0.1380 -1.2449 -0.9521
    1PA     H5S 3227   4.621   1.120   6.106  0.9847  1.2510  0.4885
    1PA     C14 3228   4.800   1.000   6.154  0.4156  0.8086 -0.0885
    1PA     H4R 3229   4.873   0.932   6.109 -0.3688 -1.1255  1.4225
    1PA     H4S 3230   4.843   1.086   6.206 -1.5356  1.6462  0.2422
    1PA     C13 3231   4.739   0.918   6.268 -0.1461 -0.1223  0.0396
    1PA     H3R 3232   4.719   0.815   6.238 -1.5195 -0.1398  0.9580
    1PA     H3S 3233   4.817   0.907   6.344  0.6205 -2.7456 -1.0144
    1PA     C12 3234   4.607   0.965   6.331  0.0151 -0.8668  0.1552
    1PA     H2R 3235   4.633   1.064   6.368 -0.4221 -0.2199 -1.2095
    1PA     H2S 3236   4.534   0.982   6.251 -0.9790 -0.0932  1.1871
    1PC     C11 3237   4.547   0.887   6.437 -1.3683  0.7675 -0.3582
    1PC     O12 3238   4.591   0.881   6.554 -0.4974  0.8909 -0.1002
    1PC     O11 3239   4.442   0.815   6.394 -0.9925  0.0594 -0.2195
    1PC      C1 3240   4.357   0.732   6.485  0.3712 -0.1148 -0.2235
    1PC      HR 3241   4.290   0.671   6.423  0.4537 -1.5883  1.0874
    1PC      HS 3242   4.423   0.668   6.545 -0.2596 -1.5459 -1.0055
    1PC      C2 3243   4.283   0.833   6.577  0.4418 -0.4500 -0.1879
    1PC      HX 3244   4.347   0.918   6.601  0.0344  0.9704 -3.5950
    1PC      C3 3245   4.229   0.764   6.708 -0.1216  0.0378 -0.8363
    1PC      HA 3246   4.312   0.725   6.767 -0.7705  2.2067  1.7105
    1PC      HB 3247   4.166   0.840   6.756 -2.1407 -1.0309 -1.6717
    1PC     O31 3248   4.154   0.649   6.664  0.0034  0.0860  0.2626
    1PC     P31 3249   4.085   0.546   6.759  0.4536  0.0918  0.3844
    1PC     O32 3250   4.210   0.465   6.819 -0.1039  0.1575 -0.0534
    1PC     C31 3251   4.301   0.405   6.726 -0.4661  0.5845 -0.9568
    1PC     H1A 3252   4.262   0.404   6.624  0.1313 -0.1595 -1.1872
    1PC     H1B 3253   4.384   0.476   6.718 -0.0662  0.0758 -1.3162
    1PC     C32 3254   4.337   0.260   6.766 -0.0793 -0.7239  0.5638
    1PC     H2A 3255   4.408   0.225   6.690  0.3245  2.5537 -0.7329
    1PC     H2B 3256   4.367   0.247   6.871 -1.6328 -1.5640  0.9332
    1PC     N31 3257   4.224   0.160   6.768  0.4352  0.5876  0.0169
    1PC     C33 3258   4.134   0.179   6.890  0.4930 -0.5555 -0.4141
    1PC     H3A 3259   4.045   0.116   6.886  0.9861 -1.3315  0.4227
    1PC     H3B 3260   4.181   0.146   6.983 -0.9372 -1.3736  0.0618
    1PC     H3C 3261   4.107   0.284   6.889  1.4081 -0.3140 -0.5156
    1PC     C34 3262   4.156   0.165   6.630  0.0168 -0.3268  0.2763
    1PC     H4A 3263   4.233   0.130   6.561  0.3710  0.1652  0.4167
    1PC     H4B 3264   4.073   0.095   6.647  0.2728 -0.4598  1.0128
    1PC     H4C 3265   4.127   0.268   6.608  1.3195 -0.2812 -1.3444
    1PC     C35 3266   4.278   0.023   6.779 -0.1685 -0.2304 -0.0055
    1PC     H5A 3267   4.360   0.006   6.708 -1.2525 -1.7360 -0.9700
    1PC     H5B 3268   4.190  -0.037   6.757 -3.1903  3.0502  2.1227
    1PC     H5C 3269   4.317   0.004   6.879  0.2372  1.1842  0.1244
    1PC     O33 3270   4.020   0.618   6.869  0.2809 -0.4025 -0.1707
    1PC     O34 3271   4.007   0.457   6.672  0.3587  0.4282 -0.6901
    1PC     O21 3272   4.166   0.892   6.515  0.3272 -0.1851 -0.5919
    1PC     C21 3273   4.186   0.999   6.432  0.5134 -0.6458 -0.4662
    1PC     O22 3274   4.287   1.067   6.429 -0.0506  0.6503  0.2644
    1OL     C12 3275   4.059   1.032   6.352 -0.3297 -0.3253 -1.1469
    1OL     H2R 3276   4.009   1.122   6.386 -0.0476 -0.2029 -1.0499
    1OL     H2S 3277   3.990   0.950   6.368 -2.1363  1.4768  0.8418
    1OL     C13 3278   4.094   1.055   6.204 -0.0771  0.3732  0.4675
    1OL     H3R 3279   4.163   0.975   6.176  0.0835  0.5609  0.3250
    1OL     H3S 3280   4.145   1.149   6.183  0.3435  0.2483  0.9265
    1OL     C14 3281   3.968   1.045   6.117 -0.8558 -0.3400 -0.3053
    1OL     H4R 3282   3.891   1.104   6.168  1.0599  0.3231  2.0285
    1OL     H4S 3283   3.941   0.940   6.127  2.0567 -1.1704 -0.5602
    1OL     C15 3284   3.982   1.079   5.966 -0.3530 -0.2360 -0.2633
    1OL     H5R 3285   3.980   1.188   5.959 -2.8649 -0.3094 -1.5215
    1OL     H5S 3286   3.893   1.052   5.909 -0.1110  0.3178 -0.9245
    1OL     C16 3287   4.112   1.015   5.909  0.5590 -0.1181  0.0235
    1OL     H6R 3288   4.122   0.914   5.950  1.0931  0.5633  1.6605
    1OL     H6S 3289   4.198   1.065   5.954  0.7340 -1.2609  1.0265
    1OL     C17 3290   4.122   1.020   5.757 -0.6691 -0.6865 -0.3647
    1OL     H7R 3291   4.221   0.982   5.728  0.0618  1.6074 -1.0969
    1OL     H7S 3292   4.116   1.122   5.720  2.4663 -0.2710 -0.0101
    1OL     C18 3293   4.009   0.940   5.697 -0.7943  0.6891  0.4353
    1OL     H8R 3294   3.916   0.986   5.729 -0.2622  1.6711  0.5964
    1OL     H8S 3295   4.018   0.838   5.737  0.4174  0.8381  0.5871
    1OL     C19 3296   4.041   0.933   5.542 -0.1850  0.6286  0.1756
    1OL     H9R 3297   3.986   0.997   5.474 -1.1708 -0.5437 -0.1611
    1OL    C110 3298   4.131   0.846   5.488 -0.6525  0.1922  0.1217
    1OL    H10R 3299   4.148   0.848   5.381  0.4182  0.5792  0.2861
    1OL    C111 3300   4.208   0.737   5.557  0.0145  0.8499  0.2891
    1OL    H11R 3301   4.180   0.643   5.510  1.1617  0.2492  0.7728
    1OL    H11S 3302   4.187   0.730   5.664  2.6145  1.2970  0.8882
    1OL    C112 3303   4.358   0.765   5.560  0.1168  0.4863  0.7578
    1OL    H12R 3304   4.383   0.838   5.637 -1.2613  1.3110  0.4704
    1OL    H12S 3305   4.407   0.789   5.466  1.8679 -1.3845  1.1344
    1OL    C113 3306   4.423   0.629   5.602 -0.3786 -0.2326 -0.0537
    1OL    H13R 3307   4.399   0.554   5.526 -0.9151  1.1909 -1.3548
    1OL    H13S 3308   4.379   0.602   5.699 -0.3861 -1.0347 -0.2731
    1OL    C114 3309   4.576   0.633   5.627  0.6169  0.0254 -0.0971
    1OL    H14R 3310   4.604   0.533   5.663  0.8434 -0.9392 -2.6607
    1OL    H14S 3311   4.592   0.697   5.713 -0.3868 -1.3973  1.2009
    1OL    C115 3312   4.664   0.673   5.511 -0.3624  0.4384  0.1322
    1OL    H15R 3313   4.762   0.657   5.556 -0.7277  1.0950  1.2189
    1OL    H15S 3314   4.648   0.775   5.475 -1.1321 -0.0935 -1.0862
    1OL    C116 3315   4.634   0.569   5.396  0.0737  0.7628  0.0297
    1OL    H16R 3316   4.535   0.584   5.353 -0.4721  0.5225  1.1466
    1OL    H16S 3317   4.644   0.471   5.443 -0.1540  1.3446  1.3536
    1OL    C117 3318   4.731   0.577   5.279 -0.2489 -0.1793  0.6936
    1OL    H17R 3319   4.742   0.678   5.239  0.4752 -0.6808 -0.4570
    1OL    H17S 3320   4.700   0.510   5.198 -0.6617 -1.4858  1.8957
    1OL    C118 3321   4.883   0.559   5.317  0.0220 -0.2524  0.1288
    1OL    H18R 3322   4.941   0.570   5.225 -1.6275  2.0512 -0.7595
    1OL    H18S 3323   4.896   0.461   5.363 -1.6840 -1.1413 -1.1401
    1OL    H18T 3324   4.914   0.641   5.382  0.1904  1.0237 -1.4741
    1PA    C116 3325   4.283   3.923   5.168  0.4856 -0.4214  0.5190
    1PA    H16R 3326   4.302   3.948   5.063  1.4338 -0.7523  0.6086
    1PA    H16S 3327   4.241   4.012   5.216 -1.0893 -0.1563 -1.2402
    1PA    H16T 3328   4.209   3.844   5.161 -0.9014  0.8782 -0.1610
    1PA    C115 3329   4.409   3.876   5.242  0.1793  0.1729 -0.7268
    1PA    H15R 3330   4.423   3.769   5.224 -2.2429 -0.2421 -0.4234
    1PA    H15S 3331   4.498   3.934   5.216  0.7954 -0.5111 -0.1895
    1PA    C114 3332   4.392   3.892   5.401 -0.1680 -0.1482  0.2122
    1PA    H14R 3333   4.373   3.997   5.424 -0.8496 -0.5249  1.4550
    1PA    H14S 3334   4.308   3.831   5.433 -1.5861  1.8577  0.4854
    1PA    C113 3335   4.532   3.847   5.459 -0.4255 -0.3926 -0.4720
    1PA    H13R 3336   4.563   3.744   5.443  1.0564  0.0757 -0.7903
    1PA    H13S 3337   4.610   3.912   5.418 -0.1291 -0.4149  0.0476
    1PA    C112 3338   4.531   3.863   5.612  0.2465  0.2947  0.3521
    1PA    H12R 3339   4.524   3.971   5.623  1.8900  0.5138 -0.3540
    1PA    H12S 3340   4.450   3.805   5.656 -0.6042  0.7075 -0.6200
    1PA    C111 3341   4.662   3.827   5.684  0.5820 -0.4591 -0.4096
    1PA    H11R 3342   4.683   3.720   5.682 -0.3957 -0.7342  1.4356
    1PA    H11S 3343   4.743   3.885   5.640  0.2124  1.1477  0.9361
    1PA    C110 3344   4.652   3.859   5.835 -0.3976 -0.1066  0.2023
    1PA    H10R 3345   4.641   3.967   5.847  0.4892  0.2873 -2.0227
    1PA    H10S 3346   4.566   3.809   5.880  0.0979 -0.0268  1.2507
    1PA     C19 3347   4.775   3.809   5.914 -1.0490  0.3518  0.8188
    1PA     H9R 3348   4.796   3.703   5.899 -2.4348  0.3766 -2.0834
    1PA     H9S 3349   4.864   3.855   5.869  0.5642 -3.7045 -0.5969
    1PA     C18 3350   4.761   3.827   6.068  0.6915  0.7169 -0.4773
    1PA     H8R 3351   4.685   3.757   6.105  2.2176  0.2111  1.8862
    1PA     H8S 3352   4.853   3.795   6.116 -0.5409 -1.9858  0.2953
    1PA     C17 3353   4.723   3.970   6.109 -0.1259 -0.0502  0.1121
    1PA     H7R 3354   4.775   4.043   6.046 -2.2374  0.9995 -0.5268
    1PA     H7S 3355   4.615   3.982   6.095 -0.0800 -1.2014 -1.4330
    1PA     C16 3356   4.753   3.998   6.253 -0.0708 -0.5825  0.2188
    1PA     H6R 3357   4.853   3.965   6.284  1.6057  2.6818 -1.2564
    1PA     H6S 3358   4.735   4.103   6.279 -2.2120 -0.4354 -1.5655
    1PA     C15 3359   4.669   3.918   6.355 -0.1273 -0.2121 -0.0418
    1PA     H5R 3360   4.570   3.900   6.311  0.2666 -1.7356 -0.3747
    1PA     H5S 3361   4.719   3.821   6.362 -2.3286 -1.3708  0.7946
    1PA     C14 3362   4.660   3.978   6.494  0.5604  0.8955  0.0611
    1PA     H4R 3363   4.758   4.021   6.517  0.6614  1.0279 -0.6145
    1PA     H4S 3364   4.588   4.060   6.509 -0.0782  0.1092  1.5623
    1PA     C13 3365   4.634   3.878   6.602  0.6183 -0.0183 -0.0016
    1PA     H3R 3366   4.534   3.834   6.596 -0.0174  1.1672  1.3542
    1PA     H3S 3367   4.702   3.798   6.572  1.3226  0.7599 -0.4875
    1PA     C12 3368   4.663   3.926   6.751 -0.6616 -0.1483  0.1683
    1PA     H2R 3369   4.664   3.842   6.821 -1.2952 -0.7086 -0.4882
    1PA     H2S 3370   4.763   3.969   6.752 -0.7347  0.0411 -0.2514
    1PC     C11 3371   4.575   4.024   6.810 -0.3653 -0.3153 -0.1174
    1PC     O12 3372   4.465   3.992   6.839 -0.0006 -0.2715  0.1947
    1PC     O11 3373   4.625   4.142   6.839 -0.5254 -0.8255  0.0215
    1PC      C1 3374   4.547   4.246   6.909  0.2249  0.3933  0.4197
    1PC      HR 3375   4.455   4.246   6.849  1.3763 -0.6253 -1.4594
    1PC      HS 3376   4.524   4.214   7.011 -2.2256  2.0269  0.4512
    1PC      C2 3377   4.622   4.384   6.913  0.9306 -0.4121 -0.1370
    1PC      HX 3378   4.719   4.355   6.955  0.4220 -0.5414  0.9828
    1PC      C3 3379   4.559   4.481   7.010 -0.0151  0.0754 -0.3690
    1PC      HA 3380   4.544   4.579   6.965  0.2471  0.4337  0.3132
    1PC      HB 3381   4.466   4.438   7.047  1.0574 -0.5081  1.8333
    1PC     O31 3382   4.650   4.508   7.122  0.6714 -0.2058  0.3476
    1PC     P31 3383   4.675   4.410   7.243 -0.3184  0.0586  1.0428
    1PC     O32 3384   4.781   4.298   7.194 -0.0943 -0.0227  0.0557
    1PC     C31 3385   4.924   4.304   7.220 -0.3416  0.6617  0.0961
    1PC     H1A 3386   4.949   4.209   7.171 -0.3605  0.1554  1.0586
    1PC     H1B 3387   4.970   4.389   7.168  1.5622 -0.3084  0.1061
    1PC     C32 3388   4.958   4.301   7.372 -0.2893  0.5905 -0.4556
    1PC     H2A 3389   5.067   4.303   7.382 -0.3190  1.2794 -0.2641
    1PC     H2B 3390   4.928   4.399   7.407 -0.6476  0.3496 -0.0779
    1PC     N31 3391   4.916   4.177   7.458 -1.0163 -0.1422  0.4859
    1PC     C33 3392   4.990   4.188   7.588 -0.8342 -0.2065  0.8303
    1PC     H3A 3393   5.097   4.197   7.567 -0.8741 -1.6526 -0.1369
    1PC     H3B 3394   4.962   4.278   7.642  0.5561  0.4941  0.4535
    1PC     H3C 3395   4.983   4.099   7.650 -0.2301 -2.5796 -2.2755
    1PC     C34 3396   4.773   4.199   7.479 -0.1738  0.2912  0.3764
    1PC     H4A 3397   4.729   4.160   7.388 -0.2072  2.7864 -0.7585
    1PC     H4B 3398   4.739   4.135   7.561 -0.5355  0.2050  0.1621
    1PC     H4C 3399   4.746   4.303   7.497 -1.6325  0.1059 -0.5655
    1PC     C35 3400   4.952   4.048   7.383 -0.4691 -0.6717 -0.7742
    1PC     H5A 3401   4.950   3.967   7.456  1.0808 -0.4938 -0.4827
    1PC     H5B 3402   5.053   4.055   7.342 -0.3127  0.4974 -0.2465
    1PC     H5C 3403   4.885   4.043   7.297 -1.7797  1.1953  0.0674
    1PC     O33 3404   4.736   4.478   7.358 -0.2135  0.0842 -0.1789
    1PC     O34 3405   4.542   4.352   7.267 -0.3537  0.1973  0.6064
    1PC     O21 3406   4.634   4.455   6.783 -0.0803  0.0532 -0.9043
    1PC     C21 3407   4.743   4.425   6.709 -0.0507  0.4231 -0.8576
    1PC     O22 3408   4.841   4.371   6.757 -0.6175  0.2623 -0.1504
    1OL     C12 3409   4.713   4.461   6.560  0.5331 -0.6515 -0.5177
    1OL     H2R 3410   4.702   4.570   6.555  2.7487 -0.3154  0.4929
    1OL     H2S 3411   4.620   4.417   6.524 -0.1982  1.3522 -1.2435
    1OL     C13 3412   4.825   4.407   6.465 -0.4828  0.3060  0.2967
    1OL     H3R 3413   4.856   4.305   6.492 -1.1924  0.0393  0.1249
    1OL     H3S 3414   4.917   4.465   6.480  0.9152 -1.4214 -1.1681
    1OL     C14 3415   4.777   4.408   6.315 -0.0924  0.3036 -0.4258
    1OL     H4R 3416   4.750   4.510   6.290 -1.0558  0.0222 -0.5505
    1OL     H4S 3417   4.683   4.354   6.306  0.5398 -0.8056 -0.5930
    1OL     C15 3418   4.889   4.350   6.221  1.0260 -0.1505 -0.3179
    1OL     H5R 3419   4.910   4.243   6.230 -1.1208 -0.4381  2.7681
    1OL     H5S 3420   4.976   4.415   6.228  0.7669  0.2052 -0.4066
    1OL     C16 3421   4.833   4.362   6.075 -0.7168  0.7854  0.3825
    1OL     H6R 3422   4.838   4.468   6.052 -0.1507  0.7403  0.2816
    1OL     H6S 3423   4.733   4.318   6.082 -0.2205 -0.7728 -1.3449
    1OL     C17 3424   4.926   4.284   5.971  0.9220  0.2675 -0.1675
    1OL     H7R 3425   4.873   4.280   5.875  3.5332  1.1359 -1.7586
    1OL     H7S 3426   4.955   4.182   5.994  4.4693  0.5862 -2.5045
    1OL     C18 3427   5.048   4.372   5.938 -0.1140 -0.5486  0.0194
    1OL     H8R 3428   5.110   4.396   6.025 -1.1791  3.0278 -0.0482
    1OL     H8S 3429   5.019   4.470   5.900  0.4737 -0.8486 -1.2528
    1OL     C19 3430   5.142   4.299   5.841  0.1218  0.3302  0.5408
    1OL     H9R 3431   5.166   4.194   5.859  0.2047  0.2627  0.0534
    1OL    C110 3432   5.202   4.355   5.734 -0.0638  0.5750  0.3199
    1OL    H10R 3433   5.266   4.295   5.670  1.9911  2.6375  0.3531
    1OL    C111 3434   5.184   4.501   5.697 -0.3698  0.0435 -0.1921
    1OL    H11R 3435   5.193   4.559   5.789 -0.5954 -1.3637  0.7394
    1OL    H11S 3436   5.083   4.522   5.661  0.4024  0.1638 -2.4661
    1OL    C112 3437   5.285   4.560   5.594  0.0380  0.4549 -0.3682
    1OL    H12R 3438   5.287   4.504   5.500 -1.3559  1.2683 -0.9058
    1OL    H12S 3439   5.387   4.554   5.633 -0.6099 -0.3922  1.3296
    1OL    C113 3440   5.264   4.703   5.560  0.7241 -0.3110 -0.2988
    1OL    H13R 3441   5.346   4.758   5.514 -0.0701  1.1614  0.0097
    1OL    H13S 3442   5.254   4.759   5.653 -2.0939  0.9555 -1.2465
    1OL    C114 3443   5.147   4.718   5.473 -0.0206  0.3869 -0.1600
    1OL    H14R 3444   5.056   4.673   5.514  0.0374 -0.7204 -1.1914
    1OL    H14S 3445   5.163   4.661   5.381  1.8432  2.1653 -1.0286
    1OL    C115 3446   5.105   4.861   5.436  0.7046 -0.3356  0.0042
    1OL    H15R 3447   5.190   4.915   5.394  1.4699 -0.0409  1.8511
    1OL    H15S 3448   5.089   4.919   5.527  0.5890  2.8731 -1.9216
    1OL    C116 3449   4.980   4.859   5.345 -0.4390  0.2408  0.5632
    1OL    H16R 3450   4.904   4.788   5.379 -1.3104  1.0831  0.4439
    1OL    H16S 3451   5.017   4.832   5.246  2.0292  2.1601  0.8773
    1OL    C117 3452   4.918   4.999   5.354  0.1487  0.0807 -0.1013
    1OL    H17R 3453   4.857   5.014   5.265  1.3909 -4.9304 -2.1254
    1OL    H17S 3454   4.997   5.075   5.353  0.9408 -0.7247 -0.1100
    1OL    C118 3455   4.841   5.023   5.484 -0.3076 -1.0870 -0.2172
    1OL    H18R 3456   4.914   5.000   5.562  0.3545  1.6585  0.0830
    1OL    H18S 3457   4.746   4.970   5.481  0.2642 -2.1391 -0.2354
    1OL    H18T 3458   4.829   5.131   5.494 -1.2881 -1.0134 -1.8278
    1PA    C116 3459   2.587   4.924   4.804 -0.3152  0.1389  0.1722
    1PA    H16R 3460   2.517   5.006   4.824 -0.1774 -0.0902  1.7378
    1PA    H16S 3461   2.548   4.857   4.727  0.9968 -0.4840  0.0132
    1PA    H16T 3462   2.666   4.979   4.751 -0.3912  0.3148  0.2391
    1PA    C115 3463   2.651   4.862   4.932 -0.7018 -0.2585 -0.1685
    1PA    H15R 3464   2.581   4.788   4.970  0.5128 -2.1840 -1.4859
    1PA    H15S 3465   2.744   4.813   4.901 -0.7075 -0.2027 -0.2769
    1PA    C114 3466   2.680   4.974   5.036  0.4127 -0.6824 -0.3148
    1PA    H14R 3467   2.782   5.004   5.010 -0.3093  0.4744 -1.9870
    1PA    H14S 3468   2.615   5.061   5.038  1.5853  0.2133  0.5190
    1PA    C113 3469   2.688   4.907   5.177 -0.0644  0.4127  1.0670
    1PA    H13R 3470   2.597   4.849   5.195 -1.0326  0.7433 -2.2485
    1PA    H13S 3471   2.779   4.846   5.182  0.7501  1.3365 -1.1750
    1PA    C112 3472   2.707   5.002   5.290  0.6997 -0.1468 -0.5056
    1PA    H12R 3473   2.814   5.019   5.283  0.7697 -0.6631 -0.7158
    1PA    H12S 3474   2.643   5.088   5.267  1.8215  0.9135  0.2063
    1PA    C111 3475   2.670   4.953   5.434 -0.0827  0.1365  0.5299
    1PA    H11R 3476   2.562   4.938   5.440  0.1964 -1.6578  2.0955
    1PA    H11S 3477   2.722   4.859   5.451  1.1747  0.5828 -0.6273
    1PA    C110 3478   2.711   5.048   5.550 -0.2349 -0.3150 -0.3886
    1PA    H10R 3479   2.815   5.079   5.538 -0.6409  1.9542  1.1648
    1PA    H10S 3480   2.649   5.138   5.552  1.0201  0.5849 -0.7458
    1PA     C19 3481   2.706   4.963   5.678  0.2960  0.3299 -0.5375
    1PA     H9R 3482   2.607   4.927   5.708  0.9576 -1.3671 -0.2824
    1PA     H9S 3483   2.761   4.871   5.659 -0.2666  0.1397 -1.3087
    1PA     C18 3484   2.774   5.043   5.791  0.2302  0.2986 -0.5841
    1PA     H8R 3485   2.860   5.095   5.749  0.8595 -1.3514 -1.3957
    1PA     H8S 3486   2.704   5.117   5.832  2.2299  0.6996  2.4256
    1PA     C17 3487   2.817   4.960   5.921  0.2417  0.1432 -0.1952
    1PA     H7R 3488   2.744   4.879   5.927  1.0442 -0.5719  0.0326
    1PA     H7S 3489   2.916   4.918   5.902 -0.0599 -0.3105 -0.7890
    1PA     C16 3490   2.833   5.035   6.061  0.8843  0.3729 -0.6026
    1PA     H6R 3491   2.916   5.106   6.051  0.2250  1.2594 -0.0211
    1PA     H6S 3492   2.749   5.102   6.082  0.0168 -0.9292  0.2128
    1PA     C15 3493   2.853   4.945   6.189  0.6091 -0.6582 -0.2661
    1PA     H5R 3494   2.818   5.006   6.273  3.0153  1.2936 -0.5821
    1PA     H5S 3495   2.798   4.852   6.179 -0.1449 -0.3637  0.9341
    1PA     C14 3496   3.001   4.916   6.217  0.2707 -0.0520 -0.7811
    1PA     H4R 3497   3.046   4.856   6.138  2.4068  0.3359  0.0693
    1PA     H4S 3498   3.056   5.010   6.221 -0.5790  0.5784 -2.8226
    1PA     C13 3499   3.006   4.853   6.359  0.2169 -0.1552 -0.1353
    1PA     H3R 3500   2.976   4.928   6.433  2.4491 -0.1278  0.8235
    1PA     H3S 3501   2.937   4.770   6.376 -2.0259  1.7491  0.5588
    1PA     C12 3502   3.149   4.813   6.397  0.3092  0.2661  0.5559
    1PA     H2R 3503   3.194   4.740   6.329  0.0684  1.2311 -0.6864
    1PA     H2S 3504   3.212   4.902   6.393 -0.3487  0.6961 -1.1779
    1PC     C11 3505   3.161   4.751   6.530  0.0940  0.6186  0.2092
    1PC     O12 3506   3.255   4.679   6.562 -0.6980 -0.2053  0.2006
    1PC     O11 3507   3.063   4.785   6.611 -0.6940  0.0252 -0.0803
    1PC      C1 3508   3.079   4.744   6.748  0.0243 -0.1386  0.1329
    1PC      HR 3509   2.980   4.734   6.792 -0.1038 -0.6952 -0.2778
    1PC      HS 3510   3.125   4.645   6.750 -0.6217 -0.4620 -0.6807
    1PC      C2 3511   3.165   4.850   6.830 -0.3858  0.3481  0.0831
    1PC      HX 3512   3.270   4.849   6.800 -0.7103  0.2713 -1.1221
    1PC      C3 3513   3.168   4.809   6.983  0.7324  0.1321 -0.2958
    1PC      HA 3514   3.245   4.733   6.999  0.1428 -0.0789  1.8956
    1PC      HB 3515   3.201   4.879   7.061 -1.5125  0.1476  0.7276
    1PC     O31 3516   3.045   4.751   7.019  0.3504 -0.1219 -0.0651
    1PC     P31 3517   2.918   4.826   7.082  0.3243 -0.1326  0.0020
    1PC     O32 3518   2.828   4.848   6.958  0.5053 -0.6846  0.4054
    1PC     C31 3519   2.719   4.762   6.924  0.2287 -0.4326  0.7745
    1PC     H1A 3520   2.757   4.671   6.876 -1.3230 -0.6569 -0.0951
    1PC     H1B 3521   2.668   4.725   7.013 -2.4055 -0.4344 -0.6052
    1PC     C32 3522   2.622   4.847   6.851 -0.5163  0.2732  0.0118
    1PC     H2A 3523   2.519   4.812   6.860 -1.0549  0.6878 -3.2309
    1PC     H2B 3524   2.624   4.946   6.898  2.7814  0.0598  0.5612
    1PC     N31 3525   2.641   4.873   6.702  0.8361  0.4416 -0.1604
    1PC     C33 3526   2.524   4.960   6.652 -0.6287 -0.6512  0.7620
    1PC     H3A 3527   2.535   4.986   6.547 -2.1930 -1.5573  0.3373
    1PC     H3B 3528   2.434   4.898   6.660 -0.1807 -1.2004  1.7112
    1PC     H3C 3529   2.511   5.055   6.705  1.0870  0.4419 -0.6831
    1PC     C34 3530   2.769   4.947   6.677  0.0540 -0.2125  0.5834
    1PC     H4A 3531   2.849   4.876   6.697 -1.0961 -1.9267 -0.5215
    1PC     H4B 3532   2.758   4.981   6.574  1.1026  1.5687  1.0125
    1PC     H4C 3533   2.774   5.035   6.741  0.5006 -0.3882  0.7904
    1PC     C35 3534   2.655   4.742   6.623  0.2202 -0.0383  0.2574
    1PC     H5A 3535   2.692   4.765   6.523  1.4709 -0.2310  0.6586
    1PC     H5B 3536   2.553   4.704   6.628 -0.1474  1.0991  2.9236
    1PC     H5C 3537   2.718   4.671   6.678 -0.1822 -0.0027  0.7650
    1PC     O33 3538   2.860   4.720   7.165 -0.6501 -0.2189 -0.1704
    1PC     O34 3539   2.946   4.949   7.155 -0.0210 -0.0172  0.3158
    1PC     O21 3540   3.116   4.981   6.829  0.0860 -0.6326 -0.1192
    1PC     C21 3541   3.157   5.056   6.723  0.3990  0.2257  0.8760
    1PC     O22 3542   3.242   5.018   6.642  0.3182 -0.4886 -0.3522
    1OL     C12 3543   3.086   5.191   6.716 -0.3199 -0.3003  0.3208
    1OL     H2R 3544   3.157   5.271   6.738 -2.9609  2.4731 -0.6340
    1OL     H2S 3545   3.015   5.190   6.798 -0.7157 -1.8357 -0.0054
    1OL     C13 3546   3.005   5.216   6.583 -0.1106  0.1998  0.5699
    1OL     H3R 3547   2.919   5.279   6.606  0.6355  2.0105 -1.3383
    1OL     H3S 3548   2.972   5.119   6.545  0.6866 -0.4130  1.3859
    1OL     C14 3549   3.088   5.278   6.466  0.3630 -0.5415 -0.0440
    1OL     H4R 3550   3.156   5.197   6.437  0.1169 -1.2380  1.2392
    1OL     H4S 3551   3.151   5.356   6.509  0.2900 -0.9763  0.8937
    1OL     C15 3552   2.997   5.328   6.345 -0.3426 -0.2987 -0.0007
    1OL     H5R 3553   2.950   5.420   6.379 -1.5478 -0.7126 -0.4947
    1OL     H5S 3554   2.928   5.244   6.331 -0.0770 -0.5230  0.0256
    1OL     C16 3555   3.078   5.349   6.220 -0.1854  0.1047  0.5127
    1OL     H6R 3556   3.019   5.377   6.133  3.1376  0.9010 -1.6635
    1OL     H6S 3557   3.120   5.251   6.193 -0.8788 -0.1132  0.2092
    1OL     C17 3558   3.198   5.448   6.229  0.0922 -0.1468 -0.0775
    1OL     H7R 3559   3.275   5.397   6.287  1.8243  0.7744 -1.4927
    1OL     H7S 3560   3.167   5.535   6.287 -1.7215 -0.8295  0.0645
    1OL     C18 3561   3.239   5.495   6.084  0.2782 -0.1193 -0.8570
    1OL     H8R 3562   3.335   5.546   6.096 -0.0371  0.3399 -0.2580
    1OL     H8S 3563   3.164   5.558   6.035 -0.6143  0.4254  1.1223
    1OL     C19 3564   3.267   5.370   5.995 -0.7164 -0.4866  0.3855
    1OL     H9R 3565   3.327   5.292   6.042  0.6701  1.4563  2.0385
    1OL    C110 3566   3.221   5.341   5.873 -0.2242 -0.3620 -0.0311
    1OL    H10R 3567   3.260   5.251   5.827 -0.4510 -1.7184  2.2921
    1OL    C111 3568   3.144   5.429   5.772 -0.0736  0.3197  0.4241
    1OL    H11R 3569   3.195   5.442   5.676  0.9786 -0.8821  0.7855
    1OL    H11S 3570   3.117   5.528   5.808 -0.8682  0.6449 -0.9869
    1OL    C112 3571   3.020   5.351   5.734  0.0623  0.0991  0.1347
    1OL    H12R 3572   2.984   5.305   5.826 -0.4685 -0.3830 -0.3018
    1OL    H12S 3573   3.052   5.260   5.682 -1.8673 -1.5051  1.6348
    1OL    C113 3574   2.907   5.431   5.660 -0.0822 -0.1534 -0.1660
    1OL    H13R 3575   2.823   5.366   5.635 -1.1287  0.4344  1.5884
    1OL    H13S 3576   2.941   5.479   5.568  0.4441  0.6672  0.4384
    1OL    C114 3577   2.846   5.555   5.731 -0.0166 -0.4133  0.5293
    1OL    H14R 3578   2.762   5.591   5.672 -1.7358 -1.5407  2.1527
    1OL    H14S 3579   2.927   5.627   5.738  1.7137 -2.4107  3.2854
    1OL    C115 3580   2.805   5.536   5.887  0.1269 -0.4510  0.2186
    1OL    H15R 3581   2.736   5.614   5.919 -1.5389 -2.5651  2.1710
    1OL    H15S 3582   2.893   5.546   5.950 -0.1752  0.9141  0.4528
    1OL    C116 3583   2.741   5.397   5.922 -0.6160  0.2144  0.3668
    1OL    H16R 3584   2.824   5.334   5.955 -2.4632 -1.3054  2.3863
    1OL    H16S 3585   2.696   5.350   5.834  2.6838  0.0603 -1.3967
    1OL    C117 3586   2.633   5.396   6.033  0.4591 -0.4477  0.6077
    1OL    H17R 3587   2.601   5.292   6.042 -0.7515 -0.2880 -1.3678
    1OL    H17S 3588   2.544   5.447   5.995 -1.5202 -3.8215  0.2699
    1OL    C118 3589   2.685   5.456   6.166  0.4978  0.9252 -1.0475
    1OL    H18R 3590   2.742   5.547   6.147  1.9433 -0.0206 -1.3175
    1OL    H18S 3591   2.748   5.386   6.220  0.1469  0.9791 -0.5608
    1OL    H18T 3592   2.605   5.467   6.239  1.5875 -3.4035  1.1290
    1PA    C116 3593   1.302   2.805   4.969 -0.4092 -0.2845 -0.4327
    1PA    H16R 3594   1.346   2.733   4.899  0.0867 -1.7248  1.2872
    1PA    H16S 3595   1.271   2.893   4.911 -1.2204 -0.3568 -0.1247
    1PA    H16T 3596   1.208   2.770   5.011 -2.0160  1.8625 -1.9668
    1PA    C115 3597   1.390   2.852   5.083 -0.3851  0.1380  0.1981
    1PA    H15R 3598   1.440   2.759   5.113 -0.1958  0.5965  1.3747
    1PA    H15S 3599   1.471   2.911   5.040  0.6547 -0.4520  1.2714
    1PA    C114 3600   1.324   2.925   5.202 -0.7423 -0.0277 -0.1394
    1PA    H14R 3601   1.405   2.963   5.264 -0.0545 -0.4704 -0.7507
    1PA    H14S 3602   1.265   3.011   5.168 -1.1731 -0.9355 -1.7924
    1PA    C113 3603   1.231   2.832   5.290  0.0464 -0.0319 -0.5746
    1PA    H13R 3604   1.143   2.797   5.235 -1.9581  1.1641  1.6761
    1PA    H13S 3605   1.300   2.751   5.314  0.8231  1.4972  3.0324
    1PA    C112 3606   1.177   2.913   5.411 -0.3315 -0.1142  0.4436
    1PA    H12R 3607   1.253   2.957   5.477 -2.0960  0.1914  2.3564
    1PA    H12S 3608   1.102   2.987   5.383 -1.1499 -1.1024 -0.0726
    1PA    C111 3609   1.095   2.821   5.510  0.0264 -0.3026 -0.1154
    1PA    H11R 3610   1.022   2.765   5.452  1.1595 -2.0530  0.0745
    1PA    H11S 3611   1.164   2.744   5.545 -1.1576 -1.1547  0.3662
    1PA    C110 3612   1.031   2.903   5.621  0.6524 -0.1371  0.6574
    1PA    H10R 3613   1.108   2.961   5.673 -0.9870 -0.1478  3.2840
    1PA    H10S 3614   0.966   2.974   5.570 -0.2379 -2.1419 -1.1619
    1PA     C19 3615   0.934   2.834   5.713  0.0641  0.7212 -0.6610
    1PA     H9R 3616   0.903   2.904   5.790 -2.1104 -0.4026 -0.4429
    1PA     H9S 3617   0.846   2.796   5.660  0.4768 -0.5712 -0.4717
    1PA     C18 3618   0.997   2.706   5.778  0.0211  0.4182  0.5032
    1PA     H8R 3619   1.056   2.649   5.706  1.0858  2.4444 -0.3106
    1PA     H8S 3620   1.082   2.742   5.837  0.9687  0.5572 -0.8960
    1PA     C17 3621   0.893   2.615   5.854  0.4604  0.6840  0.0651
    1PA     H7R 3622   0.809   2.579   5.795  0.4412  0.6211  0.1322
    1PA     H7S 3623   0.944   2.521   5.875 -1.0698  0.1997  1.8964
    1PA     C16 3624   0.841   2.686   5.983  0.5420  0.3600  0.5638
    1PA     H6R 3625   0.922   2.689   6.056  1.6436 -0.0597 -0.6040
    1PA     H6S 3626   0.800   2.785   5.960  3.0738  1.1087 -1.2768
    1PA     C15 3627   0.735   2.600   6.059 -1.0216 -0.3778  0.2715
    1PA     H5R 3628   0.707   2.664   6.142 -1.1575  2.8654 -2.1082
    1PA     H5S 3629   0.641   2.593   6.003  0.2208 -2.3780 -1.7582
    1PA     C14 3630   0.783   2.456   6.099 -0.0803  0.5020  0.5716
    1PA     H4R 3631   0.701   2.384   6.113  0.2991 -0.5060 -1.8564
    1PA     H4S 3632   0.831   2.413   6.010 -2.1168 -0.3684 -0.1881
    1PA     C13 3633   0.878   2.447   6.214  0.1887  0.2447 -0.2644
    1PA     H3R 3634   0.974   2.498   6.199  1.1921 -0.3826  3.1725
    1PA     H3S 3635   0.829   2.502   6.295  0.1660  0.0228 -0.1283
    1PA     C12 3636   0.906   2.301   6.267 -0.5321  0.1520  0.1774
    1PA     H2R 3637   0.811   2.260   6.301 -0.5012 -0.9863 -1.0617
    1PA     H2S 3638   0.948   2.236   6.190 -0.7164 -0.4384  0.5685
    1PC     C11 3639   1.010   2.322   6.384  0.1907 -0.0677 -0.5341
    1PC     O12 3640   1.129   2.302   6.371  0.3407  0.2849  0.1247
    1PC     O11 3641   0.942   2.385   6.488 -0.1431 -0.7038  0.4445
    1PC      C1 3642   1.018   2.441   6.604  0.3278  0.0321  0.5917
    1PC      HR 3643   0.947   2.448   6.687 -2.0467  1.8373 -1.4250
    1PC      HS 3644   1.104   2.376   6.623 -0.4034 -0.8690  0.9228
    1PC      C2 3645   1.074   2.579   6.573  0.3071 -0.2472 -0.3244
    1PC      HX 3646   1.152   2.571   6.497  2.3546 -0.1362  1.6854
    1PC      C3 3647   1.128   2.642   6.701  0.1147  0.3264 -0.4052
    1PC      HA 3648   1.205   2.573   6.736 -1.2618 -0.1309  1.9304
    1PC      HB 3649   1.166   2.745   6.695  0.6472  0.8016  5.1941
    1PC     O31 3650   1.021   2.643   6.802 -0.3097 -0.7463 -0.5678
    1PC     P31 3651   1.033   2.645   6.963 -0.1754  0.1380 -0.0241
    1PC     O32 3652   0.974   2.785   6.991 -0.0476 -0.1374  0.0464
    1PC     C31 3653   1.043   2.910   6.957 -0.5933  1.3502 -0.4937
    1PC     H1A 3654   1.113   2.878   6.880  0.2410  0.3817  0.6324
    1PC     H1B 3655   0.976   2.991   6.925  0.5946  2.3023 -0.6474
    1PC     C32 3656   1.111   2.961   7.090  0.3777 -0.2255  0.0086
    1PC     H2A 3657   1.035   2.994   7.161  0.6933 -0.8350  0.6382
    1PC     H2B 3658   1.155   2.875   7.141 -1.9440 -2.8184 -2.0201
    1PC     N31 3659   1.201   3.079   7.086  0.4299 -0.1778 -0.9177
    1PC     C33 3660   1.278   3.104   7.214 -0.1075  0.2412 -0.5872
    1PC     H3A 3661   1.376   3.142   7.183  0.4992 -1.1366 -0.4182
    1PC     H3B 3662   1.230   3.181   7.275  0.1529  0.1506 -0.2653
    1PC     H3C 3663   1.304   3.016   7.273  1.2562  1.9769  1.5536
    1PC     C34 3664   1.296   3.036   6.979 -0.7794 -0.4114  0.4651
    1PC     H4A 3665   1.379   3.108   6.973 -1.4297  0.3025 -0.1841
    1PC     H4B 3666   1.345   2.943   7.009  1.0130  0.8622  1.7638
    1PC     H4C 3667   1.251   3.036   6.880  0.4114  2.0259 -0.1768
    1PC     C35 3668   1.139   3.204   7.032  0.0092 -0.7920 -0.4728
    1PC     H5A 3669   1.092   3.247   7.120  1.5984 -1.0308  0.5332
    1PC     H5B 3670   1.074   3.165   6.953 -1.7673 -0.9986  1.0427
    1PC     H5C 3671   1.215   3.263   6.980 -0.4835  0.3489  0.0920
    1PC     O33 3672   0.951   2.545   7.031 -0.6401 -0.1921  0.4331
    1PC     O34 3673   1.173   2.653   7.005  0.0071  0.0299 -0.8182
    1PC     O21 3674   0.967   2.666   6.519  0.2763 -0.6063  0.0784
    1PC     C21 3675   1.011   2.774   6.457 -0.8399 -0.0684 -0.3737
    1PC     O22 3676   1.125   2.810   6.456 -0.5001 -0.5148 -0.3425
    1OL     C12 3677   0.900   2.852   6.396 -0.4592 -0.0252 -0.4052
    1OL     H2R 3678   0.858   2.912   6.477  0.2938 -1.3496  1.0311
    1OL     H2S 3679   0.820   2.783   6.368  1.1416 -1.1088 -2.6841
    1OL     C13 3680   0.953   2.929   6.276 -0.0069  0.8214 -0.5033
    1OL     H3R 3681   1.000   2.863   6.203  1.4027  2.9524 -1.6213
    1OL     H3S 3682   1.034   2.988   6.319  0.4126 -1.3297  1.9001
    1OL     C14 3683   0.857   3.018   6.197 -0.6070 -0.9485 -0.3357
    1OL     H4R 3684   0.825   3.104   6.256 -2.3979 -1.0636 -1.0598
    1OL     H4S 3685   0.764   2.961   6.184 -1.3606  0.4137 -1.1274
    1OL     C15 3686   0.916   3.051   6.056  0.2288 -0.2049 -0.1379
    1OL     H5R 3687   0.973   2.967   6.016  4.2832  2.2439 -0.0100
    1OL     H5S 3688   0.981   3.136   6.079 -2.6475  1.8779  0.9336
    1OL     C16 3689   0.810   3.095   5.955  0.5011 -0.3688  1.1644
    1OL     H6R 3690   0.737   3.016   5.936 -2.0620  2.1888 -0.3187
    1OL     H6S 3691   0.870   3.112   5.866 -1.2482  2.2751  0.3820
    1OL     C17 3692   0.726   3.223   5.989 -0.1546  0.4644  0.4512
    1OL     H7R 3693   0.805   3.295   6.008  0.0646  0.6815 -1.1143
    1OL     H7S 3694   0.679   3.198   6.084  0.9544  1.2025  1.2138
    1OL     C18 3695   0.630   3.267   5.881 -0.5261  0.8397  0.1880
    1OL     H8R 3696   0.546   3.197   5.886  0.5076 -0.4183  0.6131
    1OL     H8S 3697   0.669   3.256   5.779  2.1963  0.7663  1.1531
    1OL     C19 3698   0.571   3.406   5.915  0.7473 -0.2681 -0.1987
    1OL     H9R 3699   0.546   3.421   6.019  1.2959 -0.9175  0.0314
    1OL    C110 3700   0.541   3.495   5.820  0.1259  0.2665 -0.8173
    1OL    H10R 3701   0.495   3.588   5.854  1.7948  0.2816  1.6548
    1OL    C111 3702   0.559   3.486   5.674  0.0930  0.2459 -0.0314
    1OL    H11R 3703   0.477   3.534   5.620 -1.2377 -0.3386  1.4153
    1OL    H11S 3704   0.555   3.383   5.638 -0.1974 -0.7001  2.5521
    1OL    C112 3705   0.702   3.532   5.629  0.5128  0.6753 -0.0064
    1OL    H12R 3706   0.718   3.523   5.521  0.7718 -0.1960  0.0945
    1OL    H12S 3707   0.784   3.472   5.669 -0.5376 -2.1860 -1.8445
    1OL    C113 3708   0.738   3.681   5.655  0.0190  0.1907  0.5956
    1OL    H13R 3709   0.847   3.682   5.664 -0.0530 -0.0042  1.5332
    1OL    H13S 3710   0.698   3.713   5.751  0.4934  0.8741  0.5707
    1OL    C114 3711   0.693   3.779   5.548  0.4566  0.4713  0.4135
    1OL    H14R 3712   0.586   3.764   5.532 -0.4135  1.1541  4.3452
    1OL    H14S 3713   0.746   3.761   5.454  0.7001  1.5726  0.3356
    1OL    C115 3714   0.719   3.920   5.588 -0.3252  0.3240  0.3519
    1OL    H15R 3715   0.819   3.937   5.628 -0.9190 -0.1624  2.1234
    1OL    H15S 3716   0.646   3.953   5.662  0.6283  1.9676  0.6080
    1OL    C116 3717   0.696   4.008   5.461 -0.1544  0.4254 -0.0044
    1OL    H16R 3718   0.588   3.995   5.447  0.2307 -1.0776 -2.0105
    1OL    H16S 3719   0.750   3.959   5.380 -1.3183 -0.3399 -0.3521
    1OL    C117 3720   0.739   4.150   5.474 -0.4413  0.6775  0.0376
    1OL    H17R 3721   0.846   4.151   5.495 -0.6079 -0.5155  1.0111
    1OL    H17S 3722   0.694   4.198   5.561  0.2768 -0.3319  0.9810
    1OL    C118 3723   0.729   4.236   5.345  0.1086 -0.5400  0.1758
    1OL    H18R 3724   0.753   4.340   5.366  0.3669 -0.4264 -0.6598
    1OL    H18S 3725   0.624   4.245   5.319  0.2014 -1.4258 -0.5582
    1OL    H18T 3726   0.791   4.199   5.263 -0.1487  0.2937 -0.4035
    1PA    C116 3727   1.548   0.929   5.392  0.2485 -0.7023 -0.6514
    1PA    H16R 3728   1.489   0.878   5.315  0.8418  0.8464 -2.2111
    1PA    H16S 3729   1.568   1.027   5.349 -0.3946 -0.7137 -0.9925
    1PA    H16T 3730   1.493   0.952   5.483 -1.0038  1.7326 -1.9199
    1PA    C115 3731   1.673   0.862   5.428  0.4424 -0.6572  0.0368
    1PA    H15R 3732   1.731   0.842   5.337 -2.7234 -0.8001 -2.1122
    1PA    H15S 3733   1.721   0.930   5.498  1.1572 -0.0009 -1.0707
    1PA    C114 3734   1.652   0.726   5.503  0.2800  0.7906  0.2704
    1PA    H14R 3735   1.565   0.741   5.567 -1.2014 -3.2224 -0.5693
    1PA    H14S 3736   1.639   0.646   5.430  1.0483  0.1434  0.8308
    1PA    C113 3737   1.772   0.686   5.586 -0.3259  0.0314 -0.0517
    1PA    H13R 3738   1.845   0.679   5.506 -0.6641  1.4369 -0.5144
    1PA    H13S 3739   1.786   0.760   5.665 -1.2959 -0.5142  0.6604
    1PA    C112 3740   1.744   0.547   5.650  0.4817 -1.2280 -0.2495
    1PA    H12R 3741   1.648   0.529   5.701 -2.3281 -0.4187 -4.7269
    1PA    H12S 3742   1.757   0.464   5.581 -0.1304 -1.0523 -0.5850
    1PA    C111 3743   1.849   0.526   5.769 -0.1157  0.7191 -0.4556
    1PA    H11R 3744   1.950   0.522   5.728  0.1196 -0.0385  0.1844
    1PA    H11S 3745   1.842   0.595   5.853 -2.0125 -1.2237  1.0949
    1PA    C110 3746   1.829   0.387   5.838 -0.4033  0.4184  0.3485
    1PA    H10R 3747   1.740   0.395   5.901 -0.2043 -0.8811  0.8129
    1PA    H10S 3748   1.811   0.304   5.769  1.6131  0.1585  0.0729
    1PA     C19 3749   1.948   0.343   5.930 -0.8653 -0.6935 -0.2865
    1PA     H9R 3750   1.933   0.237   5.951  0.6333 -1.1182 -1.2935
    1PA     H9S 3751   2.045   0.355   5.883  0.2385 -0.3890  1.9237
    1PA     C18 3752   1.954   0.420   6.065 -0.3921  0.6399 -0.2468
    1PA     H8R 3753   2.044   0.376   6.108 -0.0564  0.3700 -1.1838
    1PA     H8S 3754   1.985   0.524   6.055  1.3362  0.1656 -0.1876
    1PA     C17 3755   1.834   0.401   6.161  1.0017 -0.1723  0.1025
    1PA     H7R 3756   1.765   0.485   6.162  1.4781  0.3449 -2.7704
    1PA     H7S 3757   1.776   0.313   6.133  1.6844  0.1039 -2.4252
    1PA     C16 3758   1.890   0.370   6.306 -0.3020 -0.5333 -0.4138
    1PA     H6R 3759   1.946   0.277   6.316  1.7449  0.6418 -0.4609
    1PA     H6S 3760   1.957   0.441   6.353 -2.9020  2.0464 -0.3156
    1PA     C15 3761   1.768   0.357   6.405  0.3012  0.1281  0.4138
    1PA     H5R 3762   1.716   0.453   6.402 -0.6165 -0.3691 -0.2185
    1PA     H5S 3763   1.701   0.276   6.377 -0.9479  1.6768 -1.3574
    1PA     C14 3764   1.824   0.350   6.551 -0.6019 -0.0362  0.3345
    1PA     H4R 3765   1.898   0.271   6.561 -0.9784 -0.7976 -2.1160
    1PA     H4S 3766   1.868   0.447   6.578  1.8353 -0.2160 -2.4620
    1PA     C13 3767   1.702   0.325   6.643 -0.4666 -0.5867 -0.2073
    1PA     H3R 3768   1.636   0.410   6.624 -0.9334 -0.5292  1.5089
    1PA     H3S 3769   1.644   0.239   6.611 -1.8928  0.5236 -0.7074
    1PA     C12 3770   1.733   0.328   6.796 -0.1298  0.1971  0.0333
    1PA     H2R 3771   1.754   0.427   6.838  0.5440 -0.4223  1.2116
    1PA     H2S 3772   1.646   0.284   6.843 -0.2656 -1.3129 -1.5070
    1PC     C11 3773   1.851   0.251   6.847  0.2394  0.7849  0.3572
    1PC     O12 3774   1.848   0.134   6.882  0.7897  0.3561  0.3350
    1PC     O11 3775   1.963   0.330   6.855 -0.0914  0.2281  0.0276
    1PC      C1 3776   2.088   0.274   6.883  0.1103  0.5245 -0.3759
    1PC      HR 3777   2.075   0.236   6.985  0.5439  0.6529 -0.2675
    1PC      HS 3778   2.099   0.191   6.813  2.0016 -1.6383  2.2824
    1PC      C2 3779   2.204   0.372   6.877 -0.5864 -0.5018  0.3548
    1PC      HX 3780   2.294   0.323   6.916  0.0685  0.2250 -0.2045
    1PC      C3 3781   2.187   0.507   6.955 -0.6418 -0.0544  0.7174
    1PC      HA 3782   2.279   0.565   6.946 -1.5403  1.3616  0.0768
    1PC      HB 3783   2.114   0.564   6.895  1.2645  2.8389  0.9239
    1PC     O31 3784   2.158   0.486   7.094  0.3104  0.0411  0.0590
    1PC     P31 3785   2.121   0.601   7.191  0.3366  0.0149  0.0493
    1PC     O32 3786   1.972   0.632   7.143 -0.2105  0.4319 -0.0369
    1PC     C31 3787   1.878   0.520   7.141  0.2240  0.3741 -0.5594
    1PC     H1A 3788   1.798   0.529   7.067 -0.3735  0.1810  0.0495
    1PC     H1B 3789   1.928   0.425   7.123  0.6810  0.6590 -0.8213
    1PC     C32 3790   1.811   0.508   7.283  0.4913 -0.0126  0.3699
    1PC     H2A 3791   1.734   0.431   7.279 -1.1947  1.6620 -0.3196
    1PC     H2B 3792   1.890   0.474   7.352  0.9430  1.5936  0.6787
    1PC     N31 3793   1.741   0.624   7.346  0.0002  0.0160  0.4275
    1PC     C33 3794   1.666   0.591   7.470  0.5506  0.2943 -0.0749
    1PC     H3A 3795   1.724   0.531   7.541  0.0121 -1.0577 -0.7339
    1PC     H3B 3796   1.635   0.681   7.523 -1.8518 -0.8402  0.5965
    1PC     H3C 3797   1.574   0.540   7.441  0.1476  1.5353 -1.0540
    1PC     C34 3798   1.835   0.735   7.392 -0.1969 -0.3695  0.5004
    1PC     H4A 3799   1.777   0.814   7.439 -0.6478  1.9466 -3.4511
    1PC     H4B 3800   1.901   0.682   7.460 -0.5550 -1.7960 -0.2307
    1PC     H4C 3801   1.888   0.775   7.304 -2.3893  1.2731 -0.1639
    1PC     C35 3802   1.637   0.683   7.251 -0.4459 -0.3535  0.2339
    1PC     H5A 3803   1.562   0.606   7.233  1.2851 -1.4359 -3.2574
    1PC     H5B 3804   1.678   0.714   7.155  1.0931 -0.1124  0.9336
    1PC     H5C 3805   1.582   0.768   7.293 -0.1194 -0.1446  0.2502
    1PC     O33 3806   2.108   0.545   7.334 -0.1914 -0.1679  0.9218
    1PC     O34 3807   2.199   0.726   7.171  0.7067  0.0699 -0.1184
    1PC     O21 3808   2.235   0.404   6.740  0.3086 -0.0407  0.6288
    1PC     C21 3809   2.286   0.312   6.658  0.1946  0.2251  0.3549
    1PC     O22 3810   2.359   0.220   6.690 -0.0821 -0.1446 -0.9048
    1OL     C12 3811   2.265   0.349   6.513  0.8006 -1.1371  0.5383
    1OL     H2R 3812   2.327   0.431   6.477 -3.0493  0.3708 -3.6858
    1OL     H2S 3813   2.161   0.381   6.506  0.2595 -2.6268  1.2841
    1OL     C13 3814   2.296   0.230   6.414  0.2062  0.0793 -0.5133
    1OL     H3R 3815   2.393   0.190   6.444 -0.2822 -1.5880 -1.0328
    1OL     H3S 3816   2.303   0.276   6.315  1.0278  1.9898  0.3871
    1OL     C14 3817   2.207   0.108   6.408  0.4205  0.5933  0.0267
    1OL     H4R 3818   2.108   0.148   6.386  0.7062  2.1145  1.3427
    1OL     H4S 3819   2.204   0.056   6.504 -1.0911 -2.0660 -1.3376
    1OL     C15 3820   2.248   0.010   6.293 -0.0569 -0.3121 -0.3585
    1OL     H5R 3821   2.344  -0.039   6.312 -0.8850 -1.1003  2.1711
    1OL     H5S 3822   2.250   0.062   6.197  1.2599 -0.5775 -0.4935
    1OL     C16 3823   2.167  -0.117   6.258 -0.3517  0.6729 -0.1984
    1OL     H6R 3824   2.183  -0.186   6.341  0.1599  0.6884 -0.2805
    1OL     H6S 3825   2.213  -0.173   6.176 -2.2550 -2.8472  0.9336
    1OL     C17 3826   2.015  -0.091   6.240  0.3492  0.3661 -0.8773
    1OL     H7R 3827   1.977  -0.048   6.332 -1.8330  0.9926 -2.0063
    1OL     H7S 3828   1.964  -0.184   6.213  2.1207 -1.0930  0.5395
    1OL     C18 3829   1.988   0.017   6.143 -0.3293  0.3801  0.2444
    1OL     H8R 3830   2.051  -0.000   6.055 -1.2118 -1.2730 -0.1099
    1OL     H8S 3831   2.012   0.115   6.185 -0.5619  0.7896 -0.5652
    1OL     C19 3832   1.840   0.010   6.121  0.0380  0.3112  0.0660
    1OL     H9R 3833   1.772   0.051   6.197 -0.8040  0.1505 -0.5851
    1OL    C110 3834   1.783  -0.046   6.011  0.0325 -1.1167 -0.1965
    1OL    H10R 3835   1.675  -0.053   6.019 -0.3895  2.7808 -0.8387
    1OL    C111 3836   1.847  -0.107   5.896  0.4023 -0.2468 -0.0757
    1OL    H11R 3837   1.881  -0.206   5.927  1.1708  0.0596  0.0893
    1OL    H11S 3838   1.936  -0.048   5.874 -1.8109  4.1141  1.3874
    1OL    C112 3839   1.761  -0.099   5.771  0.1620 -0.0076  0.0248
    1OL    H12R 3840   1.746   0.004   5.738 -0.0877  0.3569  1.2366
    1OL    H12S 3841   1.662  -0.139   5.790  0.2937 -0.9502 -1.1824
    1OL    C113 3842   1.814  -0.172   5.647 -0.0037 -0.3940 -0.0389
    1OL    H13R 3843   1.732  -0.202   5.581 -2.6802  0.4654  2.6862
    1OL    H13S 3844   1.863  -0.267   5.669  1.9089  0.6519  0.4501
    1OL    C114 3845   1.913  -0.088   5.563 -0.0169 -0.3533 -0.0291
    1OL    H14R 3846   1.985  -0.049   5.636 -1.6410 -0.6482  1.8335
    1OL    H14S 3847   1.867  -0.001   5.516  0.4014 -0.5442 -0.8048
    1OL    C115 3848   1.976  -0.165   5.451  0.0727  0.1876 -0.1676
    1OL    H15R 3849   1.991  -0.096   5.368  1.5240 -0.3328 -0.3652
    1OL    H15S 3850   1.911  -0.246   5.417  0.2541  0.2675 -0.7164
    1OL    C116 3851   2.114  -0.233   5.475 -0.1496 -0.1352  0.1366
    1OL    H16R 3852   2.109  -0.310   5.552  1.3422  0.2661  0.6710
    1OL    H16S 3853   2.179  -0.154   5.514  0.9364  0.4698 -2.6753
    1OL    C117 3854   2.183  -0.285   5.345  0.0292  0.2576 -0.1550
    1OL    H17R 3855   2.106  -0.313   5.273  1.3389 -0.3717 -1.3766
    1OL    H17S 3856   2.241  -0.375   5.368 -0.8728 -0.1957  0.3817
    1OL    C118 3857   2.281  -0.189   5.278  0.9088  0.0119 -0.8017
    1OL    H18R 3858   2.328  -0.238   5.193 -0.5254 -0.6974 -1.2183
    1OL    H18S 3859   2.361  -0.160   5.347  0.2431 -0.4273  0.1862
    1OL    H18T 3860   2.230  -0.096   5.254  1.0632  0.0721 -0.8953
    1PA    C116 3861   0.407   1.793   5.139 -0.1087  0.2420 -0.0687
    1PA    H16R 3862   0.330   1.748   5.202 -1.0882  3.6198  1.4064
    1PA    H16S 3863   0.400   1.770   5.033 -0.9767  0.7040 -0.1142
    1PA    H16T 3864   0.404   1.902   5.143 -4.2214  0.3542 -1.8601
    1PA    C115 3865   0.540   1.730   5.189  0.3314  0.4618 -0.1440
    1PA    H15R 3866   0.542   1.621   5.179  0.0207  0.3887  0.5126
    1PA    H15S 3867   0.618   1.764   5.121  0.2595  0.2102 -0.3581
    1PA    C114 3868   0.572   1.773   5.338  0.0063  0.0687 -0.3586
    1PA    H14R 3869   0.674   1.753   5.373 -1.3337 -2.3436  2.5951
    1PA    H14S 3870   0.561   1.882   5.343 -1.3201 -0.1205  1.7275
    1PA    C113 3871   0.483   1.704   5.436  0.6565 -0.2939  0.3409
    1PA    H13R 3872   0.381   1.721   5.399  0.3041 -2.6845  0.0241
    1PA    H13S 3873   0.502   1.597   5.422 -1.1630 -0.7777  1.1729
    1PA    C112 3874   0.496   1.756   5.580 -0.4905 -0.4225 -0.4738
    1PA    H12R 3875   0.596   1.738   5.622 -0.4238 -1.5075 -1.0452
    1PA    H12S 3876   0.492   1.865   5.584  1.7835 -0.2689  3.3962
    1PA    C111 3877   0.392   1.698   5.678 -0.1770  0.0200 -0.4019
    1PA    H11R 3878   0.393   1.589   5.673  0.6114  0.0814 -2.0202
    1PA    H11S 3879   0.424   1.740   5.774 -0.5585 -1.3923  0.3618
    1PA    C110 3880   0.246   1.739   5.641  0.4307 -0.5165  0.1340
    1PA    H10R 3881   0.228   1.844   5.666  0.1571 -0.6953  0.7146
    1PA    H10S 3882   0.223   1.715   5.537 -0.8188  1.6569 -0.1529
    1PA     C19 3883   0.145   1.665   5.734  0.5070 -0.2998 -0.1261
    1PA     H9R 3884   0.049   1.669   5.681  0.7847  1.2875 -0.5399
    1PA     H9S 3885   0.171   1.559   5.736 -1.5922 -0.8811 -0.5067
    1PA     C18 3886   0.137   1.729   5.876  0.6485  0.3006  0.6267
    1PA     H8R 3887   0.125   1.838   5.878 -1.1516  0.1286  0.2925
    1PA     H8S 3888   0.048   1.692   5.927 -0.6774  2.4419  0.0102
    1PA     C17 3889   0.253   1.673   5.964  0.6005  0.9517  0.1248
    1PA     H7R 3890   0.289   1.574   5.933 -0.1704  0.5234  0.5542
    1PA     H7S 3891   0.336   1.743   5.954  0.4008  1.0919 -0.6293
    1PA     C16 3892   0.205   1.654   6.112  0.2350  0.2888 -0.2717
    1PA     H6R 3893   0.190   1.747   6.166  3.3915  1.0530 -0.5104
    1PA     H6S 3894   0.111   1.599   6.123  1.3423 -1.7730 -0.5189
    1PA     C15 3895   0.310   1.585   6.202  0.3256  0.2474  0.6497
    1PA     H5R 3896   0.348   1.497   6.152  1.8100  0.8166  0.7360
    1PA     H5S 3897   0.393   1.652   6.224  1.0116 -0.9641  1.8869
    1PA     C14 3898   0.250   1.557   6.342 -0.0620 -0.5005 -0.4767
    1PA     H4R 3899   0.195   1.644   6.378  1.0388 -0.2850  0.7609
    1PA     H4S 3900   0.193   1.464   6.333  0.8477 -1.2115  0.7763
    1PA     C13 3901   0.362   1.527   6.449  0.1974 -0.3486 -0.1592
    1PA     H3R 3902   0.427   1.448   6.411 -1.2560 -1.5822 -0.1612
    1PA     H3S 3903   0.421   1.614   6.479 -0.1644 -0.5388  1.1704
    1PA     C12 3904   0.296   1.481   6.578  0.4364  0.3982 -0.0571
    1PA     H2R 3905   0.211   1.414   6.559 -1.1903  1.7647  1.9648
    1PA     H2S 3906   0.379   1.439   6.635 -0.9304 -1.3236  0.8062
    1PC     C11 3907   0.237   1.587   6.675 -0.2560 -0.5474  0.6914
    1PC     O12 3908   0.207   1.695   6.632  0.1299  0.6183  0.0373
    1PC     O11 3909   0.233   1.541   6.803 -0.0113  0.6522 -0.5243
    1PC      C1 3910   0.177   1.642   6.897 -0.0435  0.0756 -0.2328
    1PC      HR 3911   0.224   1.635   6.995  0.8105 -2.1571 -0.7465
    1PC      HS 3912   0.192   1.745   6.863  0.8742  0.6117  1.6371
    1PC      C2 3913   0.025   1.614   6.918  0.5153  0.1297  0.2878
    1PC      HX 3914  -0.009   1.685   6.994 -0.0219  0.3817 -0.1833
    1PC      C3 3915  -0.007   1.474   6.962  0.5583  0.4945 -0.6326
    1PC      HA 3916  -0.116   1.469   6.960  0.5226  0.8510  0.0071
    1PC      HB 3917   0.022   1.403   6.884 -0.7924  0.3437 -1.0226
    1PC     O31 3918   0.038   1.447   7.102  0.3996 -0.4355  0.7996
    1PC     P31 3919  -0.029   1.493   7.242 -0.2689  0.1381 -0.3507
    1PC     O32 3920  -0.134   1.378   7.276  0.4390 -0.4317  0.3775
    1PC     C31 3921  -0.255   1.377   7.197 -0.1444  0.7576 -0.5414
    1PC     H1A 3922  -0.314   1.469   7.205 -1.1716 -0.0380  1.9418
    1PC     H1B 3923  -0.227   1.373   7.091 -0.1401 -0.4493 -0.5079
    1PC     C32 3924  -0.325   1.251   7.249  0.4273  0.1028 -0.0862
    1PC     H2A 3925  -0.431   1.257   7.221  0.3450 -0.9736 -0.0618
    1PC     H2B 3926  -0.278   1.164   7.203 -0.1905  0.3086 -1.1395
    1PC     N31 3927  -0.346   1.225   7.401  0.1503 -0.0247  0.2041
    1PC     C33 3928  -0.218   1.157   7.452  0.0525 -0.1165 -0.3525
    1PC     H3A 3929  -0.236   1.153   7.559 -2.5453  0.1631 -0.7205
    1PC     H3B 3930  -0.206   1.055   7.414 -1.1042 -1.1375  1.8285
    1PC     H3C 3931  -0.127   1.214   7.431  1.1335 -2.0931 -1.3722
    1PC     C34 3932  -0.371   1.347   7.480  0.1197 -0.1944 -0.0701
    1PC     H4A 3933  -0.469   1.382   7.446 -0.1264  0.0980  0.9076
    1PC     H4B 3934  -0.360   1.330   7.587  4.4074 -0.0303 -0.3017
    1PC     H4C 3935  -0.295   1.419   7.449 -0.0328 -0.4161 -0.9926
    1PC     C35 3936  -0.455   1.124   7.420 -0.3718  0.3395  0.1861
    1PC     H5A 3937  -0.427   1.037   7.361  0.2786 -1.4102  2.9255
    1PC     H5B 3938  -0.548   1.161   7.377 -0.7558 -1.5542 -0.7153
    1PC     H5C 3939  -0.454   1.090   7.523 -0.5477  0.1801  0.1344
    1PC     O33 3940   0.075   1.475   7.349 -0.4383  0.4905  0.0775
    1PC     O34 3941  -0.097   1.619   7.217  0.2363 -0.0479  0.0385
    1PC     O21 3942  -0.049   1.625   6.798  0.7020 -0.1345  0.1563
    1PC     C21 3943  -0.102   1.750   6.773 -0.1010 -0.0978  0.9372
    1PC     O22 3944  -0.075   1.848   6.838 -0.0642 -0.3916 -0.3967
    1OL     C12 3945  -0.180   1.765   6.645 -0.5283 -0.1935  0.1508
    1OL     H2R 3946  -0.219   1.866   6.634 -0.6855 -0.4335 -1.7419
    1OL     H2S 3947  -0.276   1.715   6.662 -0.7572  0.5034  0.9746
    1OL     C13 3948  -0.107   1.718   6.523 -0.7832  0.5495 -0.2271
    1OL     H3R 3949  -0.061   1.621   6.543 -3.1179  0.0719  4.0288
    1OL     H3S 3950  -0.027   1.791   6.505  0.6665 -1.0029 -0.2747
    1OL     C14 3951  -0.199   1.726   6.402  0.1732 -0.5541 -0.2901
    1OL     H4R 3952  -0.240   1.826   6.388 -0.8330 -0.7977  0.8446
    1OL     H4S 3953  -0.282   1.658   6.419  1.7591 -2.9249 -1.6040
    1OL     C15 3954  -0.111   1.686   6.281  0.5317  0.3866 -0.7262
    1OL     H5R 3955  -0.060   1.591   6.299 -0.2335 -0.1150 -1.1290
    1OL     H5S 3956  -0.041   1.767   6.259  1.0041  0.5365  1.1715
    1OL     C16 3957  -0.192   1.645   6.156  0.6167 -0.1128  0.0946
    1OL     H6R 3958  -0.257   1.563   6.189  0.2048  0.5117  0.8707
    1OL     H6S 3959  -0.115   1.621   6.083  0.3677  1.9613 -0.9140
    1OL     C17 3960  -0.282   1.755   6.096 -0.0449 -0.0577 -0.2345
    1OL     H7R 3961  -0.346   1.793   6.176  1.8828  2.1847  0.3595
    1OL     H7S 3962  -0.345   1.709   6.020 -1.2769  1.6554 -0.3074
    1OL     C18 3963  -0.224   1.871   6.028  0.0803  0.1601 -0.2704
    1OL     H8R 3964  -0.179   1.833   5.937 -0.3523  0.7103 -0.7206
    1OL     H8S 3965  -0.144   1.912   6.090  1.6333 -2.6526 -0.2159
    1OL     C19 3966  -0.329   1.972   5.981  0.2511 -0.1288 -0.3294
    1OL     H9R 3967  -0.405   2.004   6.051 -1.7274  0.0165 -2.4230
    1OL    C110 3968  -0.326   2.027   5.859  0.2886 -0.5690 -0.4768
    1OL    H10R 3969  -0.394   2.111   5.846 -0.9087 -1.2505  1.0871
    1OL    C111 3970  -0.231   1.993   5.747  0.0107  0.1653  0.5427
    1OL    H11R 3971  -0.292   1.966   5.661 -1.1162 -1.2058  1.7138
    1OL    H11S 3972  -0.164   1.909   5.766  0.5855  1.0187  2.6462
    1OL    C112 3973  -0.149   2.116   5.704 -0.7206  0.8029  0.0040
    1OL    H12R 3974  -0.079   2.141   5.784  0.3528  0.5411 -0.8262
    1OL    H12S 3975  -0.201   2.210   5.686 -0.4140  1.1464  0.8652
    1OL    C113 3976  -0.068   2.076   5.583  0.2225  0.0571  0.5169
    1OL    H13R 3977  -0.126   2.046   5.496  2.7386 -2.1754 -0.5380
    1OL    H13S 3978  -0.005   1.989   5.605  0.6935  0.3978  0.5199
    1OL    C114 3979   0.024   2.186   5.537 -0.3362  0.6587 -0.4208
    1OL    H14R 3980   0.083   2.213   5.625 -0.8948  0.8058 -0.0890
    1OL    H14S 3981  -0.039   2.272   5.510 -2.5280 -0.7191  0.0729
    1OL    C115 3982   0.131   2.142   5.435  0.4765  0.3599  0.0900
    1OL    H15R 3983   0.083   2.117   5.340  0.0101  3.2263 -0.5059
    1OL    H15S 3984   0.196   2.064   5.476  0.6179 -0.0295 -0.8488
    1OL    C116 3985   0.219   2.275   5.413 -0.4467 -0.2403  0.7492
    1OL    H16R 3986   0.278   2.294   5.503  0.8404 -0.4950 -0.0163
    1OL    H16S 3987   0.156   2.364   5.413 -1.5898 -1.0070  1.8339
    1OL    C117 3988   0.308   2.267   5.287  0.1377 -0.3694  0.2147
    1OL    H17R 3989   0.390   2.339   5.288 -1.2303  1.2385 -0.1751
    1OL    H17S 3990   0.252   2.305   5.202  2.0966 -0.0448 -1.0154
    1OL    C118 3991   0.350   2.125   5.248  0.1934 -0.3256  0.2804
    1OL    H18R 3992   0.431   2.133   5.174  1.2501 -1.2387  1.2947
    1OL    H18S 3993   0.263   2.069   5.213 -0.1622  0.9809 -1.0154
    1OL    H18T 3994   0.382   2.067   5.335 -1.8277 -0.3360  1.0546
    1PA    C116 3995   0.896   4.698   4.970  0.6587  0.8774 -0.4010
    1PA    H16R 3996   0.842   4.758   5.043 -0.4537  0.9192 -1.2273
    1PA    H16S 3997   0.848   4.601   4.969  2.3944 -0.0187 -0.6791
    1PA    H16T 3998   0.877   4.741   4.871  1.0850  1.2342 -0.3333
    1PA    C115 3999   1.044   4.704   5.001 -0.0372  0.4330 -0.4260
    1PA    H15R 4000   1.103   4.655   4.923  0.7826  0.0995  0.3783
    1PA    H15S 4001   1.075   4.809   4.998 -1.5913  0.9068 -0.3983
    1PA    C114 4002   1.088   4.634   5.126  0.3978 -0.4855  0.0778
    1PA    H14R 4003   1.059   4.528   5.126 -1.2819 -0.0541 -0.7925
    1PA    H14S 4004   1.196   4.629   5.143  0.1194 -0.3664  2.2014
    1PA    C113 4005   1.025   4.676   5.259 -0.6773  0.0295  0.2856
    1PA    H13R 4006   0.924   4.717   5.250 -1.0198 -0.9848 -0.6209
    1PA    H13S 4007   0.998   4.594   5.326  0.2814 -0.2556  0.3351
    1PA    C112 4008   1.112   4.783   5.327 -0.5384 -0.8744 -0.0939
    1PA    H12R 4009   1.165   4.846   5.256  1.4238 -2.9196 -0.5448
    1PA    H12S 4010   1.046   4.840   5.394 -1.0233  0.1244 -1.3940
    1PA    C111 4011   1.227   4.720   5.415  0.4635  0.6453 -0.3064
    1PA    H11R 4012   1.294   4.653   5.362  1.4958  0.5116  1.0863
    1PA    H11S 4013   1.298   4.801   5.435  0.7667 -0.1449  2.0872
    1PA    C110 4014   1.161   4.662   5.546  0.7598  0.6341  0.3525
    1PA    H10R 4015   1.080   4.594   5.521  1.1318  1.0666 -2.3337
    1PA    H10S 4016   1.243   4.605   5.590  0.7752 -0.1652 -0.6595
    1PA     C19 4017   1.112   4.765   5.642 -0.7028 -0.2046 -0.9434
    1PA     H9R 4018   1.177   4.853   5.640  1.0792 -1.4233  0.1096
    1PA     H9S 4019   1.009   4.798   5.633 -0.9533  0.6829  3.1207
    1PA     C18 4020   1.113   4.706   5.789  0.0906  1.1145 -0.1257
    1PA     H8R 4021   1.030   4.635   5.791  1.3179 -0.4045 -1.4164
    1PA     H8S 4022   1.208   4.661   5.817  0.2253  2.3640  1.6100
    1PA     C17 4023   1.084   4.816   5.896 -0.1607  0.6144  1.0032
    1PA     H7R 4024   1.179   4.868   5.910  2.4862 -3.6665  0.7919
    1PA     H7S 4025   1.003   4.878   5.856 -1.4176 -1.9809 -0.7680
    1PA     C16 4026   1.040   4.757   6.033  0.3046  0.0664 -0.3253
    1PA     H6R 4027   1.016   4.835   6.106  0.1884 -0.6427  0.4137
    1PA     H6S 4028   0.947   4.706   6.007  0.1283  1.8785 -3.7656
    1PA     C15 4029   1.131   4.650   6.104  0.2876 -0.7115  0.3581
    1PA     H5R 4030   1.085   4.641   6.202  0.8769 -3.2481  0.4709
    1PA     H5S 4031   1.117   4.558   6.046  1.6802 -0.4209 -0.5086
    1PA     C14 4032   1.277   4.671   6.123  0.2288 -0.6843  0.1207
    1PA     H4R 4033   1.312   4.704   6.025  0.2820  0.8573  0.6316
    1PA     H4S 4034   1.293   4.758   6.186 -1.4734 -0.5674  0.4341
    1PA     C13 4035   1.354   4.555   6.187  0.1152  0.8336 -0.5633
    1PA     H3R 4036   1.292   4.520   6.269  0.2308  2.4403  0.2567
    1PA     H3S 4037   1.381   4.476   6.117 -1.2456 -1.0730  0.9426
    1PA     C12 4038   1.492   4.597   6.250  0.0735 -0.0432 -0.4784
    1PA     H2R 4039   1.569   4.620   6.176  0.1347  0.1952 -0.3418
    1PA     H2S 4040   1.479   4.694   6.298  1.8589  0.8719 -1.7256
    1PC     C11 4041   1.553   4.504   6.347 -0.0499  0.2916 -0.1459
    1PC     O12 4042   1.672   4.491   6.367 -0.4560 -0.0930  0.3506
    1PC     O11 4043   1.460   4.435   6.427 -0.3320  0.4564  0.8410
    1PC      C1 4044   1.519   4.352   6.537  0.0021 -0.1104  0.2524
    1PC      HR 4045   1.601   4.296   6.491  0.5094  0.4899  0.4006
    1PC      HS 4046   1.548   4.415   6.622  0.1928 -0.6958  0.6234
    1PC      C2 4047   1.415   4.258   6.592  0.4077 -0.2908  0.2747
    1PC      HX 4048   1.335   4.321   6.631  0.9405  0.1972  0.5842
    1PC      C3 4049   1.466   4.166   6.711 -0.4604 -0.0398  0.3197
    1PC      HA 4050   1.386   4.109   6.759  0.9837 -1.3271  1.2916
    1PC      HB 4051   1.528   4.084   6.672  0.0264  0.7273 -0.5872
    1PC     O31 4052   1.546   4.237   6.805  0.2749  0.1581 -0.2351
    1PC     P31 4053   1.494   4.290   6.937  0.3860 -0.2663  0.1095
    1PC     O32 4054   1.476   4.150   7.019  0.1305  0.5959  0.3841
    1PC     C31 4055   1.570   4.110   7.114 -0.2325  0.3728 -0.0377
    1PC     H1A 4056   1.605   4.196   7.172  0.7473 -0.4539  0.6252
    1PC     H1B 4057   1.522   4.037   7.180  0.5995 -0.5255 -0.4024
    1PC     C32 4058   1.679   4.036   7.036  0.5515  0.0742 -1.1014
    1PC     H2A 4059   1.647   3.932   7.026  1.7530 -0.3683 -0.5558
    1PC     H2B 4060   1.673   4.078   6.936 -2.1159 -1.7642 -1.8225
    1PC     N31 4061   1.823   4.029   7.094  0.1570  0.7266 -0.3163
    1PC     C33 4062   1.814   3.975   7.239  0.0719 -0.0785  0.7834
    1PC     H3A 4063   1.912   3.982   7.287  0.8620 -1.4991 -0.5654
    1PC     H3B 4064   1.748   4.049   7.286 -0.8415  0.4444 -1.2211
    1PC     H3C 4065   1.766   3.878   7.233 -1.9147  0.8889  0.0224
    1PC     C34 4066   1.915   3.933   7.021  0.4046 -0.0804  0.3445
    1PC     H4A 4067   1.940   3.981   6.926  2.3019  1.4732  1.5457
    1PC     H4B 4068   2.008   3.918   7.076  1.5667 -0.4884 -1.6232
    1PC     H4C 4069   1.858   3.842   7.003 -1.8854  1.3056  0.1146
    1PC     C35 4070   1.885   4.162   7.104 -0.2666 -0.8450  0.4872
    1PC     H5A 4071   1.985   4.142   7.145 -0.8729 -1.1381  1.8980
    1PC     H5B 4072   1.829   4.214   7.182 -1.5407 -0.2957 -0.7622
    1PC     H5C 4073   1.888   4.214   7.009 -0.4295 -0.4602  0.6911
    1PC     O33 4074   1.599   4.372   6.997  0.5046  0.4795 -0.4609
    1PC     O34 4075   1.359   4.353   6.919 -0.1052 -0.0079 -0.8111
    1PC     O21 4076   1.363   4.181   6.479 -0.6930  0.2063  0.2015
    1PC     C21 4077   1.255   4.214   6.411 -0.6571 -0.9701  0.2434
    1PC     O22 4078   1.185   4.314   6.426  0.0191  0.0895 -0.2691
    1OL     C12 4079   1.228   4.125   6.286 -0.3324  0.3539 -0.6781
    1OL     H2R 4080   1.134   4.070   6.286 -0.2065  0.0696 -2.5804
    1OL     H2S 4081   1.309   4.053   6.277  0.5105  1.3480 -1.2856
    1OL     C13 4082   1.229   4.207   6.162 -0.7241  0.2495 -0.3634
    1OL     H3R 4083   1.305   4.284   6.176  0.9406 -1.2876 -0.5609
    1OL     H3S 4084   1.136   4.264   6.157  1.0200  3.3120 -0.3603
    1OL     C14 4085   1.245   4.142   6.024  0.2123 -0.2041  0.6220
    1OL     H4R 4086   1.166   4.068   6.027  0.8634 -0.9124  0.6041
    1OL     H4S 4087   1.332   4.076   6.014  0.4913  0.1990  0.3612
    1OL     C15 4088   1.238   4.243   5.905  0.1782 -0.2562 -0.1448
    1OL     H5R 4089   1.321   4.311   5.925  1.0354 -1.3629  0.1976
    1OL     H5S 4090   1.149   4.301   5.932 -1.0886 -1.5881 -1.2857
    1OL     C16 4091   1.229   4.186   5.763 -0.1235 -0.0331  0.5040
    1OL     H6R 4092   1.135   4.132   5.753  0.8102 -1.4808 -0.9778
    1OL     H6S 4093   1.315   4.120   5.755 -0.1936 -0.1458  0.6845
    1OL     C17 4094   1.236   4.293   5.650 -0.1314 -0.4425 -0.4452
    1OL     H7R 4095   1.339   4.327   5.657 -0.2857  0.2326 -1.3054
    1OL     H7S 4096   1.174   4.382   5.661  0.2273 -0.0269 -1.5900
    1OL     C18 4097   1.192   4.234   5.516  0.4505 -0.2604 -0.3135
    1OL     H8R 4098   1.097   4.184   5.536  0.3159  0.0246 -0.2339
    1OL     H8S 4099   1.257   4.146   5.505 -0.6196 -1.1724  0.3659
    1OL     C19 4100   1.187   4.327   5.396  0.4781  0.0683  0.1174
    1OL     H9R 4101   1.084   4.351   5.370 -0.5516 -2.5757  1.4157
    1OL    C110 4102   1.286   4.359   5.314 -0.8430 -0.2129 -0.1498
    1OL    H10R 4103   1.271   4.423   5.227  1.1268  0.4279 -0.0464
    1OL    C111 4104   1.429   4.314   5.337 -0.0133  0.7358  0.3207
    1OL    H11R 4105   1.463   4.233   5.272  1.6667  0.9120  0.9043
    1OL    H11S 4106   1.445   4.272   5.437  2.8285  1.3215  0.2175
    1OL    C112 4107   1.530   4.428   5.332  0.2694  0.6736  0.3137
    1OL    H12R 4108   1.494   4.501   5.405 -2.0145 -0.3582  0.2964
    1OL    H12S 4109   1.518   4.478   5.235  2.8275 -0.8642 -0.9243
    1OL    C113 4110   1.680   4.399   5.347  0.1976 -0.6902 -0.8675
    1OL    H13R 4111   1.731   4.495   5.341  0.6587 -0.8666  0.0778
    1OL    H13S 4112   1.724   4.337   5.268  2.1811  0.3023 -0.6011
    1OL    C114 4113   1.714   4.336   5.479 -0.0791  1.0528  0.3497
    1OL    H14R 4114   1.681   4.232   5.481  0.5443  0.6759 -2.8266
    1OL    H14S 4115   1.662   4.390   5.558 -1.4068 -0.7035  0.7280
    1OL    C115 4116   1.864   4.333   5.511  0.0248 -0.8535  0.3334
    1OL    H15R 4117   1.858   4.324   5.619 -2.2034 -0.3465  0.3122
    1OL    H15S 4118   1.908   4.432   5.494  0.6854 -1.1628  0.2121
    1OL    C116 4119   1.935   4.212   5.446  0.3778 -0.7173 -0.1619
    1OL    H16R 4120   1.927   4.193   5.339 -1.1620  0.7327 -0.3367
    1OL    H16S 4121   1.892   4.120   5.487 -0.1975 -0.4191 -0.0757
    1OL    C117 4122   2.084   4.213   5.483 -0.0625 -0.2228 -0.6642
    1OL    H17R 4123   2.123   4.118   5.446  0.3414 -1.0380  1.6878
    1OL    H17S 4124   2.107   4.219   5.590  2.0724 -0.6930 -1.0564
    1OL    C118 4125   2.168   4.322   5.421 -0.4932 -0.5539 -0.1039
    1OL    H18R 4126   2.255   4.328   5.487 -0.3438 -2.4340 -0.1019
    1OL    H18S 4127   2.126   4.423   5.425  2.4995  0.7570  1.2112
    1OL    H18T 4128   2.204   4.296   5.322  2.1547  2.3346 -0.0566
    1PA    C116 4129   3.531   0.567   6.107 -0.4222  0.4451  0.3927
    1PA    H16R 4130   3.520   0.595   6.002  1.6816 -2.6932 -0.8127
    1PA    H16S 4131   3.555   0.661   6.158  0.1814  0.9161 -0.7209
    1PA    H16T 4132   3.438   0.530   6.150  0.7633  0.2386  2.9497
    1PA    C115 4133   3.646   0.463   6.123 -0.2715 -0.0068 -0.7415
    1PA    H15R 4134   3.741   0.509   6.096 -0.2354 -0.3768 -1.2863
    1PA    H15S 4135   3.649   0.438   6.229  2.1252 -0.3041 -0.8248
    1PA    C114 4136   3.640   0.331   6.046  0.1216 -0.9757  0.6704
    1PA    H14R 4137   3.553   0.277   6.084 -0.6380  0.8950  1.7063
    1PA    H14S 4138   3.628   0.348   5.939 -0.0930  0.6279  0.9386
    1PA    C113 4139   3.775   0.257   6.070 -0.0389 -0.5058 -0.3470
    1PA    H13R 4140   3.857   0.327   6.056 -1.6689  1.2231 -1.8447
    1PA    H13S 4141   3.774   0.224   6.174  0.0832  1.2308  0.2260
    1PA    C112 4142   3.795   0.152   5.961 -0.1459  0.6421  0.9739
    1PA    H12R 4143   3.718   0.076   5.973  0.7485 -0.7088 -1.1214
    1PA    H12S 4144   3.792   0.187   5.857  0.8632 -1.3544  0.2185
    1PA    C111 4145   3.932   0.081   5.973  0.5601  0.6692 -0.0180
    1PA    H11R 4146   4.019   0.146   5.973  0.9675  0.1324  0.0161
    1PA    H11S 4147   3.944   0.025   6.066  1.3345  0.1378 -0.4231
    1PA    C110 4148   3.947  -0.026   5.859  0.0390  0.8262  0.5457
    1PA    H10R 4149   3.856  -0.085   5.844 -0.2195  1.1197  0.9386
    1PA    H10S 4150   3.968   0.021   5.763 -1.9666  0.4866 -0.1281
    1PA     C19 4151   4.067  -0.125   5.878  0.3564 -0.0068 -0.9172
    1PA     H9R 4152   4.049  -0.176   5.972  1.2858  0.4964 -0.4510
    1PA     H9S 4153   4.060  -0.202   5.801 -0.5866  1.2516 -2.1522
    1PA     C18 4154   4.201  -0.053   5.874  1.2614 -0.3789 -0.2251
    1PA     H8R 4155   4.189   0.042   5.822 -1.2826 -0.8738 -0.6524
    1PA     H8S 4156   4.238  -0.038   5.976 -0.0816 -0.9418  0.3665
    1PA     C17 4157   4.311  -0.127   5.803 -0.0415  0.8046 -0.9214
    1PA     H7R 4158   4.322  -0.225   5.851  1.4948  1.0153 -0.7719
    1PA     H7S 4159   4.279  -0.146   5.701  1.1693 -2.2120 -0.8488
    1PA     C16 4160   4.441  -0.055   5.793 -0.2305  0.2732  0.2699
    1PA     H6R 4161   4.514  -0.105   5.729 -0.8558 -0.2064 -0.0763
    1PA     H6S 4162   4.423   0.040   5.743  0.4798  0.9328  1.2270
    1PA     C15 4163   4.505  -0.018   5.929 -0.0542  0.2591  0.1362
    1PA     H5R 4164   4.445   0.056   5.983  1.0251  0.3850  1.2172
    1PA     H5S 4165   4.518  -0.107   5.990 -1.6314 -0.6568 -0.7796
    1PA     C14 4166   4.650   0.038   5.908 -0.2447 -0.0535 -0.1780
    1PA     H4R 4167   4.725  -0.031   5.868 -0.2993 -0.2725  0.0920
    1PA     H4S 4168   4.646   0.125   5.843  0.4830  1.0708  1.2260
    1PA     C13 4169   4.713   0.098   6.039 -0.0747 -0.3532 -0.0351
    1PA     H3R 4170   4.813   0.138   6.021  0.1735 -0.5826  0.8019
    1PA     H3S 4171   4.661   0.184   6.080  1.4198 -0.5207  2.4198
    1PA     C12 4172   4.754  -0.011   6.131 -0.2764 -0.8022 -0.1091
    1PA     H2R 4173   4.666  -0.051   6.182  0.6458 -0.2680  2.0183
    1PA     H2S 4174   4.814  -0.082   6.074 -0.9106  0.7347 -2.8396
    1PC     C11 4175   4.841   0.034   6.251  0.1811  0.0141 -0.0169
    1PC     O12 4176   4.961   0.041   6.247 -0.6852  0.4668  0.3139
    1PC     O11 4177   4.761   0.080   6.347  0.1493  0.0793  0.1644
    1PC      C1 4178   4.819   0.108   6.477  0.5867 -0.2006 -0.2780
    1PC      HR 4179   4.893   0.032   6.502 -0.1043 -0.3788  1.3609
    1PC      HS 4180   4.868   0.205   6.461  0.2562  0.2396  1.2107
    1PC      C2 4181   4.707   0.123   6.585  1.0343 -0.3079  0.1355
    1PC      HX 4182   4.644   0.206   6.552  0.2097 -0.5953  0.9758
    1PC      C3 4183   4.756   0.156   6.728  0.2841  0.1756 -0.6374
    1PC      HA 4184   4.811   0.069   6.763  0.5610  0.3531 -0.6311
    1PC      HB 4185   4.819   0.245   6.736 -0.8493  1.1374 -1.8908
    1PC     O31 4186   4.637   0.180   6.798  0.9742  0.4419 -0.1542
    1PC     P31 4187   4.610   0.108   6.933 -0.1172  0.1982  0.1333
    1PC     O32 4188   4.549  -0.030   6.893  0.2387  0.1469 -0.0105
    1PC     C31 4189   4.626  -0.144   6.870  0.4389  0.2663 -0.1161
    1PC     H1A 4190   4.573  -0.214   6.806  1.7228 -0.6454 -0.2038
    1PC     H1B 4191   4.717  -0.113   6.818  0.4869 -1.1244 -0.8990
    1PC     C32 4192   4.669  -0.213   7.001  0.5139  0.0146  0.4024
    1PC     H2A 4193   4.751  -0.283   6.982 -0.0871 -1.3518  2.4581
    1PC     H2B 4194   4.707  -0.139   7.071 -1.1933  0.4383  0.9218
    1PC     N31 4195   4.567  -0.287   7.080  0.0930  0.1884 -0.0570
    1PC     C33 4196   4.477  -0.181   7.128 -0.2319  0.5980  0.0331
    1PC     H3A 4197   4.539  -0.094   7.150  0.6980  0.0361 -0.2600
    1PC     H3B 4198   4.414  -0.159   7.042  1.4149 -0.8625 -1.6270
    1PC     H3C 4199   4.414  -0.214   7.211 -0.1937  0.5801  0.0549
    1PC     C34 4200   4.509  -0.405   7.013 -0.3590 -1.1839  0.5142
    1PC     H4A 4201   4.593  -0.466   6.979  0.1634 -0.5927  0.7100
    1PC     H4B 4202   4.453  -0.453   7.093 -1.5007  0.9092  1.0536
    1PC     H4C 4203   4.448  -0.366   6.931  0.1891  1.6553  1.3289
    1PC     C35 4204   4.649  -0.334   7.196 -0.8754 -0.4781  0.1833
    1PC     H5A 4205   4.747  -0.370   7.163 -0.5958  0.9854 -0.6916
    1PC     H5B 4206   4.602  -0.420   7.242  1.0742 -2.0996 -0.6916
    1PC     H5C 4207   4.660  -0.248   7.261  2.8271  0.8202 -1.8582
    1PC     O33 4208   4.746   0.085   6.998  0.3006  0.5300  0.1988
    1PC     O34 4209   4.512   0.184   7.008  0.5757  0.1247  0.4578
    1PC     O21 4210   4.633  -0.002   6.590 -0.2810 -0.1333 -0.5743
    1PC     C21 4211   4.517  -0.018   6.525  0.1984  0.3201 -0.6650
    1PC     O22 4212   4.451   0.066   6.481 -0.0173 -0.2811 -0.5251
    1OL     C12 4213   4.477  -0.159   6.525 -0.2023  0.3517  0.4196
    1OL     H2R 4214   4.369  -0.167   6.536 -0.7766  2.1504 -2.6361
    1OL     H2S 4215   4.533  -0.213   6.601  0.0042 -1.1371 -0.7352
    1OL     C13 4216   4.516  -0.220   6.380 -0.0200 -0.5422  0.3637
    1OL     H3R 4217   4.615  -0.180   6.357 -1.2630  3.0469  0.4839
    1OL     H3S 4218   4.456  -0.169   6.304  1.5265  2.3832  0.9654
    1OL     C14 4219   4.507  -0.371   6.356  0.3746  0.3898 -0.5973
    1OL     H4R 4220   4.408  -0.401   6.390  0.6824 -1.0726 -0.9258
    1OL     H4S 4221   4.578  -0.419   6.424 -0.7553 -0.8003 -0.2050
    1OL     C15 4222   4.533  -0.424   6.212 -0.5005  0.7282  0.1412
    1OL     H5R 4223   4.582  -0.521   6.209 -1.8161  0.0575 -0.1592
    1OL     H5S 4224   4.604  -0.367   6.151  1.2060 -1.7237 -0.3158
    1OL     C16 4225   4.403  -0.443   6.135 -0.0303  0.4059  0.4540
    1OL     H6R 4226   4.346  -0.350   6.124  1.1251  1.1295  0.4992
    1OL     H6S 4227   4.343  -0.510   6.197  0.1483 -1.5955 -1.3829
    1OL     C17 4228   4.426  -0.501   6.001  0.2288 -0.6453 -0.4143
    1OL     H7R 4229   4.505  -0.575   5.992  0.4114 -0.3825 -1.0111
    1OL     H7S 4230   4.467  -0.413   5.950  3.1914 -0.0825  2.5357
    1OL     C18 4231   4.299  -0.557   5.931 -0.4608  0.3536 -0.1827
    1OL     H8R 4232   4.228  -0.477   5.908  0.4992  0.7102 -2.1857
    1OL     H8S 4233   4.249  -0.625   5.999 -1.5765  1.3276 -0.0088
    1OL     C19 4234   4.339  -0.630   5.801  0.4757 -0.3465 -0.4358
    1OL     H9R 4235   4.395  -0.719   5.831  0.7875  0.6062  2.0613
    1OL    C110 4236   4.335  -0.591   5.673  0.0671  0.3229 -0.5738
    1OL    H10R 4237   4.371  -0.654   5.593  0.6408 -0.5356  0.3376
    1OL    C111 4238   4.285  -0.458   5.626  0.4292 -0.6421 -0.4008
    1OL    H11R 4239   4.369  -0.406   5.578 -0.3027  0.1749 -0.8273
    1OL    H11S 4240   4.249  -0.400   5.712 -0.3661  0.7988 -1.6465
    1OL    C112 4241   4.173  -0.466   5.518  0.4236  0.2281  0.6095
    1OL    H12R 4242   4.091  -0.522   5.564  0.0685  1.7292  1.8946
    1OL    H12S 4243   4.212  -0.526   5.436 -1.0553  2.0480 -1.5223
    1OL    C113 4244   4.137  -0.337   5.464  0.2046 -0.0709  0.5748
    1OL    H13R 4245   4.225  -0.287   5.422 -0.3927  1.1748  0.7868
    1OL    H13S 4246   4.096  -0.269   5.539 -1.2374 -1.7487  1.3881
    1OL    C114 4247   4.018  -0.352   5.364  0.3996 -0.6228 -0.3024
    1OL    H14R 4248   3.933  -0.394   5.417 -0.4632  2.2918  0.8620
    1OL    H14S 4249   4.047  -0.411   5.278  1.9055  1.8727 -1.6248
    1OL    C115 4250   3.976  -0.222   5.288 -0.1208 -0.0894  0.0068
    1OL    H15R 4251   4.065  -0.160   5.272 -0.5263  0.7064  0.7781
    1OL    H15S 4252   3.918  -0.167   5.362  1.4275  2.4555 -0.5212
    1OL    C116 4253   3.892  -0.248   5.164 -0.0079  0.1519 -0.0495
    1OL    H16R 4254   3.950  -0.308   5.095  1.6502  2.6730 -0.9633
    1OL    H16S 4255   3.874  -0.154   5.112 -0.8768 -0.9033 -1.7716
    1OL    C117 4256   3.753  -0.313   5.188  0.0651 -0.1634 -0.2883
    1OL    H17R 4257   3.680  -0.272   5.118 -0.4655  2.5854  1.7146
    1OL    H17S 4258   3.719  -0.290   5.289  0.2025 -2.1565  0.2540
    1OL    C118 4259   3.744  -0.466   5.176 -0.0805  0.6102 -0.3285
    1OL    H18R 4260   3.809  -0.504   5.097  0.7443  1.7743 -0.2392
    1OL    H18S 4261   3.639  -0.489   5.155 -0.5117  0.4679  1.7818
    1OL    H18T 4262   3.780  -0.525   5.260 -1.2473 -0.8985 -0.8418
    1PA    C116 4263   3.463   0.225   5.657  0.1050 -0.5084 -0.5384
    1PA    H16R 4264   3.365   0.271   5.643  0.9022  1.5257  0.1187
    1PA    H16S 4265   3.534   0.305   5.630 -1.9049  2.8092  3.0071
    1PA    H16T 4266   3.476   0.221   5.765 -0.9519  2.2694 -0.2175
    1PA    C115 4267   3.498   0.099   5.579 -0.5791 -0.7600 -0.5784
    1PA    H15R 4268   3.414   0.030   5.592 -0.8382 -0.3312  0.0542
    1PA    H15S 4269   3.501   0.132   5.475 -0.7270  1.9971  0.2102
    1PA    C114 4270   3.641   0.044   5.619 -1.0168 -0.0334  0.1738
    1PA    H14R 4271   3.722   0.106   5.581 -0.7439  0.7827  2.0157
    1PA    H14S 4272   3.653   0.046   5.727 -0.0137 -1.0792  0.0983
    1PA    C113 4273   3.658  -0.100   5.567  0.5642  0.1590  0.6169
    1PA    H13R 4274   3.630  -0.106   5.462 -1.1441 -0.9219  1.0939
    1PA    H13S 4275   3.758  -0.140   5.584  0.7424 -0.9119 -2.3357
    1PA    C112 4276   3.563  -0.197   5.638 -0.3583 -0.2602  0.0252
    1PA    H12R 4277   3.584  -0.204   5.745 -0.1529 -1.5418 -0.0826
    1PA    H12S 4278   3.460  -0.160   5.637 -0.6638 -1.0169  1.3007
    1PA    C111 4279   3.547  -0.342   5.581  0.0337 -0.4285  0.0340
    1PA    H11R 4280   3.459  -0.386   5.628  0.7900 -0.8108  1.1121
    1PA    H11S 4281   3.534  -0.343   5.472 -0.1546  1.5379 -0.0107
    1PA    C110 4282   3.666  -0.431   5.617  0.8560  0.4704 -0.4334
    1PA    H10R 4283   3.656  -0.531   5.574 -0.5742  0.4911 -0.1988
    1PA    H10S 4284   3.759  -0.397   5.571  0.6219  1.2235 -0.3772
    1PA     C19 4285   3.679  -0.447   5.766 -0.4001  0.4962 -0.0106
    1PA     H9R 4286   3.707  -0.354   5.815  1.1237 -0.5189  1.1120
    1PA     H9S 4287   3.587  -0.489   5.809  1.1350 -2.8740  0.2744
    1PA     C18 4288   3.801  -0.536   5.795  0.2744  0.6413  0.1330
    1PA     H8R 4289   3.795  -0.632   5.744 -0.4341  2.6399 -3.9364
    1PA     H8S 4290   3.882  -0.469   5.766  0.0069  1.4196  1.1189
    1PA     C17 4291   3.823  -0.556   5.951 -0.2779 -0.5523  0.1438
    1PA     H7R 4292   3.816  -0.459   5.999  2.5495  0.1132 -0.5852
    1PA     H7S 4293   3.739  -0.618   5.982 -0.9216  0.8907  1.4160
    1PA     C16 4294   3.957  -0.619   5.981 -0.3983 -0.2153 -0.4165
    1PA     H6R 4295   3.956  -0.721   5.943 -1.9233 -0.2487 -0.3548
    1PA     H6S 4296   4.041  -0.570   5.932  0.4993 -0.9060  0.3901
    1PA     C15 4297   3.993  -0.607   6.132  0.0601 -0.3146  0.1743
    1PA     H5R 4298   3.900  -0.634   6.183 -0.3161  0.3573 -0.1348
    1PA     H5S 4299   4.075  -0.675   6.156  0.6122  0.8913  1.8724
    1PA     C14 4300   4.035  -0.462   6.162  0.2222  0.2984  0.1927
    1PA     H4R 4301   4.126  -0.432   6.109  0.2500  1.0472  0.6580
    1PA     H4S 4302   3.948  -0.402   6.136 -0.5293 -0.7663  0.1898
    1PA     C13 4303   4.075  -0.447   6.311  0.1818 -0.0134  0.5499
    1PA     H3R 4304   4.003  -0.500   6.374 -1.7341  0.8676 -0.7627
    1PA     H3S 4305   4.178  -0.475   6.332  0.6763 -0.6818 -2.3203
    1PA     C12 4306   4.061  -0.303   6.353 -0.3631 -0.8217  0.7725
    1PA     H2R 4307   4.148  -0.241   6.328 -1.4315  1.1669  1.7245
    1PA     H2S 4308   3.980  -0.249   6.304  0.9255  1.7002  1.2331
    1PC     C11 4309   4.044  -0.295   6.500 -0.2474  0.0028 -0.4693
    1PC     O12 4310   4.131  -0.275   6.587 -0.3204 -0.2284  0.1711
    1PC     O11 4311   3.915  -0.330   6.528 -0.2760  0.0581  0.0902
    1PC      C1 4312   3.866  -0.325   6.660  0.7242  0.8248  0.0755
    1PC      HR 4313   3.770  -0.377   6.670  1.6047 -0.6034  1.5113
    1PC      HS 4314   3.941  -0.363   6.729 -1.2076  1.1460  2.5242
    1PC      C2 4315   3.846  -0.177   6.698  0.5327  0.3157 -0.4733
    1PC      HX 4316   3.940  -0.123   6.691  1.0565 -0.6868 -1.5096
    1PC      C3 4317   3.801  -0.170   6.847  0.5485  0.1896 -0.7391
    1PC      HA 4318   3.721  -0.232   6.887  0.7529 -1.4422 -2.6761
    1PC      HB 4319   3.893  -0.193   6.901  0.0563  0.3639  0.1881
    1PC     O31 4320   3.754  -0.035   6.877 -0.2921  0.4807 -0.3939
    1PC     P31 4321   3.811   0.046   7.003 -0.3040 -0.3833  0.0517
    1PC     O32 4322   3.720   0.006   7.119 -0.2033  0.4503 -0.0228
    1PC     C31 4323   3.729  -0.123   7.176 -0.2635 -0.1169 -0.1466
    1PC     H1A 4324   3.629  -0.146   7.213 -0.7980  1.0814 -0.7818
    1PC     H1B 4325   3.744  -0.195   7.095  0.2593  2.5698 -2.6576
    1PC     C32 4326   3.843  -0.127   7.287 -0.4315  0.0599  0.2127
    1PC     H2A 4327   3.852  -0.233   7.311 -0.9999 -0.1757 -0.5927
    1PC     H2B 4328   3.937  -0.103   7.237 -2.0604  1.0349 -2.5840
    1PC     N31 4329   3.819  -0.058   7.420  0.1120  0.0232  0.4766
    1PC     C33 4330   3.949  -0.035   7.485 -0.0761 -0.8395  0.1586
    1PC     H3A 4331   3.931   0.013   7.581 -2.1266  0.5321 -0.8349
    1PC     H3B 4332   3.996  -0.131   7.504  0.6520 -0.3849  0.7211
    1PC     H3C 4333   4.018   0.015   7.415 -1.5413 -0.8614 -1.3635
    1PC     C34 4334   3.755   0.074   7.403  0.0125 -0.1231  0.0914
    1PC     H4A 4335   3.651   0.064   7.370 -0.2483  1.6645  0.2255
    1PC     H4B 4336   3.756   0.118   7.503  1.3032  1.1789 -0.4492
    1PC     H4C 4337   3.807   0.133   7.327  0.2807 -0.8978 -0.3286
    1PC     C35 4338   3.732  -0.137   7.514 -0.0602 -0.5317 -0.2728
    1PC     H5A 4339   3.770  -0.232   7.551  0.4925  0.5477  2.1334
    1PC     H5B 4340   3.648  -0.156   7.446 -0.0591 -0.8194 -0.1971
    1PC     H5C 4341   3.695  -0.070   7.592  0.9285  0.0588 -0.3030
    1PC     O33 4342   3.952  -0.001   7.037 -0.7996 -0.0515  0.5409
    1PC     O34 4343   3.796   0.188   6.978 -0.1962  0.4976 -0.2486
    1PC     O21 4344   3.744  -0.119   6.615 -0.2626 -0.0847 -0.3653
    1PC     C21 4345   3.780  -0.036   6.520 -0.2913 -0.2278  0.0755
    1PC     O22 4346   3.897  -0.019   6.482  0.3760  0.3244  0.6733
    1OL     C12 4347   3.665   0.038   6.460 -0.5184  0.1052  0.3978
    1OL     H2R 4348   3.710   0.128   6.416  2.7368 -1.7248 -0.2914
    1OL     H2S 4349   3.592   0.069   6.536 -1.5795 -1.1186 -0.0845
    1OL     C13 4350   3.582  -0.042   6.351 -0.7012  0.0837 -0.1207
    1OL     H3R 4351   3.530   0.037   6.295  0.9954  0.5980 -1.0564
    1OL     H3S 4352   3.515  -0.108   6.405 -1.8750 -0.5014 -2.1635
    1OL     C14 4353   3.664  -0.140   6.257  0.1745 -0.3086  0.2204
    1OL     H4R 4354   3.685  -0.236   6.304 -0.3912 -0.8372 -0.5782
    1OL     H4S 4355   3.759  -0.097   6.224  0.1374  0.8880  1.5811
    1OL     C15 4356   3.570  -0.184   6.140 -0.4810 -0.3326  0.2613
    1OL     H5R 4357   3.627  -0.256   6.082  1.1737  0.4817  0.8108
    1OL     H5S 4358   3.547  -0.098   6.076 -2.3711 -0.7151  0.3590
    1OL     C16 4359   3.438  -0.248   6.182  0.4112  0.3398 -1.0583
    1OL     H6R 4360   3.351  -0.182   6.176 -2.5815 -3.2654 -1.2718
    1OL     H6S 4361   3.452  -0.282   6.285 -0.0309 -1.6611 -1.6002
    1OL     C17 4362   3.388  -0.364   6.099  0.2685  1.3594 -0.0926
    1OL     H7R 4363   3.305  -0.415   6.148  0.7103  0.2104 -0.4811
    1OL     H7S 4364   3.454  -0.450   6.086  0.2282  1.4046 -0.6456
    1OL     C18 4365   3.339  -0.316   5.956  0.1208  0.1508 -0.0784
    1OL     H8R 4366   3.412  -0.264   5.894 -1.4652 -1.7495 -3.8817
    1OL     H8S 4367   3.262  -0.241   5.978 -1.7193 -1.6152 -0.1503
    1OL     C19 4368   3.291  -0.435   5.877 -0.8511  0.4208 -0.5524
    1OL     H9R 4369   3.336  -0.524   5.918 -0.9639  0.7490  0.2936
    1OL    C110 4370   3.209  -0.433   5.775 -0.2581 -0.6591  0.7866
    1OL    H10R 4371   3.197  -0.520   5.712  1.8174  0.5210 -1.4319
    1OL    C111 4372   3.139  -0.314   5.712  0.3025  0.1035 -0.3916
    1OL    H11R 4373   3.134  -0.240   5.793 -0.1569  0.3717 -0.6614
    1OL    H11S 4374   3.035  -0.348   5.709  0.5816 -1.3042  2.2972
    1OL    C112 4375   3.186  -0.261   5.578 -0.3024  0.1625  0.4175
    1OL    H12R 4376   3.294  -0.246   5.583 -0.1731 -0.5966  0.0353
    1OL    H12S 4377   3.133  -0.166   5.566 -0.6160 -0.2153 -1.2887
    1OL    C113 4378   3.147  -0.365   5.472  0.6453  1.0235  0.0463
    1OL    H13R 4379   3.046  -0.402   5.484  0.7494  0.8712  0.4605
    1OL    H13S 4380   3.197  -0.460   5.493 -0.0206  0.4145 -1.0143
    1OL    C114 4381   3.168  -0.325   5.327  0.6503 -0.2848 -0.3506
    1OL    H14R 4382   3.098  -0.245   5.300  2.8605  1.9526  0.1381
    1OL    H14S 4383   3.150  -0.416   5.269 -0.7393 -0.2024 -0.0826
    1OL    C115 4384   3.303  -0.254   5.293 -0.2703  0.3991 -0.5611
    1OL    H15R 4385   3.382  -0.322   5.324 -0.6028  0.8498  1.4443
    1OL    H15S 4386   3.320  -0.173   5.365  0.7812 -0.0016 -0.3527
    1OL    C116 4387   3.309  -0.197   5.150 -0.9417  0.2174  0.3240
    1OL    H16R 4388   3.275  -0.280   5.087 -0.0411  0.4783 -0.5324
    1OL    H16S 4389   3.407  -0.163   5.116 -0.5287 -0.4121  0.8602
    1OL    C117 4390   3.222  -0.081   5.111 -0.4596 -0.0099  0.4240
    1OL    H17R 4391   3.123  -0.115   5.077 -0.2507  0.9628 -1.2510
    1OL    H17S 4392   3.275  -0.047   5.022  0.1132  2.3369  1.5841
    1OL    C118 4393   3.215   0.034   5.216  0.1547 -0.6065 -0.7945
    1OL    H18R 4394   3.186  -0.009   5.312  0.0858  3.2614  1.1178
    1OL    H18S 4395   3.145   0.113   5.190  1.5739  0.5624 -1.1940
    1OL    H18T 4396   3.316   0.072   5.231  0.1348 -0.3009 -1.4276
    1PA    C116 4397   1.919   4.620   5.089 -0.8623  0.0272 -0.0103
    1PA    H16R 4398   1.889   4.523   5.130  0.2641  0.3053  1.5640
    1PA    H16S 4399   1.986   4.594   5.007 -0.2136 -2.9540  1.3202
    1PA    H16T 4400   1.834   4.674   5.048 -1.3781 -1.8635 -1.6107
    1PA    C115 4401   2.006   4.684   5.201  0.0675 -0.3000 -0.3573
    1PA    H15R 4402   2.097   4.624   5.204  0.1448 -0.1335  2.3398
    1PA    H15S 4403   2.037   4.782   5.166  0.0979  0.4419  1.6790
    1PA    C114 4404   1.938   4.697   5.340 -0.1309 -0.1920 -0.9415
    1PA    H14R 4405   1.920   4.599   5.386  1.6323  0.5805  1.5930
    1PA    H14S 4406   2.000   4.755   5.408 -1.2518  2.6969 -2.2370
    1PA    C113 4407   1.799   4.774   5.341 -1.1822  0.1235 -0.0580
    1PA    H13R 4408   1.821   4.876   5.310  0.6732  0.0782  0.9686
    1PA    H13S 4409   1.725   4.743   5.267 -1.6698  0.3986  0.3076
    1PA    C112 4410   1.734   4.765   5.483 -0.3193  0.0124  0.3089
    1PA    H12R 4411   1.709   4.660   5.496 -0.6881 -0.4903 -3.3874
    1PA    H12S 4412   1.810   4.797   5.556  1.3484  1.8588 -2.0553
    1PA    C111 4413   1.599   4.831   5.489 -0.6421  0.8487  0.5725
    1PA    H11R 4414   1.600   4.940   5.483  0.4447  0.7991 -0.5112
    1PA    H11S 4415   1.542   4.786   5.408  0.7774  0.7207 -0.3941
    1PA    C110 4416   1.527   4.794   5.623 -0.1283 -0.1082 -0.3181
    1PA    H10R 4417   1.419   4.806   5.620 -0.1801 -0.4530  0.1460
    1PA    H10S 4418   1.544   4.687   5.634 -0.8100 -0.0712  1.3326
    1PA     C19 4419   1.589   4.869   5.748 -0.3315 -0.3818 -0.3374
    1PA     H9R 4420   1.698   4.861   5.743 -0.3962 -4.0595  0.9054
    1PA     H9S 4421   1.573   4.976   5.759  1.1679 -0.2431  0.9249
    1PA     C18 4422   1.545   4.798   5.878  0.2492  0.3195 -0.8417
    1PA     H8R 4423   1.438   4.816   5.896  0.3687 -0.4690  0.8004
    1PA     H8S 4424   1.560   4.691   5.860 -0.6597 -0.0189  0.2750
    1PA     C17 4425   1.610   4.860   6.004 -0.4279 -0.2709 -0.2098
    1PA     H7R 4426   1.634   4.962   5.974  0.8511  0.1153  1.9263
    1PA     H7S 4427   1.544   4.858   6.091 -1.2797 -2.1705 -0.8508
    1PA     C16 4428   1.746   4.790   6.038  0.9034 -0.6936  0.4695
    1PA     H6R 4429   1.730   4.682   6.044  1.5183 -0.8273 -0.1263
    1PA     H6S 4430   1.822   4.801   5.961  0.4597  0.7355  0.2018
    1PA     C15 4431   1.794   4.837   6.175  0.7850 -0.8693  0.2917
    1PA     H5R 4432   1.791   4.946   6.163  1.6117 -0.6249  1.9652
    1PA     H5S 4433   1.730   4.806   6.259  0.9811 -1.1335  0.3436
    1PA     C14 4434   1.939   4.800   6.207 -0.5195  0.0734 -0.7829
    1PA     H4R 4435   2.006   4.817   6.123  1.9359  0.4584  1.1463
    1PA     H4S 4436   1.960   4.872   6.287  0.1466 -0.3350 -0.5751
    1PA     C13 4437   1.975   4.661   6.269 -0.1941 -0.0581 -0.3364
    1PA     H3R 4438   1.934   4.653   6.370 -0.5529 -1.2899 -0.5587
    1PA     H3S 4439   1.943   4.572   6.214  0.8694  0.6889 -2.2339
    1PA     C12 4440   2.132   4.633   6.271  0.1755  0.8015 -0.7176
    1PA     H2R 4441   2.178   4.625   6.172  0.6970  0.2853 -0.4383
    1PA     H2S 4442   2.181   4.706   6.337  2.2292 -0.5291 -0.6840
    1PC     C11 4443   2.164   4.502   6.338 -0.8368  0.0503 -1.0734
    1PC     O12 4444   2.092   4.406   6.326  0.4053  0.9034 -0.1769
    1PC     O11 4445   2.277   4.502   6.412  0.3206  0.1455 -0.1806
    1PC      C1 4446   2.302   4.383   6.489 -0.5382 -0.5332  0.2275
    1PC      HR 4447   2.224   4.369   6.564 -0.2298  0.1707  0.7009
    1PC      HS 4448   2.313   4.292   6.429 -0.2484  0.7389 -1.7341
    1PC      C2 4449   2.430   4.392   6.580  0.0883  0.3767  0.1623
    1PC      HX 4450   2.453   4.289   6.610 -2.1728 -0.9419 -2.2634
    1PC      C3 4451   2.420   4.480   6.697  0.9516 -0.4098  0.0025
    1PC      HA 4452   2.405   4.581   6.656 -0.1802 -0.6460 -0.1733
    1PC      HB 4453   2.331   4.451   6.752 -0.4790 -1.7940 -2.8417
    1PC     O31 4454   2.537   4.474   6.778 -0.4753  0.0106  0.2240
    1PC     P31 4455   2.542   4.407   6.918  0.0430  0.0767  0.1989
    1PC     O32 4456   2.495   4.517   7.018  0.1747 -0.3258  0.6806
    1PC     C31 4457   2.363   4.530   7.066  0.3881 -0.2050 -0.2943
    1PC     H1A 4458   2.285   4.483   7.006  0.8098 -0.2801 -0.7872
    1PC     H1B 4459   2.358   4.481   7.164  0.0415 -0.6885 -0.5505
    1PC     C32 4460   2.341   4.681   7.092  0.6364 -0.0077 -0.0219
    1PC     H2A 4461   2.433   4.726   7.129  1.7296  0.7754 -3.4065
    1PC     H2B 4462   2.317   4.740   7.004 -3.1297  0.5814  1.1967
    1PC     N31 4463   2.250   4.728   7.202  0.1933  0.1866  0.1645
    1PC     C33 4464   2.295   4.683   7.334 -0.4699 -0.3148 -0.2701
    1PC     H3A 4465   2.252   4.755   7.404  0.8153  0.7833 -0.5650
    1PC     H3B 4466   2.287   4.575   7.347 -1.5384 -0.1383  0.7893
    1PC     H3C 4467   2.403   4.688   7.345 -0.4039 -1.4606 -0.3183
    1PC     C34 4468   2.233   4.874   7.207 -0.3523 -0.9947  0.0151
    1PC     H4A 4469   2.334   4.913   7.210 -0.2488 -0.6123 -3.8886
    1PC     H4B 4470   2.186   4.891   7.110  0.7672  0.2309 -0.3233
    1PC     H4C 4471   2.161   4.902   7.284 -1.3208  1.0282 -1.5370
    1PC     C35 4472   2.123   4.663   7.184  0.6954  0.0764  0.1713
    1PC     H5A 4473   2.054   4.707   7.256 -1.6174  1.2937 -2.5642
    1PC     H5B 4474   2.130   4.554   7.191  3.9786  0.2469  1.8988
    1PC     H5C 4475   2.084   4.691   7.086 -0.2996  0.4965  0.6803
    1PC     O33 4476   2.445   4.301   6.915  0.1182  0.2203 -0.0528
    1PC     O34 4477   2.683   4.381   6.952 -0.0078  0.3662  0.5269
    1PC     O21 4478   2.542   4.441   6.501  0.2292  0.2339  0.0308
    1PC     C21 4479   2.630   4.366   6.444 -0.0584  0.7043 -0.2243
    1PC     O22 4480   2.651   4.247   6.468  0.3473 -0.3604 -0.1407
    1OL     C12 4481   2.701   4.446   6.335  0.2901  0.8097  0.0323
    1OL     H2R 4482   2.778   4.377   6.300  0.0127  1.1907 -1.3853
    1OL     H2S 4483   2.754   4.533   6.377  0.0257  1.2262 -0.4793
    1OL     C13 4484   2.603   4.493   6.223 -0.2224  0.1648 -0.0105
    1OL     H3R 4485   2.524   4.554   6.267 -0.2184 -1.8234  3.1053
    1OL     H3S 4486   2.543   4.408   6.190 -1.4186  0.9169  0.1621
    1OL     C14 4487   2.683   4.556   6.102 -0.0600  0.2971 -0.2432
    1OL     H4R 4488   2.734   4.470   6.058 -4.9825 -1.5528 -3.2727
    1OL     H4S 4489   2.759   4.626   6.136 -0.1057  0.7799 -1.1188
    1OL     C15 4490   2.584   4.615   5.995 -0.8327  0.1651 -0.8664
    1OL     H5R 4491   2.521   4.531   5.966 -0.1377 -0.3310 -0.9822
    1OL     H5S 4492   2.632   4.654   5.904 -1.2437 -1.6644 -1.9204
    1OL     C16 4493   2.502   4.733   6.050  0.3435  0.1008  0.0964
    1OL     H6R 4494   2.578   4.806   6.081 -0.5606  1.4824 -0.8203
    1OL     H6S 4495   2.447   4.704   6.140  0.4431 -0.6489 -0.0781
    1OL     C17 4496   2.398   4.794   5.955 -0.7519  0.1164 -0.1852
    1OL     H7R 4497   2.328   4.713   5.933  1.5256 -1.9304 -0.4465
    1OL     H7S 4498   2.451   4.819   5.862 -0.2119  0.8900  0.3178
    1OL     C18 4499   2.329   4.925   5.989  0.6877 -0.5505 -0.5445
    1OL     H8R 4500   2.396   5.009   6.010 -0.1372 -0.1859  0.7197
    1OL     H8S 4501   2.276   4.915   6.084 -1.8791  2.5619 -1.4658
    1OL     C19 4502   2.216   4.958   5.897  0.4378  0.1835  0.3534
    1OL     H9R 4503   2.118   4.913   5.911 -0.1051  0.5625 -1.8257
    1OL    C110 4504   2.219   5.057   5.805  0.4791 -0.0263  0.2470
    1OL    H10R 4505   2.132   5.079   5.743 -0.1270 -1.1528  0.6615
    1OL    C111 4506   2.344   5.140   5.784  0.0689  0.6790 -0.3958
    1OL    H11R 4507   2.360   5.163   5.678 -1.1728  0.8237 -0.5680
    1OL    H11S 4508   2.430   5.079   5.814 -0.8171 -2.8857 -4.1316
    1OL    C112 4509   2.350   5.272   5.856 -0.3384 -0.8288 -0.2661
    1OL    H12R 4510   2.446   5.320   5.839 -0.3353 -1.1330 -1.1315
    1OL    H12S 4511   2.342   5.262   5.965  1.2631  2.2567  0.2315
    1OL    C113 4512   2.234   5.364   5.807  0.3967 -0.3953 -0.2249
    1OL    H13R 4513   2.213   5.443   5.879 -0.0349 -0.5654 -0.1625
    1OL    H13S 4514   2.143   5.306   5.795  0.5689 -0.8517  0.6328
    1OL    C114 4515   2.250   5.434   5.669 -0.5410 -0.3638 -0.4829
    1OL    H14R 4516   2.248   5.355   5.593 -4.3909 -0.0783 -0.9004
    1OL    H14S 4517   2.341   5.493   5.677 -0.5132 -0.5426  0.7038
    1OL    C115 4518   2.138   5.520   5.624  1.5558  0.5324  0.2156
    1OL    H15R 4519   2.141   5.615   5.679  2.4726  1.1246 -0.8274
    1OL    H15S 4520   2.043   5.471   5.643  1.3658  0.3400 -1.1230
    1OL    C116 4521   2.145   5.552   5.471 -0.0764 -0.0915 -0.1100
    1OL    H16R 4522   2.114   5.462   5.417  0.7746 -0.7155  0.4219
    1OL    H16S 4523   2.243   5.593   5.446 -0.7335  1.4494 -0.3245
    1OL    C117 4524   2.043   5.663   5.434  0.5935  0.2556  0.2147
    1OL    H17R 4525   2.068   5.742   5.506 -0.3508  0.7914 -0.0257
    1OL    H17S 4526   1.940   5.629   5.448 -0.0480  1.7308 -0.7192
    1OL    C118 4527   2.063   5.705   5.288  0.6445  0.4894  0.2333
    1OL    H18R 4528   2.034   5.810   5.279 -3.0292 -0.2811  1.1735
    1OL    H18S 4529   2.003   5.642   5.221 -0.0505 -0.2647  1.5089
    1OL    H18T 4530   2.167   5.693   5.259  0.5580 -1.1252  0.4713
    1PA    C116 4531   5.251   3.634   5.110 -0.0279  1.0895 -0.1436
    1PA    H16R 4532   5.176   3.686   5.171 -0.4485  1.0864 -0.6558
    1PA    H16S 4533   5.205   3.535   5.111  0.9912  0.5830  1.3220
    1PA    H16T 4534   5.265   3.675   5.010 -1.2603  0.2513 -0.6900
    1PA    C115 4535   5.392   3.621   5.161  0.4304 -0.1083 -0.2564
    1PA    H15R 4536   5.445   3.589   5.072  0.5532 -0.2117 -0.1460
    1PA    H15S 4537   5.432   3.719   5.187 -1.4140  0.5821  0.1468
    1PA    C114 4538   5.402   3.522   5.281  0.0194 -0.0176 -0.0990
    1PA    H14R 4539   5.314   3.533   5.345  0.5407 -1.2159  0.8658
    1PA    H14S 4540   5.396   3.422   5.237 -2.0852 -0.9305  2.0144
    1PA    C113 4541   5.527   3.532   5.366  0.2582  0.2421  0.0330
    1PA    H13R 4542   5.539   3.438   5.420 -2.1840 -0.1994 -0.0824
    1PA    H13S 4543   5.603   3.520   5.288 -0.9068  0.5991 -1.2051
    1PA    C112 4544   5.541   3.653   5.466 -0.6530 -0.2424  0.3980
    1PA    H12R 4545   5.647   3.667   5.490 -1.3017  0.2404  3.4794
    1PA    H12S 4546   5.510   3.746   5.417 -0.9452 -0.5491 -0.0029
    1PA    C111 4547   5.467   3.646   5.599 -0.0050 -0.0528  0.7420
    1PA    H11R 4548   5.365   3.613   5.581  0.1231  0.3191 -0.8074
    1PA    H11S 4549   5.518   3.572   5.661  1.3033 -0.2090 -0.4723
    1PA    C110 4550   5.478   3.785   5.667  0.9845  0.7437  0.0127
    1PA    H10R 4551   5.430   3.850   5.593 -1.9967 -2.7074 -1.4197
    1PA    H10S 4552   5.414   3.771   5.755  0.0582 -1.6397 -0.9686
    1PA     C19 4553   5.611   3.837   5.704  0.4346 -0.9644 -0.1890
    1PA     H9R 4554   5.661   3.752   5.751  1.4903 -1.9591 -2.9455
    1PA     H9S 4555   5.671   3.853   5.614  1.9286  1.8387  1.1748
    1PA     C18 4556   5.594   3.973   5.779 -0.1128  0.7904  0.5060
    1PA     H8R 4557   5.557   4.048   5.709  0.9477  1.0966  0.2509
    1PA     H8S 4558   5.514   3.973   5.853 -1.7109 -0.3765 -1.1473
    1PA     C17 4559   5.717   4.020   5.858 -0.3745  0.2096 -0.8504
    1PA     H7R 4560   5.787   4.042   5.777 -0.7860 -1.6801 -1.7850
    1PA     H7S 4561   5.682   4.110   5.908  1.6567 -0.2894  1.6623
    1PA     C16 4562   5.766   3.925   5.967  0.6953  1.0562  0.0086
    1PA     H6R 4563   5.787   3.826   5.926 -1.7498  0.0619  0.9060
    1PA     H6S 4564   5.849   3.969   6.023 -0.8503  3.8712  0.2602
    1PA     C15 4565   5.654   3.895   6.068  0.1914  0.4206 -0.2757
    1PA     H5R 4566   5.569   3.853   6.015  1.3570 -0.5703 -1.4021
    1PA     H5S 4567   5.680   3.822   6.145  0.7296  1.1979  0.2993
    1PA     C14 4568   5.606   4.021   6.145  0.4756  0.9604 -0.3309
    1PA     H4R 4569   5.555   4.076   6.066 -0.4947 -1.0793 -1.1958
    1PA     H4S 4570   5.529   3.994   6.218  2.6258  0.7118  1.9924
    1PA     C13 4571   5.722   4.104   6.200  0.3172  0.3336  0.0605
    1PA     H3R 4572   5.794   4.030   6.236  1.0971  1.4085  0.7613
    1PA     H3S 4573   5.774   4.157   6.120 -1.2205  1.8899  0.0377
    1PA     C12 4574   5.684   4.201   6.309 -0.6000 -0.1395  0.3279
    1PA     H2R 4575   5.765   4.269   6.337  0.3774 -2.2544  3.1342
    1PA     H2S 4576   5.600   4.263   6.275  0.5523  1.4876  0.3074
    1PC     C11 4577   5.662   4.136   6.443  0.3046 -0.0194 -0.2876
    1PC     O12 4578   5.618   4.024   6.462 -0.2335 -0.0769 -0.4706
    1PC     O11 4579   5.707   4.218   6.546  0.3579  0.8572 -0.6560
    1PC      C1 4580   5.681   4.182   6.687  0.2667 -0.2499 -0.3205
    1PC      HR 4581   5.659   4.076   6.703  0.4275  0.0899  2.6636
    1PC      HS 4582   5.770   4.212   6.742 -0.0056 -0.1912  0.0938
    1PC      C2 4583   5.556   4.262   6.745 -0.0807  0.0151  0.1602
    1PC      HX 4584   5.572   4.363   6.705  0.3968 -0.3875 -0.6865
    1PC      C3 4585   5.566   4.270   6.902 -0.9638  0.0907 -0.2094
    1PC      HA 4586   5.647   4.340   6.923  0.9456 -1.8414 -0.7655
    1PC      HB 4587   5.475   4.315   6.943 -0.1881  1.0857  0.4446
    1PC     O31 4588   5.594   4.140   6.967  0.3608 -0.3032  0.0165
    1PC     P31 4589   5.474   4.059   7.043 -0.1842 -0.1057 -0.0395
    1PC     O32 4590   5.394   3.999   6.918 -0.4912  0.4516  0.4030
    1PC     C31 4591   5.463   3.898   6.841 -0.1575  0.1269 -0.2628
    1PC     H1A 4592   5.514   3.952   6.761  0.6502 -1.3369 -0.7896
    1PC     H1B 4593   5.542   3.847   6.898  1.3807 -1.0564 -3.2042
    1PC     C32 4594   5.347   3.808   6.782 -0.0266 -0.5446 -1.1144
    1PC     H2A 4595   5.271   3.883   6.759 -1.0495 -1.2076  0.0089
    1PC     H2B 4596   5.376   3.757   6.690  0.0792  0.5129 -1.6915
    1PC     N31 4597   5.282   3.707   6.866 -1.1027 -0.0467  0.1045
    1PC     C33 4598   5.166   3.646   6.788  1.0346 -0.7364  0.5065
    1PC     H3A 4599   5.104   3.731   6.759  1.7364 -0.3544  0.0785
    1PC     H3B 4600   5.196   3.592   6.698 -0.3567 -2.4413  1.0247
    1PC     H3C 4601   5.106   3.580   6.851 -2.1665  1.2027 -0.2931
    1PC     C34 4602   5.394   3.604   6.882 -0.0225 -1.0871 -0.0485
    1PC     H4A 4603   5.376   3.524   6.811 -0.4309 -0.9599 -0.0893
    1PC     H4B 4604   5.495   3.645   6.870 -0.2894 -0.4708 -0.2380
    1PC     H4C 4605   5.378   3.572   6.985 -1.8463  2.5718  0.9987
    1PC     C35 4606   5.234   3.746   7.003 -0.1087 -0.0965 -0.1113
    1PC     H5A 4607   5.160   3.824   6.986 -1.1851 -1.1292 -0.2889
    1PC     H5B 4608   5.323   3.779   7.056  0.0680 -4.2909  2.7675
    1PC     H5C 4609   5.194   3.657   7.053 -0.0415  0.4024  0.8541
    1PC     O33 4610   5.532   3.942   7.114  0.3247 -0.2846  1.0045
    1PC     O34 4611   5.386   4.151   7.117 -0.4515 -0.4274 -0.2394
    1PC     O21 4612   5.430   4.201   6.702 -0.0909 -0.5333  0.3588
    1PC     C21 4613   5.345   4.283   6.639 -0.2624  0.3330 -0.1280
    1PC     O22 4614   5.357   4.402   6.631  0.5484  0.1534 -0.1940
    1OL     C12 4615   5.233   4.199   6.579 -0.3624 -0.1766 -0.4417
    1OL     H2R 4616   5.143   4.260   6.593 -1.0007 -1.5064  1.7627
    1OL     H2S 4617   5.223   4.108   6.638  1.9411 -1.3054 -1.6520
    1OL     C13 4618   5.262   4.146   6.428  0.4983 -0.0362  0.1170
    1OL     H3R 4619   5.336   4.066   6.435 -0.4756 -0.8233  3.6915
    1OL     H3S 4620   5.296   4.232   6.370 -1.6411  0.8509  0.0859
    1OL     C14 4621   5.137   4.093   6.367  0.6133  0.4442  0.3529
    1OL     H4R 4622   5.083   4.183   6.337  2.0060  0.6678 -1.6157
    1OL     H4S 4623   5.085   4.039   6.447 -1.3685 -0.0843 -1.2036
    1OL     C15 4624   5.146   4.008   6.239 -0.0083 -0.5427  0.2663
    1OL     H5R 4625   5.048   3.997   6.192  1.3156 -0.1459 -2.8379
    1OL     H5S 4626   5.176   3.909   6.274 -1.1660 -0.7160  0.7949
    1OL     C16 4627   5.240   4.068   6.137 -0.8409  0.0247  0.5743
    1OL     H6R 4628   5.337   4.100   6.176 -0.8755  2.2850 -1.0277
    1OL     H6S 4629   5.191   4.157   6.099  0.9818  1.0420  0.4997
    1OL     C17 4630   5.266   3.977   6.009  0.1150 -0.2421 -0.5285
    1OL     H7R 4631   5.332   3.895   6.039 -0.7510 -1.0624 -0.8126
    1OL     H7S 4632   5.323   4.040   5.940 -0.2105  2.7589  1.7708
    1OL     C18 4633   5.140   3.940   5.939 -0.2675 -0.4318 -0.0430
    1OL     H8R 4634   5.076   4.022   5.905 -3.3628 -1.0942  3.4679
    1OL     H8S 4635   5.076   3.879   6.004  0.1195 -1.5061 -0.6444
    1OL     C19 4636   5.185   3.839   5.834 -0.1800  0.1215 -0.0994
    1OL     H9R 4637   5.257   3.763   5.862  0.1057  1.1716  2.2597
    1OL    C110 4638   5.143   3.838   5.706  0.8042 -0.1726  0.2299
    1OL    H10R 4639   5.185   3.759   5.645  0.1818 -0.3092 -0.0239
    1OL    C111 4640   5.043   3.936   5.642  0.1585  0.7478 -0.5996
    1OL    H11R 4641   4.999   4.001   5.718 -2.0922  0.3943 -1.5133
    1OL    H11S 4642   4.955   3.889   5.597  0.4598 -0.6017  0.1634
    1OL    C112 4643   5.115   4.016   5.536 -0.3077 -0.0833 -0.2929
    1OL    H12R 4644   5.189   4.067   5.598 -0.5265 -3.4720  3.1234
    1OL    H12S 4645   5.039   4.089   5.505 -0.8886  0.5989  2.4864
    1OL    C113 4646   5.176   3.936   5.423  0.0011 -0.7758  0.2768
    1OL    H13R 4647   5.128   3.839   5.413  1.3193 -1.2850 -1.5994
    1OL    H13S 4648   5.279   3.905   5.442  0.0567 -0.8866 -0.2052
    1OL    C114 4649   5.170   4.010   5.284 -0.2106  1.0097 -0.1037
    1OL    H14R 4650   5.242   3.951   5.227  0.9959  2.4973 -0.1799
    1OL    H14S 4651   5.211   4.111   5.291 -2.5791  1.9804  0.7314
    1OL    C115 4652   5.027   4.009   5.222 -1.2026  0.7883 -0.0701
    1OL    H15R 4653   4.972   4.095   5.260 -0.7958  1.0164  0.0061
    1OL    H15S 4654   4.979   3.921   5.264 -0.5700 -0.8235 -2.5100
    1OL    C116 4655   5.023   3.998   5.064  0.4911  0.2558  0.0842
    1OL    H16R 4656   5.076   3.905   5.041  0.0524 -0.6071  2.2608
    1OL    H16S 4657   5.079   4.082   5.022  0.6963 -0.1418 -0.4441
    1OL    C117 4658   4.888   3.981   5.002 -0.0458 -0.6187  0.4338
    1OL    H17R 4659   4.831   4.075   5.003  1.3845  0.2803  1.6197
    1OL    H17S 4660   4.827   3.912   5.061 -1.0609  0.7015  1.0059
    1OL    C118 4661   4.892   3.910   4.862  0.0100  0.2688  0.1327
    1OL    H18R 4662   4.957   3.824   4.874 -0.2432  0.1970  1.0154
    1OL    H18S 4663   4.933   3.974   4.783 -0.9450 -0.3831 -0.9279
    1OL    H18T 4664   4.793   3.875   4.833  0.2271 -1.1001  0.9874
    1PA    C116 4665   1.328   1.444   5.176 -0.0145  0.1445  0.4931
    1PA    H16R 4666   1.305   1.542   5.219 -0.3778 -0.9834  3.0490
    1PA    H16S 4667   1.239   1.384   5.195  1.9148 -2.2046  3.0474
    1PA    H16T 4668   1.339   1.442   5.068 -2.1340 -0.8060  0.2462
    1PA    C115 4669   1.465   1.392   5.242  0.0753 -0.2369 -0.2773
    1PA    H15R 4670   1.495   1.301   5.191 -0.6244 -0.7585  0.2256
    1PA    H15S 4671   1.548   1.463   5.241  1.2765 -1.5795 -1.9320
    1PA    C114 4672   1.455   1.370   5.393  0.2757  0.6234  0.3481
    1PA    H14R 4673   1.357   1.325   5.413 -0.3297  2.0542  0.6834
    1PA    H14S 4674   1.537   1.302   5.416 -0.3251 -1.4339 -2.9478
    1PA    C113 4675   1.452   1.496   5.478  0.1915 -0.4849  0.0384
    1PA    H13R 4676   1.553   1.534   5.489  1.1279 -2.9527  0.5782
    1PA    H13S 4677   1.390   1.575   5.434  3.3313  0.7260 -2.5956
    1PA    C112 4678   1.397   1.466   5.617 -0.4754  0.6201  0.5503
    1PA    H12R 4679   1.295   1.428   5.613 -0.5923  1.0436 -0.7278
    1PA    H12S 4680   1.459   1.385   5.657  0.4961  0.3398 -1.4038
    1PA    C111 4681   1.395   1.584   5.717  0.6499 -0.1952  0.3986
    1PA    H11R 4682   1.491   1.635   5.710 -1.0531  3.3572  0.5642
    1PA    H11S 4683   1.320   1.653   5.678  0.8223 -0.7328 -0.9415
    1PA    C110 4684   1.363   1.534   5.857  0.1367  0.1481  0.2218
    1PA    H10R 4685   1.455   1.482   5.886 -0.3391 -0.3713  0.8239
    1PA    H10S 4686   1.351   1.619   5.925  1.3657  0.4125  0.1240
    1PA     C19 4687   1.238   1.437   5.871 -0.2890 -0.5359  0.1145
    1PA     H9R 4688   1.152   1.494   5.833  0.5893  1.7696  1.3604
    1PA     H9S 4689   1.260   1.342   5.822 -1.6620 -1.1282  0.5998
    1PA     C18 4690   1.215   1.412   6.017 -0.4391 -0.2226 -0.4197
    1PA     H8R 4691   1.209   1.509   6.067 -0.2139  0.5825 -1.9075
    1PA     H8S 4692   1.130   1.348   6.040  0.1076 -0.8627 -0.1416
    1PA     C17 4693   1.343   1.338   6.078 -0.7542  0.0998  0.0661
    1PA     H7R 4694   1.388   1.273   6.002 -1.2578  0.3099 -0.4219
    1PA     H7S 4695   1.427   1.407   6.089  0.5442 -1.2675 -0.8393
    1PA     C16 4696   1.320   1.254   6.202 -0.0074  0.5570  0.6107
    1PA     H6R 4697   1.217   1.216   6.194  0.0464  0.3706  0.7909
    1PA     H6S 4698   1.385   1.166   6.200 -1.1041 -0.2646 -0.0774
    1PA     C15 4699   1.345   1.335   6.333 -0.5036  0.0616  0.6284
    1PA     H5R 4700   1.446   1.377   6.328  1.2190 -3.3631  2.9087
    1PA     H5S 4701   1.279   1.423   6.336  0.8297  1.1619 -0.6973
    1PA     C14 4702   1.329   1.254   6.455 -0.0147  0.5164 -0.3279
    1PA     H4R 4703   1.390   1.164   6.450  0.7898  1.0411 -0.1801
    1PA     H4S 4704   1.362   1.314   6.541 -0.3790  0.7244 -0.3308
    1PA     C13 4705   1.185   1.210   6.487 -0.0633 -0.6658  0.2151
    1PA     H3R 4706   1.121   1.297   6.472  1.0721  0.0178 -0.8071
    1PA     H3S 4707   1.156   1.135   6.413 -0.2674 -0.3650 -0.0133
    1PA     C12 4708   1.174   1.140   6.625  0.6304  0.1575 -0.3736
    1PA     H2R 4709   1.154   1.034   6.607 -0.4885  0.6773 -2.4428
    1PA     H2S 4710   1.267   1.154   6.680  0.1250 -1.5717  1.0438
    1PC     C11 4711   1.051   1.189   6.701  0.4541  0.3707 -0.1918
    1PC     O12 4712   1.054   1.271   6.793 -0.6975  0.6457 -0.8268
    1PC     O11 4713   0.941   1.117   6.659 -0.0256 -0.5021 -0.5074
    1PC      C1 4714   0.816   1.125   6.739 -0.3741  0.6448 -0.4154
    1PC      HR 4715   0.755   1.056   6.681 -0.5603  0.0597  0.4692
    1PC      HS 4716   0.842   1.088   6.838  0.9587 -1.4157 -1.4560
    1PC      C2 4717   0.741   1.267   6.743  0.0327 -0.4448  0.0163
    1PC      HX 4718   0.799   1.348   6.790 -1.4210  1.0317 -0.6202
    1PC      C3 4719   0.602   1.250   6.806  0.4576 -0.3000  0.1465
    1PC      HA 4720   0.534   1.201   6.736  0.9708  0.7271 -1.1286
    1PC      HB 4721   0.601   1.204   6.905  0.9782  1.5385  1.0658
    1PC     O31 4722   0.542   1.380   6.824  0.2476 -0.2580 -0.3028
    1PC     P31 4723   0.572   1.463   6.950 -0.1992 -0.1949 -0.1804
    1PC     O32 4724   0.500   1.381   7.059 -0.4729 -0.1925  0.1952
    1PC     C31 4725   0.359   1.385   7.069  0.1479 -0.0315  0.4939
    1PC     H1A 4726   0.329   1.482   7.111 -0.6297 -1.0042  2.2749
    1PC     H1B 4727   0.318   1.378   6.967  1.7485  0.7496 -0.2475
    1PC     C32 4728   0.304   1.283   7.162 -0.7586 -0.0739 -0.7080
    1PC     H2A 4729   0.368   1.303   7.248  1.6159  0.8317 -2.5775
    1PC     H2B 4730   0.198   1.300   7.183 -0.2304  1.1911  1.1341
    1PC     N31 4731   0.319   1.137   7.124  0.0904  0.8105 -0.1436
    1PC     C33 4732   0.234   1.070   7.218 -0.4165 -0.4905  0.5654
    1PC     H3A 4733   0.242   0.961   7.209  0.9694 -0.3695  0.0873
    1PC     H3B 4734   0.267   1.092   7.319  0.9678 -3.5678  0.9124
    1PC     H3C 4735   0.132   1.105   7.205  0.1675  1.1335  0.1933
    1PC     C34 4736   0.286   1.111   6.981 -0.3659 -0.3222 -0.1929
    1PC     H4A 4737   0.345   1.177   6.917  1.5141 -0.9305  0.8401
    1PC     H4B 4738   0.316   1.008   6.965  1.1141 -0.1057  0.9141
    1PC     H4C 4739   0.179   1.129   6.965 -0.1750  1.3668  0.1836
    1PC     C35 4740   0.459   1.094   7.153 -0.1869  0.2398 -0.3132
    1PC     H5A 4741   0.483   1.122   7.255 -0.5582 -1.7060  0.3661
    1PC     H5B 4742   0.527   1.149   7.089  1.4000  0.8895  1.8265
    1PC     H5C 4743   0.478   0.991   7.120  0.5286  0.9138 -2.1459
    1PC     O33 4744   0.715   1.451   6.984 -0.0965  0.0038  0.3477
    1PC     O34 4745   0.516   1.596   6.936 -0.1288 -0.3309  0.7195
    1PC     O21 4746   0.723   1.301   6.605 -0.1116 -0.2320 -0.5297
    1PC     C21 4747   0.812   1.381   6.540 -0.1768  0.8640 -0.3579
    1PC     O22 4748   0.900   1.443   6.599  0.0613  0.2321 -0.1601
    1OL     C12 4749   0.795   1.384   6.390 -0.0585  0.1758  0.0116
    1OL     H2R 4750   0.694   1.347   6.371 -0.5670  0.6138  1.6885
    1OL     H2S 4751   0.849   1.299   6.349  0.9731  0.6879  0.2929
    1OL     C13 4752   0.839   1.513   6.314 -0.0977  0.5910  0.7960
    1OL     H3R 4753   0.938   1.548   6.345  0.4926 -1.0117  0.8158
    1OL     H3S 4754   0.765   1.590   6.337 -0.0804  0.7877  0.2111
    1OL     C14 4755   0.860   1.489   6.165 -1.0424  0.2719  0.1745
    1OL     H4R 4756   0.926   1.405   6.144 -1.1795  0.0503  0.6245
    1OL     H4S 4757   0.914   1.579   6.134 -0.2717  0.4775  1.9316
    1OL     C15 4758   0.723   1.453   6.095 -0.0591 -0.1426  1.0760
    1OL     H5R 4759   0.642   1.524   6.115 -0.2903 -0.4388  1.1950
    1OL     H5S 4760   0.689   1.355   6.129  2.0506 -1.5554 -0.5976
    1OL     C16 4761   0.743   1.443   5.942  0.4099  0.1211 -0.2412
    1OL     H6R 4762   0.795   1.350   5.918 -1.8781 -1.3379  0.1580
    1OL     H6S 4763   0.799   1.531   5.911  1.7243 -0.5152  0.2569
    1OL     C17 4764   0.610   1.452   5.858  0.3619  0.0135 -0.0335
    1OL     H7R 4765   0.583   1.558   5.852  0.0842  0.1312  2.3604
    1OL     H7S 4766   0.524   1.402   5.903  1.7957 -1.5840  1.0635
    1OL     C18 4767   0.620   1.432   5.699  0.1204  1.0020 -0.3652
    1OL     H8R 4768   0.692   1.501   5.654 -0.8502  1.6534 -0.9452
    1OL     H8S 4769   0.517   1.448   5.669 -0.7735 -1.3559  1.0947
    1OL     C19 4770   0.652   1.287   5.667 -0.5145  0.1170 -0.0335
    1OL     H9R 4771   0.603   1.204   5.717 -1.2589  0.5931  0.0481
    1OL    C110 4772   0.747   1.241   5.585 -0.3144 -0.1712 -0.5901
    1OL    H10R 4773   0.757   1.134   5.573 -1.1393 -0.5713  1.7605
    1OL    C111 4774   0.853   1.327   5.514 -0.4279 -0.4657  0.1925
    1OL    H11R 4775   0.937   1.343   5.581  0.5311 -1.3328 -0.7653
    1OL    H11S 4776   0.817   1.423   5.476 -0.4610 -0.4888  0.1648
    1OL    C112 4777   0.915   1.251   5.396 -0.5961 -0.1250  0.6145
    1OL    H12R 4778   0.956   1.324   5.326 -2.3660  0.9585  0.6680
    1OL    H12S 4779   0.839   1.198   5.339 -0.6721  0.1374  0.4747
    1OL    C113 4780   1.032   1.164   5.441  0.6442 -0.5092 -0.0345
    1OL    H13R 4781   1.004   1.089   5.515  1.2724 -0.2878  0.4427
    1OL    H13S 4782   1.100   1.231   5.494  0.0844 -0.3602  0.5115
    1OL    C114 4783   1.116   1.118   5.322 -0.2717 -0.2194 -0.3523
    1OL    H14R 4784   1.212   1.085   5.362  0.2909  1.7595  0.0333
    1OL    H14S 4785   1.132   1.200   5.252 -0.4112  0.7491  0.7338
    1OL    C115 4786   1.038   1.003   5.250 -0.1903 -0.1726  0.5844
    1OL    H15R 4787   1.084   0.990   5.152 -0.4626  3.3638 -0.1658
    1OL    H15S 4788   0.934   1.034   5.232  0.1340 -0.1733 -1.5200
    1OL    C116 4789   1.047   0.881   5.336 -0.2773 -0.0152 -0.2541
    1OL    H16R 4790   1.016   0.905   5.438  2.0170  0.9094  0.2961
    1OL    H16S 4791   1.153   0.867   5.357 -0.4068  0.7813  1.0035
    1OL    C117 4792   0.969   0.759   5.265  0.0014  0.8517 -1.4036
    1OL    H17R 4793   1.016   0.741   5.168 -1.6496 -0.1751 -2.0613
    1OL    H17S 4794   0.868   0.799   5.249 -0.2942  1.6431  1.7655
    1OL    C118 4795   0.968   0.628   5.348  0.5577 -0.1023 -0.4886
    1OL    H18R 4796   0.943   0.658   5.450 -0.4169 -2.0845 -0.0942
    1OL    H18S 4797   1.067   0.582   5.349  0.5710 -0.0904 -1.1766
    1OL    H18T 4798   0.892   0.554   5.322  0.8465  0.1220 -2.0863
    1PA    C116 4799   0.971   1.945   4.646 -0.4392 -0.3229  0.8192
    1PA    H16R 4800   1.036   1.903   4.722  0.4492 -1.1713 -0.3679
    1PA    H16S 4801   1.029   1.999   4.571 -2.1786  1.2035  0.4920
    1PA    H16T 4802   0.922   1.862   4.595 -0.2909  0.8359 -1.3325
    1PA    C115 4803   0.887   2.051   4.723 -0.0363 -0.2215  0.1395
    1PA    H15R 4804   0.955   2.102   4.792 -0.7626 -0.4721  1.0507
    1PA    H15S 4805   0.836   2.119   4.654  3.2833 -0.3381 -2.7196
    1PA    C114 4806   0.779   1.977   4.804  0.0107 -0.2372  0.2458
    1PA    H14R 4807   0.691   1.952   4.743 -1.2260 -0.1435  1.9069
    1PA    H14S 4808   0.820   1.885   4.848  0.9494 -0.4294 -0.9811
    1PA    C113 4809   0.716   2.046   4.925  0.4423 -0.3475 -0.2761
    1PA    H13R 4810   0.683   2.148   4.904  1.6112  0.4850  1.6478
    1PA    H13S 4811   0.631   1.984   4.957  1.9255 -2.2341  0.1973
    1PA    C112 4812   0.814   2.044   5.040 -0.1529 -0.5871  0.2928
    1PA    H12R 4813   0.871   1.951   5.040  1.8451  0.5777  0.5561
    1PA    H12S 4814   0.894   2.117   5.023 -2.0901  2.1831  2.1154
    1PA    C111 4815   0.761   2.073   5.183 -0.1638 -0.2557 -0.1045
    1PA    H11R 4816   0.726   2.175   5.169 -1.4385 -0.7458 -0.6984
    1PA    H11S 4817   0.672   2.013   5.202 -0.2375  0.1912  0.9973
    1PA    C110 4818   0.867   2.078   5.296  0.3027 -0.1502  0.1326
    1PA    H10R 4819   0.915   1.982   5.312 -2.1321 -1.5841 -0.6513
    1PA    H10S 4820   0.936   2.162   5.283  0.3595 -0.5513 -3.2256
    1PA     C19 4821   0.788   2.102   5.428  0.4805  0.4714  0.0620
    1PA     H9R 4822   0.739   2.199   5.416 -0.1045 -0.0012 -1.7365
    1PA     H9S 4823   0.715   2.026   5.455  2.2720 -1.2943  0.1250
    1PA     C18 4824   0.874   2.133   5.545  0.2758 -0.0054  0.7965
    1PA     H8R 4825   0.923   2.037   5.564  0.3114 -0.0226  0.6202
    1PA     H8S 4826   0.950   2.204   5.511 -0.7807 -0.3377 -2.7143
    1PA     C17 4827   0.804   2.186   5.669 -0.9278 -0.6553  0.6083
    1PA     H7R 4828   0.886   2.200   5.740  1.1637  0.0170 -1.7643
    1PA     H7S 4829   0.751   2.279   5.648  0.3085  0.1838  1.0295
    1PA     C16 4830   0.695   2.088   5.724 -0.2628 -0.1027  0.5763
    1PA     H6R 4831   0.626   2.071   5.641  0.1838  3.6208 -0.7481
    1PA     H6S 4832   0.733   1.991   5.756 -0.1041 -0.5855 -1.0132
    1PA     C15 4833   0.621   2.147   5.845 -0.4750  0.3141  0.3304
    1PA     H5R 4834   0.693   2.148   5.927  2.1087  0.9378 -1.7850
    1PA     H5S 4835   0.587   2.250   5.833 -0.3588  0.4516  1.1136
    1PA     C14 4836   0.499   2.057   5.885  0.6031  0.0563 -0.7743
    1PA     H4R 4837   0.439   2.056   5.794  0.1150  0.1917 -0.4589
    1PA     H4S 4838   0.539   1.961   5.918  2.6552  0.3686 -2.2016
    1PA     C13 4839   0.429   2.118   6.004 -0.2885 -0.0525  0.1993
    1PA     H3R 4840   0.497   2.091   6.085 -1.9394 -0.0434  1.6431
    1PA     H3S 4841   0.426   2.225   5.986  0.6208  0.0073  0.3356
    1PA     C12 4842   0.288   2.068   6.040 -0.1651 -0.3498 -0.2812
    1PA     H2R 4843   0.213   2.104   5.969  0.8154  1.6144 -0.3756
    1PA     H2S 4844   0.282   1.959   6.048 -1.6485 -0.2210  0.6950
    1PC     C11 4845   0.242   2.118   6.175  0.1102  0.5498 -0.4060
    1PC     O12 4846   0.269   2.224   6.224 -0.0936 -0.2227 -0.0652
    1PC     O11 4847   0.159   2.027   6.227  0.1450  0.6707 -0.4742
    1PC      C1 4848   0.112   2.036   6.370  0.5501 -0.4137 -0.2714
    1PC      HR 4849   0.087   2.139   6.395  1.2917  0.0496 -1.3996
    1PC      HS 4850   0.017   1.982   6.371 -0.4624  1.2629  1.8689
    1PC      C2 4851   0.213   1.982   6.473 -0.5626  0.7392  0.0656
    1PC      HX 4852   0.214   1.873   6.461 -1.6057  0.8311 -1.1329
    1PC      C3 4853   0.170   2.013   6.618  0.1709 -0.1807  0.5180
    1PC      HA 4854   0.093   1.940   6.645  0.7702 -2.4963 -3.2442
    1PC      HB 4855   0.257   1.999   6.682  1.1977 -1.6522 -1.1241
    1PC     O31 4856   0.102   2.138   6.628  0.3084 -0.5446 -0.0334
    1PC     P31 4857   0.155   2.240   6.731  0.4424 -0.0107  0.5835
    1PC     O32 4858   0.297   2.277   6.687  0.0122  0.0298  0.5525
    1PC     C31 4859   0.324   2.356   6.577 -0.4178  0.1941  0.2734
    1PC     H1A 4860   0.280   2.308   6.489  2.0194  0.4980 -1.1930
    1PC     H1B 4861   0.267   2.449   6.579 -0.5950  0.0765  0.7347
    1PC     C32 4862   0.479   2.378   6.545 -0.2013  0.9353  0.1700
    1PC     H2A 4863   0.532   2.282   6.539 -0.2225  1.0087 -1.4522
    1PC     H2B 4864   0.483   2.429   6.449  0.0156 -0.6237 -0.6799
    1PC     N31 4865   0.555   2.466   6.632 -0.0026 -0.3673 -0.1112
    1PC     C33 4866   0.569   2.414   6.768  0.0653 -0.0612 -0.3685
    1PC     H3A 4867   0.609   2.313   6.770  0.2655 -0.0358 -1.9351
    1PC     H3B 4868   0.648   2.472   6.815 -1.4067 -0.2604  2.5820
    1PC     H3C 4869   0.467   2.412   6.806 -0.1768 -0.2211 -1.0111
    1PC     C34 4870   0.693   2.482   6.572  0.3832  0.0491  0.5743
    1PC     H4A 4871   0.732   2.381   6.558  1.7840  0.8289 -1.8733
    1PC     H4B 4872   0.686   2.531   6.474  1.0464 -0.7636  0.1118
    1PC     H4C 4873   0.764   2.542   6.629 -1.5373  1.7912  1.2605
    1PC     C35 4874   0.507   2.603   6.649  0.3728  0.7923 -0.9888
    1PC     H5A 4875   0.407   2.582   6.690  1.7845 -0.4763  2.1554
    1PC     H5B 4876   0.491   2.649   6.552 -0.7967  2.3513 -0.1019
    1PC     H5C 4877   0.577   2.653   6.716 -0.3179  0.6814 -0.1616
    1PC     O33 4878   0.073   2.359   6.713  0.3641 -0.1418  0.0132
    1PC     O34 4879   0.172   2.187   6.863 -0.8049 -0.1576  0.6467
    1PC     O21 4880   0.344   2.034   6.445  0.0656 -0.0675  0.0290
    1PC     C21 4881   0.451   1.968   6.487  0.0319 -0.1134  0.6473
    1PC     O22 4882   0.447   1.878   6.568  0.1010 -0.0788  0.2568
    1OL     C12 4883   0.575   2.004   6.409  0.0893 -0.8394 -0.1705
    1OL     H2R 4884   0.655   2.000   6.484  0.8146  1.2984 -0.7652
    1OL     H2S 4885   0.568   2.104   6.367 -0.3772 -0.1180  1.5346
    1OL     C13 4886   0.597   1.894   6.301  0.3420  0.5705 -0.1277
    1OL     H3R 4887   0.506   1.876   6.245  0.1255  0.9706  0.0903
    1OL     H3S 4888   0.633   1.801   6.345 -0.2396  0.5631  0.3394
    1OL     C14 4889   0.722   1.938   6.229 -0.1667  0.0294  0.1238
    1OL     H4R 4890   0.770   2.017   6.287  1.4025 -0.6868 -0.1481
    1OL     H4S 4891   0.688   1.982   6.134  0.6534 -1.0465 -0.6926
    1OL     C15 4892   0.829   1.828   6.196 -0.2231  0.1777 -0.2248
    1OL     H5R 4893   0.782   1.751   6.135 -1.3842 -1.4460  2.5249
    1OL     H5S 4894   0.855   1.781   6.292 -2.0184 -1.1603 -0.3407
    1OL     C16 4895   0.963   1.881   6.135 -0.4203 -0.1021 -0.5681
    1OL     H6R 4896   1.024   1.792   6.117 -0.1605  0.5013 -3.1743
    1OL     H6S 4897   1.022   1.935   6.209 -0.3116 -2.6441  1.2984
    1OL     C17 4898   0.948   1.952   5.996 -0.1594 -0.6619  0.4242
    1OL     H7R 4899   0.912   2.054   6.010  1.8735  0.3649 -1.2042
    1OL     H7S 4900   0.874   1.895   5.939 -1.3569  0.3602  0.8913
    1OL     C18 4901   1.075   1.960   5.909  0.3122  0.3966 -0.6833
    1OL     H8R 4902   1.150   2.005   5.974 -1.6415  0.6803  1.4835
    1OL     H8S 4903   1.049   2.026   5.826 -1.6746 -0.1280 -0.5340
    1OL     C19 4904   1.116   1.826   5.847  0.1030  0.6013 -0.4107
    1OL     H9R 4905   1.207   1.781   5.887 -0.4171 -0.6628 -0.6134
    1OL    C110 4906   1.060   1.754   5.756  0.0851 -0.2335  0.0143
    1OL    H10R 4907   1.108   1.659   5.733 -0.4911 -0.0138 -2.2976
    1OL    C111 4908   0.938   1.783   5.668  0.2227  0.1269  0.1100
    1OL    H11R 4909   0.890   1.877   5.696 -0.0620  0.3254 -0.9950
    1OL    H11S 4910   0.863   1.706   5.686 -0.4328  0.6434 -0.3857
    1OL    C112 4911   0.987   1.775   5.525 -0.8372 -0.9517  0.3119
    1OL    H12R 4912   1.075   1.839   5.520 -2.4272  1.5831  2.2928
    1OL    H12S 4913   0.913   1.810   5.452 -0.8386 -1.8077 -0.1081
    1OL    C113 4914   1.029   1.632   5.486  0.0656  0.0233 -0.5324
    1OL    H13R 4915   0.951   1.567   5.524  2.0303 -2.5181 -0.6152
    1OL    H13S 4916   1.126   1.611   5.532  0.3014  0.2731 -0.9139
    1OL    C114 4917   1.058   1.610   5.339  0.4752  0.0475  0.2762
    1OL    H14R 4918   1.102   1.511   5.333 -1.0029 -0.6715  0.8547
    1OL    H14S 4919   1.130   1.684   5.303  1.0540 -0.6803 -0.0811
    1OL    C115 4920   0.933   1.613   5.252  0.3765  0.0617  0.0333
    1OL    H15R 4921   0.890   1.713   5.251  1.4184  0.5245  0.2057
    1OL    H15S 4922   0.868   1.547   5.311 -0.1329  0.2377 -0.3304
    1OL    C116 4923   0.950   1.552   5.114  0.7840 -0.2827  0.0249
    1OL    H16R 4924   0.982   1.448   5.123  1.5094 -0.0269  0.4485
    1OL    H16S 4925   1.017   1.611   5.052 -0.5410  1.1351 -0.1252
    1OL    C117 4926   0.827   1.575   5.023 -0.2491  0.4299  0.0822
    1OL    H17R 4927   0.808   1.683   5.021  1.3165  0.7244 -0.5513
    1OL    H17S 4928   0.756   1.509   5.071  0.7384 -1.2667 -0.7148
    1OL    C118 4929   0.846   1.527   4.878 -0.4013  0.1047  0.3580
    1OL    H18R 4930   0.757   1.544   4.818 -1.4989 -3.0322  0.9292
    1OL    H18S 4931   0.936   1.572   4.835 -0.4730  0.0488  0.1512
    1OL    H18T 4932   0.862   1.419   4.876  0.5820  0.1756 -3.3945
    1PA    C116 4933   0.393   4.913   5.092 -0.5716  0.0625  0.5436
    1PA    H16R 4934   0.333   4.982   5.151  1.5168  1.8419  0.7115
    1PA    H16S 4935   0.407   4.952   4.990 -0.1519  0.4769  0.7566
    1PA    H16T 4936   0.492   4.899   5.136 -0.9216 -1.1513  0.9744
    1PA    C115 4937   0.314   4.773   5.109  0.3108  0.1063 -0.3218
    1PA    H15R 4938   0.297   4.752   5.215 -3.0741  1.1967 -0.5230
    1PA    H15S 4939   0.214   4.785   5.066  1.0704  0.0348 -2.2042
    1PA    C114 4940   0.404   4.654   5.048  0.3711  0.2566  0.3734
    1PA    H14R 4941   0.341   4.565   5.052 -0.3516  0.8081  2.4529
    1PA    H14S 4942   0.416   4.667   4.940 -0.1321 -2.0921 -0.0224
    1PA    C113 4943   0.544   4.634   5.112  0.1545 -0.5240  0.0331
    1PA    H13R 4944   0.579   4.536   5.079 -0.0392 -1.4794  2.4152
    1PA    H13S 4945   0.615   4.710   5.080  2.0469 -1.9750  0.5749
    1PA    C112 4946   0.545   4.619   5.269  0.1878  0.0009  0.0898
    1PA    H12R 4947   0.442   4.598   5.298 -0.5300 -1.4479 -3.0860
    1PA    H12S 4948   0.582   4.520   5.294 -0.5233 -0.5131 -0.8286
    1PA    C111 4949   0.620   4.731   5.353 -0.7033  0.0365  0.0181
    1PA    H11R 4950   0.729   4.729   5.346 -0.7437  1.2000 -1.3364
    1PA    H11S 4951   0.588   4.824   5.307 -0.4747  1.1342  1.9494
    1PA    C110 4952   0.584   4.725   5.500  0.4399 -0.0352  0.2533
    1PA    H10R 4953   0.603   4.824   5.541  0.7313 -0.1021  0.2765
    1PA    H10S 4954   0.476   4.707   5.503  0.9913 -4.4011  0.4907
    1PA     C19 4955   0.638   4.608   5.581  0.6068  0.1057 -0.4106
    1PA     H9R 4956   0.613   4.618   5.687  3.4641 -0.4023  0.3896
    1PA     H9S 4957   0.597   4.512   5.550  1.6587 -0.2008 -0.9247
    1PA     C18 4958   0.794   4.595   5.586  0.1556 -0.0979  0.5392
    1PA     H8R 4959   0.823   4.586   5.481 -1.4470  0.4038  0.0261
    1PA     H8S 4960   0.845   4.678   5.634  0.9264  0.0664 -0.5100
    1PA     C17 4961   0.837   4.466   5.656  0.1543  0.3250 -0.1897
    1PA     H7R 4962   0.797   4.380   5.603 -2.5067  1.7516 -0.6394
    1PA     H7S 4963   0.945   4.458   5.639  0.2330  1.3876 -0.2734
    1PA     C16 4964   0.810   4.451   5.806  0.5258  0.0073  0.3213
    1PA     H6R 4965   0.875   4.518   5.864  2.5251 -2.8073  1.6074
    1PA     H6S 4966   0.706   4.474   5.828  0.2185 -1.2292  0.2373
    1PA     C15 4967   0.850   4.305   5.841  0.1951 -0.1511 -0.2137
    1PA     H5R 4968   0.797   4.237   5.774  0.5508 -0.3888 -0.2623
    1PA     H5S 4969   0.957   4.295   5.821  0.0460 -2.2450 -0.1232
    1PA     C14 4970   0.826   4.265   5.984 -0.0240  0.3611  0.8620
    1PA     H4R 4971   0.886   4.323   6.054  2.6081  1.5642 -2.1338
    1PA     H4S 4972   0.723   4.284   6.015 -0.6935 -3.0550  1.0940
    1PA     C13 4973   0.846   4.109   6.000 -0.4416 -0.2073  0.0970
    1PA     H3R 4974   0.770   4.048   5.950 -2.4509  0.2652  2.4430
    1PA     H3S 4975   0.941   4.078   5.955 -1.0725 -2.2190  0.0568
    1PA     C12 4976   0.842   4.068   6.153 -0.3359 -0.4051  0.7235
    1PA     H2R 4977   0.917   4.125   6.208 -0.3454 -4.3162  5.4735
    1PA     H2S 4978   0.741   4.092   6.186 -0.6418  0.8942 -0.9649
    1PC     C11 4979   0.864   3.927   6.183 -0.2468 -0.3750  0.1105
    1PC     O12 4980   0.813   3.844   6.120  0.2489 -0.4079 -0.8572
    1PC     O11 4981   0.971   3.903   6.263  0.9733  0.2819  0.1436
    1PC      C1 4982   0.996   3.766   6.314 -0.1224  0.2412 -0.3660
    1PC      HR 4983   0.903   3.731   6.359  0.1797  1.3309  1.1962
    1PC      HS 4984   1.013   3.693   6.234 -0.6255  0.2686 -0.4983
    1PC      C2 4985   1.115   3.766   6.413 -0.2460  0.1352  0.1547
    1PC      HX 4986   1.122   3.666   6.457 -1.6602 -0.3960 -0.7918
    1PC      C3 4987   1.116   3.868   6.532  0.4094 -0.6734 -0.2584
    1PC      HA 4988   1.208   3.926   6.526  1.0070 -1.5913 -0.0346
    1PC      HB 4989   1.029   3.934   6.525  1.7157  1.0208 -1.4720
    1PC     O31 4990   1.131   3.796   6.654  0.7004  0.2824 -0.3862
    1PC     P31 4991   0.998   3.766   6.738  0.0040  0.1157  0.1946
    1PC     O32 4992   0.976   3.898   6.819  0.1808  0.1417  0.5178
    1PC     C31 4993   1.070   3.940   6.922  0.5815  0.2947  0.4974
    1PC     H1A 4994   1.112   3.851   6.969 -1.0471 -0.6614  0.2205
    1PC     H1B 4995   1.143   4.008   6.878  1.2796 -1.0782 -0.5598
    1PC     C32 4996   0.988   4.003   7.025 -0.8997  0.1181  0.2849
    1PC     H2A 4997   1.050   4.084   7.061  0.4111 -0.2868 -0.9772
    1PC     H2B 4998   0.913   4.059   6.968  0.4037 -0.0716 -1.7275
    1PC     N31 4999   0.925   3.921   7.138 -0.3774 -0.3741  0.4629
    1PC     C33 5000   0.830   3.996   7.216  0.3524  0.4307  0.3169
    1PC     H3A 5001   0.752   4.040   7.155  0.3423 -0.3844 -0.2687
    1PC     H3B 5002   0.783   3.925   7.285  1.1691  0.4917  0.9507
    1PC     H3C 5003   0.891   4.073   7.265  0.7915  1.1271 -1.2809
    1PC     C34 5004   0.859   3.802   7.079 -0.5807 -0.3102  0.4446
    1PC     H4A 5005   0.779   3.849   7.021  1.2992 -1.3062 -3.2680
    1PC     H4B 5006   0.924   3.757   7.004 -1.6305 -2.4154  0.7140
    1PC     H4C 5007   0.838   3.723   7.152  0.8229 -0.5501  0.6108
    1PC     C35 5008   1.025   3.872   7.236 -0.1488  0.1326  0.4394
    1PC     H5A 5009   0.973   3.807   7.306 -1.6132  2.7305  1.9283
    1PC     H5B 5010   1.045   3.960   7.297 -2.4508  1.0782 -0.0743
    1PC     H5C 5011   1.111   3.829   7.185 -0.6968  0.9354 -1.2375
    1PC     O33 5012   0.887   3.740   6.651  0.0597 -0.4325 -0.9034
    1PC     O34 5013   1.037   3.658   6.835  0.3858 -0.4603 -0.2842
    1PC     O21 5014   1.249   3.789   6.354 -0.2781  0.1815 -0.4831
    1PC     C21 5015   1.317   3.688   6.299 -0.6530 -0.1598 -0.5094
    1PC     O22 5016   1.284   3.571   6.309  0.2318  0.6001  0.3058
    1OL     C12 5017   1.441   3.737   6.228 -0.2919 -0.5565 -0.2870
    1OL     H2R 5018   1.511   3.654   6.222  1.1184  0.4081  1.6895
    1OL     H2S 5019   1.482   3.818   6.290 -0.1230 -0.1807 -0.8816
    1OL     C13 5020   1.415   3.787   6.086 -0.3510  0.0121 -0.7425
    1OL     H3R 5021   1.501   3.847   6.053  0.8369  0.3242  2.5239
    1OL     H3S 5022   1.331   3.857   6.092 -2.3262 -2.3569  1.4778
    1OL     C14 5023   1.386   3.660   6.000 -0.3699  0.1878  0.0241
    1OL     H4R 5024   1.314   3.598   6.054  1.1184  0.7423  2.8393
    1OL     H4S 5025   1.471   3.591   5.993  0.2829  0.9807 -0.1230
    1OL     C15 5026   1.328   3.688   5.865  0.4749  0.3387  0.2510
    1OL     H5R 5027   1.294   3.592   5.826  0.7330  1.4577 -2.9912
    1OL     H5S 5028   1.404   3.722   5.795 -1.4663 -2.2771 -3.4528
    1OL     C16 5029   1.208   3.780   5.862 -0.0660  0.2023 -0.4542
    1OL     H6R 5030   1.239   3.885   5.864  0.5295  0.0487 -1.0966
    1OL     H6S 5031   1.153   3.758   5.954  0.1780 -0.9633 -0.5705
    1OL     C17 5032   1.117   3.753   5.743 -0.3040 -0.1688 -0.3751
    1OL     H7R 5033   1.038   3.827   5.747  0.7035  0.9046  0.0910
    1OL     H7S 5034   1.076   3.651   5.741 -0.1770 -0.2623  0.9023
    1OL     C18 5035   1.188   3.780   5.612  0.3585  0.4723  0.4616
    1OL     H8R 5036   1.246   3.696   5.572 -1.4610  0.1771 -1.7990
    1OL     H8S 5037   1.257   3.861   5.636  0.4348  0.0368  1.7784
    1OL     C19 5038   1.093   3.829   5.502 -0.1681 -0.1588  0.3551
    1OL     H9R 5039   0.998   3.855   5.549 -0.2521  1.1732 -0.5052
    1OL    C110 5040   1.122   3.844   5.375 -0.2630 -0.7179 -0.2114
    1OL    H10R 5041   1.057   3.892   5.301 -2.6970  0.0354  2.2411
    1OL    C111 5042   1.258   3.795   5.319  0.8842 -0.0258 -0.3829
    1OL    H11R 5043   1.239   3.722   5.239 -1.5538 -0.2262  0.3111
    1OL    H11S 5044   1.324   3.740   5.387  1.4998  0.5267 -0.5234
    1OL    C112 5045   1.349   3.908   5.267 -0.0110 -0.0896  0.2040
    1OL    H12R 5046   1.387   3.972   5.348  1.8244 -0.6276 -0.1825
    1OL    H12S 5047   1.287   3.969   5.201  1.2786 -0.5395 -1.5004
    1OL    C113 5048   1.467   3.856   5.185  0.2957 -0.6024  0.1849
    1OL    H13R 5049   1.421   3.824   5.091  1.9408 -1.3806 -0.3966
    1OL    H13S 5050   1.519   3.765   5.217 -0.5890 -0.5190  1.9417
    1OL    C114 5051   1.568   3.967   5.165  0.0542 -0.1078  0.0410
    1OL    H14R 5052   1.622   4.008   5.251  1.4158  1.5552 -1.5190
    1OL    H14S 5053   1.514   4.053   5.127  1.3467  0.7324  0.0227
    1OL    C115 5054   1.665   3.934   5.056 -0.2166 -0.3731  0.6677
    1OL    H15R 5055   1.604   3.911   4.968  0.2092 -1.3846  0.6315
    1OL    H15S 5056   1.726   3.848   5.085  0.6701 -0.4673 -1.3209
    1OL    C116 5057   1.770   4.047   5.038 -0.4026 -0.7451 -0.6149
    1OL    H16R 5058   1.848   3.995   4.982 -0.2219  0.2162 -1.2825
    1OL    H16S 5059   1.809   4.080   5.135  0.5140  2.1380 -1.8582
    1OL    C117 5060   1.725   4.163   4.955 -0.1968  0.4215  0.7135
    1OL    H17R 5061   1.629   4.196   4.995  0.4347  2.1298  0.9370
    1OL    H17S 5062   1.719   4.137   4.850  0.0491 -0.0282  0.8103
    1OL    C118 5063   1.826   4.280   4.971 -0.1228  0.6630  0.5483
    1OL    H18R 5064   1.909   4.271   4.900 -1.1396 -2.9760 -0.3821
    1OL    H18S 5065   1.855   4.290   5.076 -0.4666 -0.5248  0.7632
    1OL    H18T 5066   1.775   4.372   4.942  0.6417  0.6825 -0.7869
    1PA    C116 5067   0.153   0.982   5.216  0.5398 -0.2903 -0.0142
    1PA    H16R 5068   0.203   1.052   5.148  0.2309  1.3442  1.3665
    1PA    H16S 5069   0.207   0.959   5.308  0.0564 -0.8061  0.1436
    1PA    H16T 5070   0.059   1.030   5.245  0.1320 -1.6310  0.9594
    1PA    C115 5071   0.113   0.852   5.138 -0.0437  0.3562 -0.2409
    1PA    H15R 5072   0.080   0.880   5.038  0.9134 -1.0964 -0.9871
    1PA    H15S 5073   0.206   0.796   5.121 -0.0762  0.2616 -0.1078
    1PA    C114 5074   0.012   0.770   5.211  0.5127  0.5916 -0.1541
    1PA    H14R 5075  -0.072   0.840   5.215 -0.9183 -1.0291  0.0060
    1PA    H14S 5076  -0.020   0.687   5.148  0.1875  1.0886 -0.6469
    1PA    C113 5077   0.050   0.725   5.362  0.5640 -0.5019 -0.4655
    1PA    H13R 5078   0.141   0.666   5.359  0.0472 -1.3428  0.0909
    1PA    H13S 5079   0.055   0.821   5.415 -1.7872  0.0438 -1.1047
    1PA    C112 5080  -0.057   0.636   5.430  0.5898 -0.4498 -0.1488
    1PA    H12R 5081  -0.151   0.689   5.443  0.0944 -1.7632  2.3468
    1PA    H12S 5082  -0.074   0.549   5.368 -0.1180 -1.3415  1.2457
    1PA    C111 5083  -0.015   0.593   5.573 -0.3376 -0.2920  0.9742
    1PA    H11R 5084   0.057   0.657   5.623 -0.9903  1.5517 -0.3353
    1PA    H11S 5085  -0.100   0.606   5.640  0.1310  1.2995  1.3147
    1PA    C110 5086   0.042   0.452   5.569 -0.0897  0.6857 -0.3527
    1PA    H10R 5087  -0.024   0.379   5.523  1.2564 -0.9482  0.2006
    1PA    H10S 5088   0.135   0.460   5.511  1.3961  0.0377  1.8122
    1PA     C19 5089   0.081   0.401   5.709  0.3942  0.2995 -0.2927
    1PA     H9R 5090   0.163   0.459   5.752  1.0265  0.1953 -1.3183
    1PA     H9S 5091  -0.005   0.412   5.775 -1.0821  0.8070 -2.2006
    1PA     C18 5092   0.134   0.250   5.719  0.6541 -0.3477  0.1814
    1PA     H8R 5093   0.058   0.175   5.695  0.6671 -0.2216 -0.2641
    1PA     H8S 5094   0.220   0.231   5.654  1.0187  0.5509  0.3780
    1PA     C17 5095   0.174   0.206   5.860 -0.7847 -0.4929  0.3054
    1PA     H7R 5096   0.212   0.104   5.866  0.2016 -0.0953  1.1742
    1PA     H7S 5097   0.253   0.274   5.895 -1.7944 -0.2842  2.3643
    1PA     C16 5098   0.058   0.217   5.956  0.2193  0.5426  0.1005
    1PA     H6R 5099  -0.009   0.302   5.945 -2.3645 -1.5988 -1.9904
    1PA     H6S 5100  -0.007   0.130   5.944 -0.0721  0.3630  2.4490
    1PA     C15 5101   0.105   0.192   6.101  0.6037 -0.1484  0.3497
    1PA     H5R 5102   0.148   0.092   6.099  0.1588 -0.4022  1.7922
    1PA     H5S 5103   0.181   0.268   6.123 -0.3760  0.6258  1.2131
    1PA     C14 5104  -0.006   0.197   6.207 -0.3512  0.3565 -0.6123
    1PA     H4R 5105  -0.076   0.279   6.189 -0.7304  1.0036  3.0262
    1PA     H4S 5106  -0.069   0.109   6.206 -0.2034  0.2548 -1.5507
    1PA     C13 5107   0.046   0.218   6.352 -0.1040 -0.5076  0.2260
    1PA     H3R 5108   0.093   0.127   6.389  0.8203  0.4454  1.5071
    1PA     H3S 5109   0.119   0.299   6.356 -1.3600  0.6478  0.6266
    1PA     C12 5110  -0.079   0.243   6.439 -0.1274  0.3546  0.0937
    1PA     H2R 5111  -0.142   0.319   6.392 -0.0788  0.1811 -0.2483
    1PA     H2S 5112  -0.138   0.152   6.432 -1.5985  1.1212  1.7495
    1PC     C11 5113  -0.057   0.277   6.585  0.1212  0.3745  0.4775
    1PC     O12 5114   0.054   0.313   6.629 -0.1195 -0.8379  0.1470
    1PC     O11 5115  -0.172   0.278   6.660  0.4284 -0.5642 -0.0513
    1PC      C1 5116  -0.161   0.327   6.795  0.2207  0.7161  0.4196
    1PC      HR 5117  -0.243   0.290   6.856  2.7229 -1.5743  2.6084
    1PC      HS 5118  -0.062   0.303   6.834  1.2615  2.3840 -1.0310
    1PC      C2 5119  -0.164   0.479   6.786 -0.4695 -0.5036  0.2432
    1PC      HX 5120  -0.099   0.518   6.707 -1.3573 -1.1682 -0.8483
    1PC      C3 5121  -0.115   0.548   6.913  0.8345 -0.1547 -0.3057
    1PC      HA 5122  -0.006   0.552   6.919  0.9453 -1.1103 -1.3804
    1PC      HB 5123  -0.170   0.643   6.911 -2.6424 -1.8696  2.7604
    1PC     O31 5124  -0.161   0.461   7.030 -0.2405 -0.7888 -0.0578
    1PC     P31 5125  -0.270   0.525   7.126 -0.5813  0.3065  0.0798
    1PC     O32 5126  -0.399   0.509   7.035  0.3802  0.6989  0.1457
    1PC     C31 5127  -0.466   0.384   7.028 -0.1465  0.3808  0.5994
    1PC     H1A 5128  -0.526   0.373   6.937 -1.2183  0.4019  1.2926
    1PC     H1B 5129  -0.399   0.298   7.026 -1.6919 -0.8632 -0.8430
    1PC     C32 5130  -0.577   0.378   7.139 -0.2806  0.4285 -0.0034
    1PC     H2A 5131  -0.633   0.285   7.130 -0.3211  0.4827 -0.3388
    1PC     H2B 5132  -0.530   0.372   7.237 -0.5358 -1.1777  0.0443
    1PC     N31 5133  -0.681   0.487   7.136 -0.6955  0.2867 -0.1940
    1PC     C33 5134  -0.777   0.458   7.239 -0.8220 -0.0033 -0.4546
    1PC     H3A 5135  -0.724   0.451   7.334  1.8672  2.3088 -1.6598
    1PC     H3B 5136  -0.845   0.544   7.237 -0.3225  0.5493  2.3290
    1PC     H3C 5137  -0.837   0.373   7.208 -2.2463  0.6802  0.3091
    1PC     C34 5138  -0.622   0.621   7.160 -0.2004  0.2714  0.0360
    1PC     H4A 5139  -0.549   0.642   7.081  1.0983 -2.9341  0.2450
    1PC     H4B 5140  -0.703   0.692   7.176  1.1990  2.0552 -0.4474
    1PC     H4C 5141  -0.569   0.618   7.255 -0.0764 -0.8922 -0.0556
    1PC     C35 5142  -0.752   0.480   7.008 -0.3684 -0.2328 -0.1791
    1PC     H5A 5143  -0.804   0.389   6.979 -0.9712  0.7894 -2.5675
    1PC     H5B 5144  -0.682   0.502   6.926 -1.2553 -3.5078 -1.9510
    1PC     H5C 5145  -0.823   0.562   7.020  1.5646  1.4485  0.3574
    1PC     O33 5146  -0.273   0.434   7.243  0.3362  0.0808  0.1256
    1PC     O34 5147  -0.229   0.667   7.146 -0.5785  0.3739 -0.0323
    1PC     O21 5148  -0.296   0.512   6.736  0.0592 -0.8199  0.0976
    1PC     C21 5149  -0.316   0.535   6.608 -0.2560 -0.4281  0.1174
    1PC     O22 5150  -0.234   0.541   6.516 -0.3704 -0.0347 -0.3955
    1OL     C12 5151  -0.461   0.538   6.583  0.4516  0.0024 -0.9279
    1OL     H2R 5152  -0.507   0.595   6.664  1.4860 -1.9278  1.1101
    1OL     H2S 5153  -0.504   0.439   6.596 -1.1849  0.5931 -1.5564
    1OL     C13 5154  -0.495   0.600   6.446  0.1155 -0.4011 -0.4622
    1OL     H3R 5155  -0.440   0.694   6.436 -0.8396  0.1706 -0.4623
    1OL     H3S 5156  -0.601   0.616   6.464  0.2514 -0.4519  0.4524
    1OL     C14 5157  -0.484   0.509   6.319  0.2292 -0.6972 -0.2928
    1OL     H4R 5158  -0.401   0.440   6.336 -0.2963 -0.8484  1.9755
    1OL     H4S 5159  -0.475   0.578   6.235 -3.9041  2.0611  1.2136
    1OL     C15 5160  -0.608   0.425   6.298 -0.9235  0.1650 -0.1369
    1OL     H5R 5161  -0.627   0.372   6.392 -1.4921 -1.6219 -1.2039
    1OL     H5S 5162  -0.580   0.348   6.226 -0.4997  0.4799 -0.3087
    1OL     C16 5163  -0.738   0.495   6.253  0.4630 -0.4481  0.3481
    1OL     H6R 5164  -0.719   0.554   6.163  0.9681 -1.2427 -0.0734
    1OL     H6S 5165  -0.763   0.568   6.330 -0.7234 -0.1897 -0.2464
    1OL     C17 5166  -0.853   0.398   6.227  0.1027 -0.8913 -0.1990
    1OL     H7R 5167  -0.852   0.332   6.314  1.0645 -0.3447  0.2292
    1OL     H7S 5168  -0.823   0.328   6.149 -1.6855 -0.7345 -1.0571
    1OL     C18 5169  -0.989   0.455   6.188  0.5032 -0.9080  0.1047
    1OL     H8R 5170  -1.029   0.507   6.275  1.2058  0.6303 -0.4594
    1OL     H8S 5171  -1.057   0.371   6.170 -2.0473  0.4761  2.5452
    1OL     C19 5172  -0.975   0.557   6.074  0.6675 -0.2273 -0.7940
    1OL     H9R 5173  -0.873   0.585   6.051  0.3787  1.0441 -0.5614
    1OL    C110 5174  -1.077   0.598   6.001  0.2406 -0.3200 -0.6142
    1OL    H10R 5175  -1.059   0.654   5.910  1.4570 -3.2369 -2.3058
    1OL    C111 5176  -1.225   0.550   6.020 -0.8800 -0.4591  1.0100
    1OL    H11R 5177  -1.259   0.627   6.089 -2.6430 -0.0714 -0.2191
    1OL    H11S 5178  -1.232   0.449   6.062 -1.0604 -1.2129 -0.7377
    1OL    C112 5179  -1.307   0.543   5.890 -0.1376  0.1519 -0.3266
    1OL    H12R 5180  -1.316   0.643   5.847  1.3848  1.0364  1.3309
    1OL    H12S 5181  -1.411   0.514   5.907  0.1313 -1.0243 -0.5474
    1OL    C113 5182  -1.255   0.432   5.793 -0.8468 -0.3111 -0.3732
    1OL    H13R 5183  -1.280   0.337   5.841  0.1300 -1.0422 -1.2531
    1OL    H13S 5184  -1.147   0.431   5.780 -0.7410  1.7246  0.0671
    1OL    C114 5185  -1.333   0.441   5.653 -0.5138 -0.3145 -0.1282
    1OL    H14R 5186  -1.316   0.539   5.606  1.0182 -0.4338  0.1187
    1OL    H14S 5187  -1.437   0.418   5.677 -0.4571  0.9492  1.4595
    1OL    C115 5188  -1.282   0.325   5.561  0.4900 -0.0382  0.0745
    1OL    H15R 5189  -1.271   0.235   5.622  1.1442 -1.2285 -1.7279
    1OL    H15S 5190  -1.178   0.344   5.533 -0.3703  2.2697 -1.9420
    1OL    C116 5191  -1.365   0.309   5.436  1.5496  0.1698 -0.2245
    1OL    H16R 5192  -1.460   0.269   5.472  0.8439  2.2273  0.3181
    1OL    H16S 5193  -1.325   0.229   5.373 -0.3985 -0.8665 -0.2176
    1OL    C117 5194  -1.371   0.433   5.351 -0.1741 -0.1163 -0.6927
    1OL    H17R 5195  -1.364   0.408   5.245  0.6560 -3.6923  0.0451
    1OL    H17S 5196  -1.287   0.495   5.382 -1.5709  0.4470  2.2935
    1OL    C118 5197  -1.509   0.496   5.382 -0.4342  0.2235 -0.5225
    1OL    H18R 5198  -1.511   0.585   5.319  0.7230  1.4995  1.1473
    1OL    H18S 5199  -1.510   0.522   5.488  4.0753 -0.6972 -0.0290
    1OL    H18T 5200  -1.592   0.429   5.360 -0.5046  0.3357 -0.5997
    1PA    C116 5201   1.154   0.239   5.284 -0.5054  0.1330  0.3516
    1PA    H16R 5202   1.224   0.322   5.282 -0.2908 -0.0602 -0.5874
    1PA    H16S 5203   1.108   0.240   5.185  1.6791  0.2879 -0.7189
    1PA    H16T 5204   1.218   0.150   5.279  2.0519  1.8916 -0.1956
    1PA    C115 5205   1.055   0.227   5.401  0.5269 -0.0439  0.3295
    1PA    H15R 5206   0.980   0.306   5.408  0.8217  0.1883  0.8694
    1PA    H15S 5207   1.006   0.132   5.378 -1.0749  0.9107 -0.4316
    1PA    C114 5208   1.132   0.214   5.534  0.1092 -0.0109 -0.3594
    1PA    H14R 5209   1.205   0.132   5.529  0.3874  0.1620  0.6380
    1PA    H14S 5210   1.201   0.299   5.544  2.0171 -1.3221 -1.5603
    1PA    C113 5211   1.039   0.204   5.651 -0.3920 -0.4343 -0.1520
    1PA    H13R 5212   0.985   0.109   5.653  0.2491 -0.8080 -0.4790
    1PA    H13S 5213   1.108   0.198   5.735 -0.2827 -2.3089 -0.3271
    1PA    C112 5214   0.932   0.312   5.658 -0.0509  0.1936 -0.0248
    1PA    H12R 5215   0.866   0.293   5.573 -0.3300  2.9213 -0.4994
    1PA    H12S 5216   0.865   0.299   5.743 -2.5299 -0.1866 -1.9039
    1PA    C111 5217   0.974   0.456   5.654  0.2002 -0.0540  1.1413
    1PA    H11R 5218   1.055   0.461   5.581  0.1520 -0.0962  1.0859
    1PA    H11S 5219   0.894   0.518   5.613  2.3743  1.3740 -1.3379
    1PA    C110 5220   1.037   0.503   5.785 -0.0120  0.0149  0.3901
    1PA    H10R 5221   1.096   0.428   5.838 -0.7849  1.0784  2.9099
    1PA    H10S 5222   1.111   0.578   5.755 -1.8532  1.6536 -0.2344
    1PA     C19 5223   0.937   0.560   5.888  0.1685 -0.5321 -0.0400
    1PA     H9R 5224   0.914   0.664   5.863  1.9012  0.0916  0.8309
    1PA     H9S 5225   0.846   0.500   5.884  0.8732 -1.7176  1.1113
    1PA     C18 5226   0.989   0.559   6.035  0.1333 -0.0616 -0.3125
    1PA     H8R 5227   0.907   0.561   6.107  0.5655  1.8463  0.1887
    1PA     H8S 5228   1.043   0.470   6.069 -1.5697 -1.1938 -0.4752
    1PA     C17 5229   1.084   0.682   6.059 -0.0462 -0.1538  0.2663
    1PA     H7R 5230   1.147   0.681   5.969 -0.6409  2.7949 -0.2774
    1PA     H7S 5231   1.032   0.776   6.043 -0.2383 -0.2367  0.4044
    1PA     C16 5232   1.166   0.676   6.190  0.0795 -0.9395 -0.1308
    1PA     H6R 5233   1.101   0.654   6.275  0.7584 -1.8202  0.1700
    1PA     H6S 5234   1.235   0.592   6.187  1.4906  0.2334 -2.2838
    1PA     C15 5235   1.250   0.808   6.212 -0.2021  0.1666  0.1597
    1PA     H5R 5236   1.291   0.842   6.117 -0.1317 -2.3699 -0.7942
    1PA     H5S 5237   1.177   0.885   6.239 -0.6547 -0.5595  1.0914
    1PA     C14 5238   1.359   0.809   6.320  0.2694 -0.3759  0.0672
    1PA     H4R 5239   1.441   0.738   6.303  1.0607  0.2728  1.0364
    1PA     H4S 5240   1.412   0.903   6.306 -1.4705  0.6511  0.2317
    1PA     C13 5241   1.312   0.803   6.470  0.2416  0.3271  0.1931
    1PA     H3R 5242   1.230   0.870   6.496  0.1617 -0.0373  0.9323
    1PA     H3S 5243   1.281   0.701   6.495 -0.6409  0.5311 -0.0338
    1PA     C12 5244   1.423   0.832   6.574 -0.1189  0.3454 -0.9124
    1PA     H2R 5245   1.516   0.778   6.553  0.0557  1.6543 -4.0128
    1PA     H2S 5246   1.452   0.937   6.584  0.2700  0.2266 -0.7296
    1PC     C11 5247   1.395   0.776   6.710 -0.2493 -0.0218 -0.6629
    1PC     O12 5248   1.358   0.850   6.800 -0.0152  0.5525  0.0330
    1PC     O11 5249   1.412   0.646   6.723  0.4208  0.1601 -0.3718
    1PC      C1 5250   1.404   0.595   6.861 -0.1065 -0.0651  0.4764
    1PC      HR 5251   1.438   0.491   6.855 -2.5869 -0.9651  0.8222
    1PC      HS 5252   1.468   0.652   6.929  1.5546  1.4608 -2.1530
    1PC      C2 5253   1.255   0.586   6.904  0.0073  0.2223  0.2018
    1PC      HX 5254   1.224   0.690   6.915 -0.8983  0.0531 -0.6442
    1PC      C3 5255   1.238   0.516   7.032 -0.3429  0.8355  0.1428
    1PC      HA 5256   1.135   0.484   7.044  0.0577 -0.3382  0.6308
    1PC      HB 5257   1.308   0.432   7.028 -1.2817 -0.0919  1.9566
    1PC     O31 5258   1.275   0.602   7.138 -0.3701 -0.3463  0.0910
    1PC     P31 5259   1.264   0.558   7.282  0.7412  0.7563 -0.1316
    1PC     O32 5260   1.107   0.579   7.324  0.3237  0.0962 -0.2898
    1PC     C31 5261   1.059   0.714   7.365  0.1167 -0.0770  0.3418
    1PC     H1A 5262   0.962   0.696   7.412 -0.4612 -2.6358 -1.6081
    1PC     H1B 5263   1.132   0.760   7.432  1.7802 -0.9939 -0.7731
    1PC     C32 5264   1.035   0.782   7.231 -0.6387 -0.0303  0.2033
    1PC     H2A 5265   1.128   0.792   7.175 -0.7479 -1.7232 -0.3525
    1PC     H2B 5266   0.971   0.709   7.181 -4.6356  1.6579  2.4171
    1PC     N31 5267   0.965   0.913   7.213  0.1958 -0.3739  0.2307
    1PC     C33 5268   1.061   1.025   7.253  0.1868 -0.6360 -0.3140
    1PC     H3A 5269   1.145   1.013   7.184  0.8303  0.2607  0.2997
    1PC     H3B 5270   1.010   1.120   7.234  0.3130 -0.9400 -2.4115
    1PC     H3C 5271   1.090   1.024   7.358  0.4362  2.4679 -0.2645
    1PC     C34 5272   0.916   0.924   7.068 -0.8988 -0.3111 -0.4792
    1PC     H4A 5273   0.868   0.830   7.042 -1.7507 -0.2797  0.8857
    1PC     H4B 5274   0.856   1.015   7.069 -1.0188 -0.3839 -0.9688
    1PC     H4C 5275   1.010   0.942   7.014 -0.3167 -0.3777  0.4845
    1PC     C35 5276   0.844   0.921   7.305 -0.2678 -0.1071  0.2352
    1PC     H5A 5277   0.784   1.007   7.273  0.8199  1.1469  1.4341
    1PC     H5B 5278   0.868   0.931   7.411 -1.5115  0.3134  0.5036
    1PC     H5C 5279   0.778   0.835   7.288  0.5323 -0.6546 -0.1411
    1PC     O33 5280   1.292   0.410   7.287 -0.3261 -0.1799 -0.5608
    1PC     O34 5281   1.347   0.648   7.362  0.3166  0.0890  0.0060
    1PC     O21 5282   1.167   0.524   6.806 -0.2164  0.0198 -0.1515
    1PC     C21 5283   1.040   0.557   6.800 -0.4389  0.2768 -0.3045
    1PC     O22 5284   0.991   0.636   6.877 -0.0536 -0.4301  0.4656
    1OL     C12 5285   0.960   0.467   6.704 -0.3805 -0.4471 -0.6221
    1OL     H2R 5286   0.870   0.440   6.760  1.0018 -2.4955  0.7376
    1OL     H2S 5287   1.015   0.373   6.692  1.2517  0.5613 -1.2703
    1OL     C13 5288   0.947   0.518   6.561 -0.4059 -0.2584 -0.4586
    1OL     H3R 5289   0.859   0.476   6.512 -0.3347 -1.6668  0.5673
    1OL     H3S 5290   1.029   0.499   6.492  0.5945 -1.0622  0.9188
    1OL     C14 5291   0.919   0.671   6.555  0.3798  0.3399  0.1264
    1OL     H4R 5292   1.015   0.722   6.569 -0.0748  0.7739  2.0021
    1OL     H4S 5293   0.840   0.698   6.626 -2.3993  0.2308 -2.7292
    1OL     C15 5294   0.853   0.710   6.422 -0.3708 -0.1522  0.5416
    1OL     H5R 5295   0.747   0.685   6.420  0.0844 -2.5161 -2.7274
    1OL     H5S 5296   0.906   0.659   6.341  1.1662  2.6368 -0.3641
    1OL     C16 5297   0.852   0.860   6.389 -0.4191 -0.4913 -0.0940
    1OL     H6R 5298   0.956   0.894   6.393 -0.5006 -0.2876  0.3034
    1OL     H6S 5299   0.797   0.917   6.465 -0.6413 -1.2967  0.3626
    1OL     C17 5300   0.792   0.882   6.249 -0.2720  0.5140 -0.7354
    1OL     H7R 5301   0.686   0.856   6.254 -0.5489  1.8271  1.5210
    1OL     H7S 5302   0.838   0.818   6.173  0.3034 -1.3276  1.0822
    1OL     C18 5303   0.799   1.028   6.195  0.5227  0.1044  0.5743
    1OL     H8R 5304   0.896   1.074   6.178  0.2923  0.4128  0.0643
    1OL     H8S 5305   0.745   1.096   6.261  1.6892 -0.1150  1.7808
    1OL     C19 5306   0.732   1.035   6.052 -0.1177  0.3830  0.0640
    1OL     H9R 5307   0.624   1.028   6.049 -0.1169  0.0148  0.6284
    1OL    C110 5308   0.790   1.054   5.935  0.4382  0.2836  0.3495
    1OL    H10R 5309   0.729   1.060   5.846  0.3149  2.8423  0.5402
    1OL    C111 5310   0.938   1.060   5.910 -0.4647 -1.2435 -0.1690
    1OL    H11R 5311   0.989   1.025   6.000 -1.8586 -2.1307  0.3094
    1OL    H11S 5312   0.971   1.162   5.891  0.0686 -0.9576  1.9839
    1OL    C112 5313   0.975   0.969   5.786 -0.3108  0.7176 -0.1394
    1OL    H12R 5314   0.928   1.017   5.701 -0.7934  3.1953  1.4169
    1OL    H12S 5315   0.924   0.873   5.796  2.3618 -0.7372  0.7361
    1OL    C113 5316   1.126   0.935   5.764 -0.6022 -0.0282 -0.3923
    1OL    H13R 5317   1.144   0.884   5.669 -2.3809  1.3809 -1.5338
    1OL    H13S 5318   1.150   0.865   5.845 -0.0385 -0.7319 -1.1495
    1OL    C114 5319   1.220   1.061   5.757  0.1084  0.5168 -0.1864
    1OL    H14R 5320   1.190   1.135   5.831 -1.0189 -0.0125 -0.0840
    1OL    H14S 5321   1.207   1.118   5.665  0.3627 -0.0636 -0.5897
    1OL    C115 5322   1.367   1.032   5.780 -0.1589 -0.0661 -0.0506
    1OL    H15R 5323   1.428   1.123   5.773 -0.4365  0.0313 -1.4783
    1OL    H15S 5324   1.392   0.963   5.700 -2.1077 -0.4746 -0.3678
    1OL    C116 5325   1.396   0.978   5.919 -0.8472  0.0237 -0.4041
    1OL    H16R 5326   1.330   0.891   5.923  0.4016 -0.9328 -0.2060
    1OL    H16S 5327   1.369   1.056   5.991  0.0179  1.4300 -1.5555
    1OL    C117 5328   1.543   0.939   5.950 -0.4076  0.1994  0.4800
    1OL    H17R 5329   1.556   0.959   6.057 -0.5688  1.4066  0.2902
    1OL    H17S 5330   1.605   1.008   5.893  0.8561 -0.8257  0.5727
    1OL    C118 5331   1.581   0.793   5.916 -0.1056 -0.0487  0.0571
    1OL    H18R 5332   1.508   0.724   5.958 -0.0804  1.7430  3.3489
    1OL    H18S 5333   1.681   0.775   5.956  0.3382  0.2727 -0.8668
    1OL    H18T 5334   1.590   0.778   5.808 -0.0460 -3.1544  0.4091
    1PA    C116 5335   4.965   0.490   5.903 -0.2638  0.4632 -1.2155
    1PA    H16R 5336   4.992   0.574   5.839  0.5700  1.0959 -0.0713
    1PA    H16S 5337   5.038   0.495   5.984  0.5349 -0.8148 -1.8128
    1PA    H16T 5338   4.874   0.525   5.951  0.5748 -0.3120  1.0616
    1PA    C115 5339   4.955   0.356   5.833  0.1398  0.1380 -0.1580
    1PA    H15R 5340   5.053   0.321   5.799 -0.8482 -2.4062 -0.5937
    1PA    H15S 5341   4.909   0.278   5.894 -2.1969  1.9042  0.4994
    1PA    C114 5342   4.869   0.363   5.704  0.4763  0.1940 -0.2322
    1PA    H14R 5343   4.764   0.366   5.735  0.2258  0.9634 -1.1166
    1PA    H14S 5344   4.876   0.453   5.642 -1.3858 -0.0071 -0.8304
    1PA    C113 5345   4.886   0.235   5.614  0.4022 -0.8389 -0.0341
    1PA    H13R 5346   4.868   0.141   5.667  0.9916 -1.0300 -0.1696
    1PA    H13S 5347   4.803   0.246   5.543  1.2193  2.5849 -0.6503
    1PA    C112 5348   5.013   0.227   5.529 -0.4692 -0.1948 -0.0740
    1PA    H12R 5349   5.015   0.299   5.447  1.5097 -2.3741 -2.1092
    1PA    H12S 5350   5.104   0.252   5.584  0.1064  1.4152 -1.6647
    1PA    C111 5351   5.039   0.100   5.450  0.5643 -0.1868 -0.0226
    1PA    H11R 5352   4.947   0.043   5.439  0.3588  0.1488 -0.0704
    1PA    H11S 5353   5.082   0.124   5.352 -0.9909  2.0859 -0.2252
    1PA    C110 5354   5.140   0.006   5.522  0.0967 -0.3717 -0.3296
    1PA    H10R 5355   5.149  -0.085   5.462 -2.0885  0.4577 -2.0652
    1PA    H10S 5356   5.235   0.061   5.517 -1.0500  1.6643 -1.2774
    1PA     C19 5357   5.099  -0.041   5.665  0.3578 -0.2650  0.0916
    1PA     H9R 5358   5.067   0.048   5.721 -0.5581 -0.7827  0.4095
    1PA     H9S 5359   5.006  -0.098   5.663 -0.6952  1.3861 -0.7184
    1PA     C18 5360   5.204  -0.119   5.740  0.0861 -0.0948  0.0381
    1PA     H8R 5361   5.213  -0.217   5.693  2.4800 -0.0388  0.2299
    1PA     H8S 5362   5.301  -0.072   5.725 -0.4547  0.5108 -1.8443
    1PA     C17 5363   5.188  -0.139   5.896 -0.5298  0.0916 -0.5846
    1PA     H7R 5364   5.173  -0.040   5.939  0.0118 -0.5208  1.1093
    1PA     H7S 5365   5.100  -0.200   5.921 -0.9043  0.5994 -0.6533
    1PA     C16 5366   5.314  -0.202   5.958 -0.1185  0.5537 -0.2188
    1PA     H6R 5367   5.300  -0.308   5.933 -1.8983  0.3377  1.3994
    1PA     H6S 5368   5.405  -0.165   5.910 -0.4745  2.2667  0.3888
    1PA     C15 5369   5.323  -0.195   6.111 -0.0963  0.0237  0.6685
    1PA     H5R 5370   5.338  -0.090   6.138  1.7551 -0.2248  0.7346
    1PA     H5S 5371   5.228  -0.227   6.156 -0.3428  0.0173  0.1495
    1PA     C14 5372   5.440  -0.263   6.178 -0.4071 -0.0256 -0.1570
    1PA     H4R 5373   5.460  -0.352   6.118 -0.9484 -2.2250  2.7311
    1PA     H4S 5374   5.526  -0.196   6.182  0.5569 -1.2757  1.1676
    1PA     C13 5375   5.407  -0.294   6.331  0.1427  0.4574 -0.0482
    1PA     H3R 5376   5.309  -0.338   6.349 -0.3990  2.1683  1.6364
    1PA     H3S 5377   5.485  -0.359   6.372 -2.3611 -2.2388  0.7593
    1PA     C12 5378   5.393  -0.159   6.411  0.6460 -0.1057  0.0108
    1PA     H2R 5379   5.467  -0.081   6.387 -0.6083  1.1832  0.1975
    1PA     H2S 5380   5.301  -0.102   6.394  1.1186  0.5372 -0.4651
    1PC     C11 5381   5.387  -0.182   6.561 -0.2840  0.9142 -0.3659
    1PC     O12 5382   5.346  -0.286   6.609 -0.3166  0.2379  0.4575
    1PC     O11 5383   5.440  -0.080   6.631 -0.1776  0.1625 -0.6297
    1PC      C1 5384   5.434  -0.076   6.775 -0.8690  0.3621  0.3547
    1PC      HR 5385   5.455  -0.180   6.803 -0.2492  0.7702  1.4536
    1PC      HS 5386   5.520  -0.013   6.797 -0.5029  0.2118 -0.6212
    1PC      C2 5387   5.299  -0.037   6.840 -0.2109  0.5176 -0.7115
    1PC      HX 5388   5.261   0.060   6.807  0.3402  0.3081 -2.0096
    1PC      C3 5389   5.319  -0.029   6.994 -0.1067 -1.0627  0.1707
    1PC      HA 5390   5.384   0.056   7.015 -0.5343 -0.7364  0.1766
    1PC      HB 5391   5.223  -0.012   7.041 -1.7490 -0.3907 -3.1090
    1PC     O31 5392   5.390  -0.142   7.048  0.3572  0.7525 -0.3224
    1PC     P31 5393   5.316  -0.254   7.127 -0.0090  0.4286 -0.3429
    1PC     O32 5394   5.231  -0.328   7.018  0.0678  0.3399 -0.1246
    1PC     C31 5395   5.290  -0.422   6.917 -0.7688 -0.1220 -0.5205
    1PC     H1A 5396   5.323  -0.382   6.821 -0.0475  0.0353 -0.2107
    1PC     H1B 5397   5.370  -0.470   6.975 -2.0286 -1.7814 -0.0696
    1PC     C32 5398   5.188  -0.522   6.887 -0.3369 -0.1196  0.1945
    1PC     H2A 5399   5.153  -0.555   6.986  2.9907 -1.0322  1.1794
    1PC     H2B 5400   5.106  -0.481   6.827  0.3741  0.6349 -0.2697
    1PC     N31 5401   5.230  -0.647   6.815  1.0359  0.1985 -0.2129
    1PC     C33 5402   5.279  -0.590   6.682 -0.5347  0.0792 -0.0461
    1PC     H3A 5403   5.381  -0.552   6.678 -0.9409  1.1337 -0.9507
    1PC     H3B 5404   5.273  -0.667   6.605 -1.1321  0.3219 -0.2492
    1PC     H3C 5405   5.209  -0.509   6.661  2.1916  2.6351  0.0253
    1PC     C34 5406   5.326  -0.732   6.888 -0.1289  0.5863 -0.0280
    1PC     H4A 5407   5.275  -0.776   6.974  1.6743 -1.8674 -0.1217
    1PC     H4B 5408   5.358  -0.806   6.815 -0.7487  0.8701 -0.6047
    1PC     H4C 5409   5.407  -0.672   6.930  0.2220  1.5878 -2.0113
    1PC     C35 5410   5.114  -0.737   6.803  0.4834 -0.2762 -0.4929
    1PC     H5A 5411   5.130  -0.826   6.742 -2.5883 -1.4611  0.2427
    1PC     H5B 5412   5.038  -0.670   6.763  0.8996  1.9356  2.1142
    1PC     H5C 5413   5.076  -0.784   6.894 -1.0524  0.6728 -0.6004
    1PC     O33 5414   5.419  -0.350   7.179 -0.3574  0.2224  0.3278
    1PC     O34 5415   5.221  -0.202   7.230  0.1393 -0.1038 -0.5105
    1PC     O21 5416   5.195  -0.131   6.815  0.1921 -0.1872 -0.0213
    1PC     C21 5417   5.105  -0.113   6.719 -0.0438  0.4034  0.1201
    1PC     O22 5418   5.107  -0.036   6.627  0.0801 -0.1615 -0.5784
    1OL     C12 5419   5.004  -0.230   6.725  0.8230  0.2983 -0.0184
    1OL     H2R 5420   4.925  -0.211   6.798 -0.5104 -1.0221 -1.0726
    1OL     H2S 5421   5.059  -0.308   6.777 -0.2457 -1.0704 -0.8895
    1OL     C13 5422   4.952  -0.264   6.581  0.1697  0.3314  0.0714
    1OL     H3R 5423   4.970  -0.188   6.505  1.2644 -1.9050 -2.0343
    1OL     H3S 5424   4.845  -0.287   6.592  0.5325 -0.5403  2.2754
    1OL     C14 5425   5.035  -0.390   6.533  0.4948 -0.2931 -0.9448
    1OL     H4R 5426   5.014  -0.469   6.605  1.7463 -0.9374 -1.2591
    1OL     H4S 5427   5.140  -0.363   6.545  0.2886 -0.0584  0.4505
    1OL     C15 5428   4.997  -0.441   6.391  0.5961 -0.4710 -0.1697
    1OL     H5R 5429   5.011  -0.359   6.320 -0.1476  2.6647  2.9961
    1OL     H5S 5430   4.889  -0.457   6.386  0.5695 -0.8542  1.2981
    1OL     C16 5431   5.067  -0.573   6.358 -0.2737 -0.5384 -0.2030
    1OL     H6R 5432   5.014  -0.666   6.381  1.7596 -0.9823  3.2808
    1OL     H6S 5433   5.158  -0.571   6.418 -0.3771 -3.2582  0.1610
    1OL     C17 5434   5.109  -0.585   6.213 -0.4628 -0.1312 -0.4676
    1OL     H7R 5435   5.153  -0.684   6.206  0.5929  0.3233 -0.3963
    1OL     H7S 5436   5.195  -0.519   6.203 -1.4058  1.0199 -1.3104
    1OL     C18 5437   4.999  -0.564   6.101 -0.1576 -0.0953 -0.2484
    1OL     H8R 5438   4.956  -0.467   6.123  2.1710  1.0246 -0.3245
    1OL     H8S 5439   4.929  -0.647   6.112  0.5045 -0.7386 -0.7981
    1OL     C19 5440   5.052  -0.573   5.961  0.0150  0.0353  0.7793
    1OL     H9R 5441   5.155  -0.605   5.957 -0.7768 -2.6036 -1.5002
    1OL    C110 5442   4.983  -0.536   5.853 -0.4907  0.8445  0.0521
    1OL    H10R 5443   5.044  -0.543   5.764  3.6209 -2.3151  2.7337
    1OL    C111 5444   4.838  -0.494   5.837 -0.1384 -0.3110  0.5013
    1OL    H11R 5445   4.825  -0.389   5.812 -1.2061 -0.6798 -0.5449
    1OL    H11S 5446   4.780  -0.523   5.925  1.8635  2.0798  2.8019
    1OL    C112 5447   4.785  -0.565   5.717  0.0833  0.2942  0.5890
    1OL    H12R 5448   4.849  -0.546   5.631 -2.6056  0.6082 -1.4553
    1OL    H12S 5449   4.688  -0.521   5.694 -0.2623 -0.7328  0.0310
    1OL    C113 5450   4.755  -0.716   5.734 -0.8017  0.2375  0.3439
    1OL    H13R 5451   4.697  -0.728   5.826 -0.5095  0.5913  0.5753
    1OL    H13S 5452   4.848  -0.772   5.737 -0.9816 -0.0398  1.0993
    1OL    C114 5453   4.679  -0.776   5.611 -0.3343  0.1310 -0.7630
    1OL    H14R 5454   4.582  -0.728   5.594 -0.0934  0.5584 -0.9501
    1OL    H14S 5455   4.657  -0.877   5.644  2.0222 -0.4032 -0.6854
    1OL    C115 5456   4.776  -0.771   5.495 -0.7160  0.6458  0.2263
    1OL    H15R 5457   4.863  -0.826   5.533 -0.8053  1.9287  2.4950
    1OL    H15S 5458   4.801  -0.667   5.476  0.1570  0.0314 -2.4051
    1OL    C116 5459   4.721  -0.836   5.370 -0.1751  0.8485  0.2411
    1OL    H16R 5460   4.634  -0.779   5.336 -0.5509 -0.1431 -0.5102
    1OL    H16S 5461   4.686  -0.939   5.387  0.5601 -0.1117 -3.3007
    1OL    C117 5462   4.832  -0.835   5.268 -0.3719  0.1555  0.3520
    1OL    H17R 5463   4.926  -0.868   5.312 -1.1068 -1.1773  0.9884
    1OL    H17S 5464   4.854  -0.735   5.231 -1.1823 -0.8238 -3.1620
    1OL    C118 5465   4.804  -0.918   5.148 -0.6079 -0.5936  0.9489
    1OL    H18R 5466   4.885  -0.916   5.076 -0.7068 -2.1730  0.7388
    1OL    H18S 5467   4.716  -0.893   5.089  0.4154  0.0873 -0.3456
    1OL    H18T 5468   4.799  -1.023   5.181 -1.5310 -0.5744  0.9030
    1PA    C116 5469   5.026   3.447   4.801  0.1900 -0.0846 -0.4727
    1PA    H16R 5470   5.088   3.537   4.806 -1.2218  0.8569  1.2321
    1PA    H16S 5471   4.939   3.492   4.755 -0.1017  0.3227  0.4479
    1PA    H16T 5472   5.063   3.366   4.739  1.4423  1.2939 -1.5974
    1PA    C115 5473   5.001   3.396   4.942 -0.4910  0.1510  0.4492
    1PA    H15R 5474   4.995   3.479   5.012  0.7266  1.3169 -0.7584
    1PA    H15S 5475   4.908   3.340   4.939 -0.6062  0.3325  0.6104
    1PA    C114 5476   5.101   3.295   4.992 -1.2648  0.0499 -0.2051
    1PA    H14R 5477   5.121   3.207   4.931  1.5706  0.4238  0.0694
    1PA    H14S 5478   5.197   3.347   4.988 -1.7447  1.0043  0.1568
    1PA    C113 5479   5.074   3.247   5.140  0.3364  0.2802 -0.7424
    1PA    H13R 5480   5.087   3.320   5.220  0.6390  2.2167 -2.4674
    1PA    H13S 5481   4.969   3.217   5.144  0.3071  0.3424 -1.0629
    1PA    C112 5482   5.166   3.118   5.159 -0.3965  0.2102 -0.1279
    1PA    H12R 5483   5.122   3.030   5.111 -1.1398  0.6491 -0.2597
    1PA    H12S 5484   5.271   3.132   5.132  0.1698  0.2081  1.8990
    1PA    C111 5485   5.177   3.079   5.304 -0.8530 -0.3280 -0.4278
    1PA    H11R 5486   5.081   3.061   5.353 -1.1251 -3.8435 -1.9429
    1PA    H11S 5487   5.229   2.984   5.312 -0.4968 -0.1643 -0.7890
    1PA    C110 5488   5.254   3.178   5.398  0.3023 -0.4362 -0.2921
    1PA    H10R 5489   5.348   3.201   5.348 -0.2809 -1.6763 -2.0853
    1PA    H10S 5490   5.196   3.270   5.403 -0.0407 -0.5724 -1.4038
    1PA     C19 5491   5.263   3.122   5.545 -0.2028  0.2929 -0.1933
    1PA     H9R 5492   5.163   3.093   5.580 -0.2529  0.0674 -0.5076
    1PA     H9S 5493   5.314   3.026   5.548 -0.0732  0.3912  2.2028
    1PA     C18 5494   5.320   3.232   5.642 -0.3234 -0.2667 -0.1169
    1PA     H8R 5495   5.421   3.260   5.612 -0.2735  0.8482  1.0407
    1PA     H8S 5496   5.268   3.325   5.620  1.5056  0.7408 -0.3021
    1PA     C17 5497   5.317   3.199   5.788  0.0329 -0.1068 -0.4569
    1PA     H7R 5498   5.215   3.162   5.802  0.3443 -0.7241  0.2680
    1PA     H7S 5499   5.379   3.112   5.811  0.7034  0.0272 -1.6713
    1PA     C16 5500   5.336   3.311   5.886  0.1091  0.5562  0.8864
    1PA     H6R 5501   5.427   3.364   5.857 -0.3948  0.8985 -0.0934
    1PA     H6S 5502   5.255   3.383   5.878  0.0745  0.4411  0.1738
    1PA     C15 5503   5.362   3.254   6.028  0.1323  0.4049  0.1157
    1PA     H5R 5504   5.280   3.186   6.052  0.9800  0.2902  2.9725
    1PA     H5S 5505   5.456   3.197   6.028  0.1699  0.4665  0.5745
    1PA     C14 5506   5.357   3.352   6.150  0.3603 -0.0674  0.3377
    1PA     H4R 5507   5.251   3.372   6.161 -0.4170 -2.7316 -1.3441
    1PA     H4S 5508   5.391   3.292   6.235 -1.0677 -0.9270  0.3217
    1PA     C13 5509   5.448   3.483   6.138 -0.4966  0.2915 -0.0823
    1PA     H3R 5510   5.419   3.538   6.048  0.9579  1.7079  0.2621
    1PA     H3S 5511   5.432   3.556   6.217 -2.6686  0.4498 -0.6084
    1PA     C12 5512   5.603   3.446   6.130 -0.8317  0.1251 -0.2674
    1PA     H2R 5513   5.603   3.356   6.068  1.7144 -0.9524  1.1863
    1PA     H2S 5514   5.651   3.529   6.079 -2.7553  0.5815 -1.4272
    1PC     C11 5515   5.679   3.413   6.263  0.3187  0.1209 -0.9605
    1PC     O12 5516   5.638   3.448   6.376  0.0865  0.5084 -0.0928
    1PC     O11 5517   5.805   3.355   6.248  0.3365 -0.3095 -0.0900
    1PC      C1 5518   5.881   3.323   6.366  0.0202  0.2505  0.9420
    1PC      HR 5519   5.984   3.307   6.334 -0.0509  0.0898  0.7928
    1PC      HS 5520   5.885   3.405   6.439 -0.1186 -0.1506  1.4015
    1PC      C2 5521   5.820   3.193   6.426  0.2878 -0.3102  0.0639
    1PC      HX 5522   5.714   3.219   6.438 -0.0003  0.6009 -3.3502
    1PC      C3 5523   5.883   3.153   6.559 -0.3027 -0.5565 -0.6502
    1PC      HA 5524   5.810   3.115   6.632 -0.5960 -1.8520 -1.5855
    1PC      HB 5525   5.955   3.075   6.535  0.2160 -0.8052  1.4936
    1PC     O31 5526   5.945   3.268   6.627 -0.0013  0.1866  0.0178
    1PC     P31 5527   6.001   3.244   6.777 -0.1563 -0.1790  0.3370
    1PC     O32 5528   5.868   3.242   6.870 -0.1051 -0.1277  0.1529
    1PC     C31 5529   5.788   3.358   6.872 -0.7951 -0.2044  0.0739
    1PC     H1A 5530   5.846   3.450   6.889 -1.7936  0.6209 -0.8762
    1PC     H1B 5531   5.743   3.359   6.773 -0.8480 -1.4979  0.0710
    1PC     C32 5532   5.674   3.350   6.983  0.6177  0.0106 -0.0495
    1PC     H2A 5533   5.610   3.438   6.985 -1.7405 -1.5687  3.4268
    1PC     H2B 5534   5.603   3.272   6.957  2.1427 -0.5344 -3.0880
    1PC     N31 5535   5.709   3.322   7.122 -0.4124 -0.4751 -0.3044
    1PC     C33 5536   5.786   3.193   7.140 -0.3455  0.4613 -0.2113
    1PC     H3A 5537   5.887   3.196   7.099 -0.5836 -0.3916 -0.8958
    1PC     H3B 5538   5.800   3.173   7.247  0.0733  0.2879 -0.2930
    1PC     H3C 5539   5.729   3.115   7.088 -2.2456  0.5439  1.6305
    1PC     C34 5540   5.798   3.426   7.180  0.2949  0.0382 -0.6497
    1PC     H4A 5541   5.849   3.382   7.266 -0.1942  0.1370 -0.3041
    1PC     H4B 5542   5.874   3.457   7.108 -0.2333  1.4190 -0.6481
    1PC     H4C 5543   5.745   3.518   7.205  0.3570 -0.5142  1.6916
    1PC     C35 5544   5.587   3.301   7.209 -0.4059  0.3041  0.1596
    1PC     H5A 5545   5.538   3.397   7.228 -0.0047  0.4282  0.5979
    1PC     H5B 5546   5.624   3.270   7.307  1.5242 -1.4747 -1.0576
    1PC     H5C 5547   5.519   3.229   7.163  0.3520 -0.2843 -0.0542
    1PC     O33 5548   6.051   3.101   6.783  0.4721  1.0628  0.2164
    1PC     O34 5549   6.083   3.356   6.819 -0.1783 -0.5269  0.0043
    1PC     O21 5550   5.836   3.084   6.336  0.1757  0.4632 -1.0282
    1PC     C21 5551   5.733   3.053   6.256  0.1308  0.1688  0.5961
    1PC     O22 5552   5.619   3.098   6.261 -0.0861  0.2013 -0.0621
    1OL     C12 5553   5.786   2.951   6.147  0.4556  0.0619  0.2666
    1OL     H2R 5554   5.836   2.879   6.212 -0.2672 -0.4815  0.2257
    1OL     H2S 5555   5.856   3.008   6.085 -0.0438  1.0333  0.5672
    1OL     C13 5556   5.666   2.900   6.066 -0.2134  0.3412 -0.0095
    1OL     H3R 5557   5.604   2.980   6.025 -1.1208 -0.7006 -0.6878
    1OL     H3S 5558   5.598   2.842   6.129 -0.8032  0.0184 -0.9255
    1OL     C14 5559   5.702   2.815   5.945  0.1630 -0.8035  0.0946
    1OL     H4R 5560   5.606   2.764   5.930  0.8164 -1.5588 -1.8882
    1OL     H4S 5561   5.783   2.743   5.960  2.2247  0.8487 -2.3822
    1OL     C15 5562   5.745   2.890   5.820 -0.2196 -0.4528  0.1244
    1OL     H5R 5563   5.805   2.823   5.758 -0.8546 -0.9522  0.0327
    1OL     H5S 5564   5.810   2.973   5.849  0.2585  0.1714 -2.4289
    1OL     C16 5565   5.624   2.931   5.735  0.1934  0.1337  0.3272
    1OL     H6R 5566   5.560   3.007   5.779  0.3620  0.6287 -0.2775
    1OL     H6S 5567   5.560   2.843   5.723  1.7841 -1.3546  2.0543
    1OL     C17 5568   5.660   2.976   5.588  0.6684  0.0571 -0.0904
    1OL     H7R 5569   5.563   2.990   5.539  0.2753  1.1120  0.9448
    1OL     H7S 5570   5.714   2.899   5.533  0.4198 -0.1491 -0.0511
    1OL     C18 5571   5.737   3.107   5.591  0.1935  0.4703  0.2057
    1OL     H8R 5572   5.840   3.101   5.625  0.6674 -0.9549 -1.3292
    1OL     H8S 5573   5.689   3.181   5.654  0.8424 -0.2245  1.5462
    1OL     C19 5574   5.745   3.170   5.454 -0.1313 -0.7136 -0.6370
    1OL     H9R 5575   5.657   3.221   5.417 -0.6664 -2.2451 -1.5767
    1OL    C110 5576   5.860   3.173   5.374  0.0188 -0.4029  0.0246
    1OL    H10R 5577   5.854   3.217   5.275  0.6818  1.3383  0.7128
    1OL    C111 5578   5.994   3.108   5.394 -0.2111  0.4454 -0.0891
    1OL    H11R 5579   5.998   3.060   5.492 -1.6772  0.4984  0.0050
    1OL    H11S 5580   6.071   3.184   5.409  1.7942 -1.1930 -1.5102
    1OL    C112 5581   6.023   3.004   5.278 -0.3308 -0.2717  0.4960
    1OL    H12R 5582   6.115   2.950   5.302  0.2591 -0.1271 -1.2401
    1OL    H12S 5583   6.048   3.055   5.184  0.6130  0.4620  1.1203
    1OL    C113 5584   5.908   2.901   5.249  0.5889 -0.2630  0.1565
    1OL    H13R 5585   5.865   2.863   5.342 -0.8289  0.7163 -0.0601
    1OL    H13S 5586   5.957   2.824   5.190  0.6358  0.5056 -0.8382
    1OL    C114 5587   5.793   2.946   5.164  0.6183  0.1433  0.2874
    1OL    H14R 5588   5.827   2.992   5.071  2.4668 -0.5156  0.5840
    1OL    H14S 5589   5.729   3.023   5.207 -2.7427 -1.6908 -1.0453
    1OL    C115 5590   5.698   2.829   5.131  0.6602  0.2856 -0.0441
    1OL    H15R 5591   5.672   2.777   5.224  0.1181 -0.3799 -0.5641
    1OL    H15S 5592   5.749   2.753   5.073 -1.2324 -1.0740 -0.0163
    1OL    C116 5593   5.576   2.884   5.054  0.3018 -0.2404 -0.7677
    1OL    H16R 5594   5.535   2.968   5.110 -1.3525 -0.8988 -0.9588
    1OL    H16S 5595   5.500   2.807   5.044 -0.5193  0.5467 -0.7367
    1OL    C117 5596   5.610   2.929   4.906  0.0230  0.3380  0.3299
    1OL    H17R 5597   5.669   2.845   4.868  0.0978 -0.7250  2.6169
    1OL    H17S 5598   5.669   3.020   4.900  1.1802 -0.3508  0.8477
    1OL    C118 5599   5.476   2.955   4.817  0.4580  0.4386 -0.2845
    1OL    H18R 5600   5.399   2.985   4.888  2.4393 -0.8767  2.5914
    1OL    H18S 5601   5.480   3.034   4.741 -0.7215  0.2546 -0.5537
    1OL    H18T 5602   5.459   2.862   4.762  2.9801 -0.9294  1.0707
    1PA    C116 5603   1.389   4.868   4.996 -0.0569 -0.2144 -0.3222
    1PA    H16R 5604   1.296   4.925   4.994 -0.8616 -1.4875 -0.5507
    1PA    H16S 5605   1.367   4.762   5.014  2.3975 -0.1638  4.7343
    1PA    H16T 5606   1.437   4.870   4.899  0.8768 -0.4973  0.1218
    1PA    C115 5607   1.490   4.911   5.106  0.0239 -0.2606 -0.7963
    1PA    H15R 5608   1.456   4.881   5.205  2.7439 -2.3100 -0.3542
    1PA    H15S 5609   1.578   4.847   5.099  0.7898  0.8745 -2.2454
    1PA    C114 5610   1.528   5.065   5.100  0.6377  0.4390 -0.6330
    1PA    H14R 5611   1.604   5.074   5.178  0.3644  1.4691 -0.4844
    1PA    H14S 5612   1.576   5.088   5.004 -0.1637  0.7626 -0.9592
    1PA    C113 5613   1.412   5.168   5.127  1.2092 -0.7117 -0.4646
    1PA    H13R 5614   1.455   5.268   5.122 -1.4180  0.7609  2.6231
    1PA    H13S 5615   1.346   5.156   5.041 -1.1822  1.6966  0.8843
    1PA    C112 5616   1.323   5.153   5.256 -0.4907  0.3552 -0.2317
    1PA    H12R 5617   1.235   5.211   5.227  0.9217  4.2794  2.4158
    1PA    H12S 5618   1.304   5.048   5.276 -2.5259  0.3346 -1.9499
    1PA    C111 5619   1.374   5.207   5.396  0.0786 -0.2916 -0.5489
    1PA    H11R 5620   1.483   5.198   5.396  0.2906  1.3285  1.8590
    1PA    H11S 5621   1.357   5.315   5.404  1.1808 -0.0896 -0.7875
    1PA    C110 5622   1.315   5.122   5.514  0.0830  0.0608  0.5661
    1PA    H10R 5623   1.207   5.126   5.505  0.2286  0.7203 -1.4127
    1PA    H10S 5624   1.329   5.017   5.486 -0.3833  0.4925 -1.4743
    1PA     C19 5625   1.364   5.163   5.649 -0.5725 -0.6893  0.2664
    1PA     H9R 5626   1.470   5.138   5.642 -0.9260 -1.9137 -1.3458
    1PA     H9S 5627   1.355   5.271   5.659  1.2431 -0.4656 -0.0815
    1PA     C18 5628   1.291   5.099   5.772 -0.5943  0.0974  0.6878
    1PA     H8R 5629   1.190   5.139   5.775 -0.8956 -0.4058 -1.1461
    1PA     H8S 5630   1.282   4.991   5.760 -2.9382  0.3973 -1.0232
    1PA     C17 5631   1.375   5.144   5.896  0.4382  0.1724 -1.0409
    1PA     H7R 5632   1.482   5.125   5.893  1.0660  2.5898  1.7229
    1PA     H7S 5633   1.364   5.252   5.900  1.6568  0.2910 -0.4705
    1PA     C16 5634   1.316   5.086   6.020 -0.2225 -0.0811 -0.8413
    1PA     H6R 5635   1.208   5.092   6.034 -0.0282  0.5021  0.5291
    1PA     H6S 5636   1.347   4.982   6.034  0.4222  0.0406 -1.3329
    1PA     C15 5637   1.385   5.161   6.139  0.5769 -0.1704  0.3724
    1PA     H5R 5638   1.493   5.166   6.122  0.2079 -0.9036 -3.0247
    1PA     H5S 5639   1.356   5.267   6.136  1.9568  0.2489  1.2674
    1PA     C14 5640   1.347   5.097   6.276 -0.2023  0.0209  0.3210
    1PA     H4R 5641   1.245   5.131   6.297  0.1119  2.6312 -1.8700
    1PA     H4S 5642   1.359   4.989   6.262 -0.4357  0.3087 -2.5716
    1PA     C13 5643   1.424   5.168   6.388 -0.6028  0.2815  0.3202
    1PA     H3R 5644   1.440   5.274   6.370  0.8949 -0.1704 -1.4387
    1PA     H3S 5645   1.370   5.152   6.481  0.7148  0.0124  1.0743
    1PA     C12 5646   1.562   5.102   6.410 -0.3104 -0.8235 -0.0786
    1PA     H2R 5647   1.551   4.993   6.415  0.7310 -0.9078  0.8019
    1PA     H2S 5648   1.616   5.128   6.319  1.4159  0.4310  1.2362
    1PC     C11 5649   1.635   5.152   6.531  0.1667  0.0184 -0.0756
    1PC     O12 5650   1.739   5.221   6.535 -0.3184  0.0454  0.6785
    1PC     O11 5651   1.578   5.114   6.648 -0.0344  0.3779 -0.0275
    1PC      C1 5652   1.637   5.164   6.772  0.5297  0.3869 -0.2993
    1PC      HR 5653   1.728   5.109   6.798 -0.3815 -0.5553  1.0949
    1PC      HS 5654   1.650   5.273   6.770  0.9355  0.3265 -1.7327
    1PC      C2 5655   1.532   5.130   6.881  0.1179 -0.4673 -0.3290
    1PC      HX 5656   1.567   5.150   6.982  0.4600 -2.6349  0.0271
    1PC      C3 5657   1.485   4.981   6.880 -0.6563 -1.2596 -0.0087
    1PC      HA 5658   1.451   4.961   6.779 -2.1243 -2.1444  0.6305
    1PC      HB 5659   1.568   4.915   6.909  1.3598  1.9331  2.1096
    1PC     O31 5660   1.373   4.961   6.973 -0.0939 -0.1191  0.5512
    1PC     P31 5661   1.398   4.934   7.128 -0.0105 -0.0874 -0.4516
    1PC     O32 5662   1.459   4.782   7.132  0.1816 -0.3265 -0.4311
    1PC     C31 5663   1.381   4.671   7.080 -0.1320 -0.8031 -0.1666
    1PC     H1A 5664   1.331   4.704   6.988  0.5149 -0.4814 -0.4140
    1PC     H1B 5665   1.456   4.603   7.040 -0.5840 -0.6668 -1.2973
    1PC     C32 5666   1.297   4.606   7.193 -0.3254  0.0752  0.0033
    1PC     H2A 5667   1.224   4.678   7.229  1.1324  0.6886  1.9023
    1PC     H2B 5668   1.232   4.542   7.132 -1.9196  0.9199  0.7564
    1PC     N31 5669   1.360   4.545   7.312  0.4326  0.0273 -0.2773
    1PC     C33 5670   1.257   4.510   7.409  0.5825  0.3209 -0.8810
    1PC     H3A 5671   1.184   4.442   7.366 -1.2729  1.8328 -0.2490
    1PC     H3B 5672   1.299   4.456   7.494  1.3972  2.2376  0.0039
    1PC     H3C 5673   1.211   4.603   7.442 -0.7588  0.1063 -2.0938
    1PC     C34 5674   1.431   4.421   7.267  0.4605 -1.1487 -0.4644
    1PC     H4A 5675   1.472   4.367   7.352 -0.1706 -0.9627 -0.0398
    1PC     H4B 5676   1.362   4.355   7.215 -2.9522  0.3766  1.7979
    1PC     H4C 5677   1.511   4.450   7.198 -1.3922  0.2294 -2.1758
    1PC     C35 5678   1.457   4.632   7.378  0.0107 -0.9353  0.8757
    1PC     H5A 5679   1.541   4.637   7.308 -2.2038  0.6606 -1.8684
    1PC     H5B 5680   1.476   4.580   7.472  1.2692 -2.7916 -0.3355
    1PC     H5C 5681   1.416   4.731   7.399 -1.3632 -0.5748 -2.7635
    1PC     O33 5682   1.500   5.026   7.177 -0.3920  0.1660 -0.2351
    1PC     O34 5683   1.270   4.933   7.191  0.3126 -0.0486  0.3253
    1PC     O21 5684   1.404   5.198   6.856 -0.7262 -0.1880 -0.2405
    1PC     C21 5685   1.398   5.330   6.882  0.6661  0.1647 -0.5321
    1PC     O22 5686   1.489   5.394   6.927 -0.2792 -0.2779  0.4582
    1OL     C12 5687   1.264   5.380   6.853 -0.5428  0.1339 -0.3505
    1OL     H2R 5688   1.226   5.463   6.913 -1.5201 -1.6808  1.6505
    1OL     H2S 5689   1.203   5.290   6.860  2.2663 -1.9006 -0.4448
    1OL     C13 5690   1.265   5.428   6.706  0.6017  0.7706 -0.0139
    1OL     H3R 5691   1.160   5.447   6.682  1.1872  1.4658 -2.2827
    1OL     H3S 5692   1.299   5.345   6.642  0.2142  0.8296 -0.3030
    1OL     C14 5693   1.350   5.555   6.699  0.0307 -0.2747 -0.2513
    1OL     H4R 5694   1.454   5.536   6.726 -0.6300 -0.5031  2.4220
    1OL     H4S 5695   1.315   5.631   6.769  2.5516  1.1165 -0.3777
    1OL     C15 5696   1.334   5.630   6.568  0.2308 -0.4977  0.2526
    1OL     H5R 5697   1.368   5.734   6.575 -1.4064 -0.0010  1.6432
    1OL     H5S 5698   1.226   5.638   6.552  0.1255  0.4806  1.3346
    1OL     C16 5699   1.403   5.562   6.442 -0.0351 -0.1851  0.2148
    1OL     H6R 5700   1.351   5.467   6.422  1.2145 -1.4576  2.6337
    1OL     H6S 5701   1.505   5.537   6.469 -0.5742 -1.1745  1.4346
    1OL     C17 5702   1.399   5.660   6.320  0.3219  0.3996 -0.4004
    1OL     H7R 5703   1.458   5.749   6.340 -0.7115  0.9516  0.2850
    1OL     H7S 5704   1.295   5.687   6.300 -0.0938  0.7029  1.9263
    1OL     C18 5705   1.464   5.600   6.191  0.8637 -0.2215 -0.1368
    1OL     H8R 5706   1.417   5.502   6.178 -0.1510  0.1792  0.4322
    1OL     H8S 5707   1.571   5.581   6.205  0.8660 -0.7423 -0.7925
    1OL     C19 5708   1.443   5.699   6.077 -0.1536 -0.3053 -0.2625
    1OL     H9R 5709   1.456   5.804   6.102  3.1278 -0.8243  0.5577
    1OL    C110 5710   1.409   5.664   5.951 -0.7537 -0.1194 -0.6265
    1OL    H10R 5711   1.387   5.733   5.870  1.4309  1.9983  0.4497
    1OL    C111 5712   1.418   5.524   5.901  0.9098  0.1601  0.2249
    1OL    H11R 5713   1.324   5.489   5.860  1.5420 -1.0958 -0.2070
    1OL    H11S 5714   1.434   5.451   5.980 -2.0828  0.5215  1.2938
    1OL    C112 5715   1.532   5.482   5.804 -0.1814 -0.5185  0.4849
    1OL    H12R 5716   1.521   5.374   5.786 -0.1855 -0.6349  1.1516
    1OL    H12S 5717   1.629   5.492   5.853  0.1345 -2.4653  0.3564
    1OL    C113 5718   1.519   5.541   5.671  0.7440  0.2745 -0.4590
    1OL    H13R 5719   1.548   5.646   5.685  3.1031 -0.2999 -0.6515
    1OL    H13S 5720   1.413   5.538   5.644  1.0511  2.3564 -2.2359
    1OL    C114 5721   1.609   5.457   5.576  0.2633  0.4163 -0.4620
    1OL    H14R 5722   1.581   5.354   5.553  0.2068  0.1866  0.6116
    1OL    H14S 5723   1.711   5.462   5.614  0.0083 -3.6673  1.1990
    1OL    C115 5724   1.598   5.523   5.438 -0.6203 -0.3702 -0.6400
    1OL    H15R 5725   1.618   5.630   5.438 -1.5927 -0.1430  1.8159
    1OL    H15S 5726   1.496   5.506   5.403 -0.4698  0.5588 -1.5833
    1OL    C116 5727   1.686   5.441   5.335 -0.5295  0.6762 -0.8881
    1OL    H16R 5728   1.663   5.335   5.337  0.6436  0.4230  1.1829
    1OL    H16S 5729   1.792   5.456   5.355 -0.0222  0.2700 -3.0050
    1OL    C117 5730   1.654   5.486   5.191  0.3627 -0.8454 -0.3030
    1OL    H17R 5731   1.650   5.594   5.180 -0.3090 -0.7526  0.7095
    1OL    H17S 5732   1.551   5.460   5.168 -0.3791  0.7818  1.0349
    1OL    C118 5733   1.758   5.454   5.082  0.1018  0.6117 -0.0982
    1OL    H18R 5734   1.738   5.507   4.989  0.2419 -0.5498 -0.8182
    1OL    H18S 5735   1.750   5.348   5.057  0.0561  0.8687 -1.2634
    1OL    H18T 5736   1.858   5.472   5.122  0.7022  1.2060 -1.7417
    1PA    C116 5737   0.097   0.475   4.956 -0.3322 -0.4383  0.5037
    1PA    H16R 5738   0.015   0.541   4.925  0.3065 -1.0083 -2.6536
    1PA    H16S 5739   0.146   0.412   4.882  2.7751 -1.3955  3.1672
    1PA    H16T 5740   0.168   0.544   5.003 -0.9332 -0.5847  1.6706
    1PA    C115 5741   0.040   0.386   5.062 -0.8820  0.5329 -0.2157
    1PA    H15R 5742  -0.001   0.457   5.134 -1.2256  1.9290 -1.7236
    1PA    H15S 5743  -0.034   0.321   5.014  0.4302  0.1435 -1.8000
    1PA    C114 5744   0.162   0.296   5.112  0.4725  0.1485 -0.0100
    1PA    H14R 5745   0.199   0.235   5.029  0.1064  0.1695 -0.1940
    1PA    H14S 5746   0.243   0.358   5.152 -0.7426  1.9658 -0.2289
    1PA    C113 5747   0.130   0.217   5.242  0.5411  0.1209  0.1269
    1PA    H13R 5748   0.133   0.282   5.329 -2.1248 -0.0312  0.4251
    1PA    H13S 5749   0.027   0.186   5.221  1.3123 -2.6009  0.0220
    1PA    C112 5750   0.222   0.098   5.262  0.0790  0.1503  0.1446
    1PA    H12R 5751   0.230   0.045   5.166  0.6625  1.1119 -0.3490
    1PA    H12S 5752   0.318   0.134   5.297  0.1914 -0.4994  0.5221
    1PA    C111 5753   0.168   0.002   5.368  0.4787 -0.1709  0.8272
    1PA    H11R 5754   0.165   0.061   5.459 -0.0300 -0.2292  0.8508
    1PA    H11S 5755   0.064  -0.031   5.355  0.4058  0.2070  0.4274
    1PA    C110 5756   0.242  -0.130   5.370 -0.2059  0.9267 -0.3282
    1PA    H10R 5757   0.193  -0.205   5.308  0.2648 -0.3897  0.8439
    1PA    H10S 5758   0.339  -0.122   5.319  0.1022  1.3897  0.3181
    1PA     C19 5759   0.248  -0.190   5.510  0.1073  0.5675  0.2965
    1PA     H9R 5760   0.305  -0.117   5.567 -0.1194  1.7446 -0.9129
    1PA     H9S 5761   0.148  -0.199   5.552 -0.1447 -2.2251 -0.6636
    1PA     C18 5762   0.325  -0.327   5.520  0.6455 -0.1542  0.1915
    1PA     H8R 5763   0.280  -0.408   5.462 -1.7544  1.1868  0.0221
    1PA     H8S 5764   0.430  -0.321   5.490  0.4121  0.5572 -0.5360
    1PA     C17 5765   0.304  -0.372   5.667 -1.1614  0.3476  0.0539
    1PA     H7R 5766   0.199  -0.393   5.685 -0.6061 -1.8432  1.2049
    1PA     H7S 5767   0.362  -0.456   5.706 -1.3551  0.5975  0.8950
    1PA     C16 5768   0.342  -0.276   5.777  0.0787  0.1672  0.0959
    1PA     H6R 5769   0.435  -0.221   5.762 -0.4707  0.7954 -1.2774
    1PA     H6S 5770   0.263  -0.200   5.778 -1.4813 -1.3753  2.0060
    1PA     C15 5771   0.353  -0.341   5.916 -0.0601  0.6916  0.0627
    1PA     H5R 5772   0.339  -0.264   5.992 -1.2228  0.0052  0.5582
    1PA     H5S 5773   0.269  -0.408   5.934  0.0414  1.1496  2.7778
    1PA     C14 5774   0.489  -0.411   5.937  0.2694  0.5584 -0.6346
    1PA     H4R 5775   0.502  -0.503   5.879 -0.9561  0.9717 -1.6136
    1PA     H4S 5776   0.565  -0.345   5.897  1.0015  0.1330  0.0222
    1PA     C13 5777   0.524  -0.456   6.087 -0.4358 -0.2758  0.1631
    1PA     H3R 5778   0.500  -0.376   6.158  2.2201  1.5062 -0.8011
    1PA     H3S 5779   0.460  -0.541   6.111 -1.1032  0.3308  0.5786
    1PA     C12 5780   0.675  -0.493   6.102  0.7552  0.2358 -0.1343
    1PA     H2R 5781   0.704  -0.568   6.027 -1.1659 -0.3861 -0.3019
    1PA     H2S 5782   0.742  -0.407   6.093 -1.7088  2.4279  1.2305
    1PC     C11 5783   0.716  -0.563   6.226 -0.9838 -0.0225 -0.1517
    1PC     O12 5784   0.788  -0.505   6.306 -0.5085 -0.4787  0.0318
    1PC     O11 5785   0.677  -0.691   6.232 -0.1884 -0.2459  0.5865
    1PC      C1 5786   0.708  -0.774   6.347 -0.3180  0.4502 -1.1842
    1PC      HR 5787   0.678  -0.876   6.323  0.0704 -0.4657  1.7942
    1PC      HS 5788   0.816  -0.776   6.366 -0.1917  0.5787 -1.8682
    1PC      C2 5789   0.641  -0.716   6.473 -0.0863  0.1751 -0.3510
    1PC      HX 5790   0.670  -0.617   6.509 -0.7721  0.3313 -0.1954
    1PC      C3 5791   0.674  -0.820   6.588  0.3838 -0.4872  0.0797
    1PC      HA 5792   0.613  -0.789   6.674 -0.8677 -0.0038 -0.9500
    1PC      HB 5793   0.628  -0.915   6.560 -2.9426  1.3322 -1.1938
    1PC     O31 5794   0.814  -0.818   6.617  0.1204 -0.4089  0.7129
    1PC     P31 5795   0.877  -0.711   6.719  0.2753 -0.0803 -0.2544
    1PC     O32 5796   0.935  -0.594   6.627 -0.0633 -0.1764  0.0026
    1PC     C31 5797   0.879  -0.457   6.621 -0.5693 -0.7057 -0.8084
    1PC     H1A 5798   0.894  -0.403   6.527 -1.0367 -1.6228 -1.4223
    1PC     H1B 5799   0.771  -0.468   6.635 -0.5471 -1.8814 -1.5189
    1PC     C32 5800   0.920  -0.366   6.741 -0.4032  0.0360 -0.3471
    1PC     H2A 5801   0.859  -0.276   6.737  1.0765  1.1885  1.1645
    1PC     H2B 5802   0.894  -0.407   6.839 -0.4513  1.8750  0.4715
    1PC     N31 5803   1.067  -0.325   6.741 -0.0514 -0.5973  0.3680
    1PC     C33 5804   1.124  -0.260   6.618  0.2473 -0.3212 -0.3101
    1PC     H3A 5805   1.226  -0.240   6.650 -0.0967  0.9287  0.0677
    1PC     H3B 5806   1.120  -0.318   6.525 -0.8088 -0.0678 -0.4359
    1PC     H3C 5807   1.075  -0.163   6.602 -1.0821 -0.2588  3.2847
    1PC     C34 5808   1.097  -0.220   6.846 -0.0231  0.1553 -0.0095
    1PC     H4A 5809   1.061  -0.266   6.938 -1.9436 -0.0776 -0.8313
    1PC     H4B 5810   1.203  -0.200   6.860  0.5208 -0.4935 -2.7670
    1PC     H4C 5811   1.032  -0.134   6.828 -2.9012 -2.0392 -0.7863
    1PC     C35 5812   1.151  -0.445   6.763  0.1191  0.0007  0.5218
    1PC     H5A 5813   1.251  -0.401   6.754 -0.6555  1.3342 -3.6782
    1PC     H5B 5814   1.143  -0.508   6.674 -1.9478 -1.9379  1.9625
    1PC     H5C 5815   1.129  -0.509   6.849 -1.2569 -2.3370 -1.4578
    1PC     O33 5816   0.776  -0.652   6.814  0.4412 -0.0894  0.2329
    1PC     O34 5817   0.982  -0.795   6.779 -0.6962  0.0157 -0.1059
    1PC     O21 5818   0.493  -0.736   6.473  0.3710 -0.1763  0.1868
    1PC     C21 5819   0.416  -0.626   6.444  0.0192  0.4134  1.2876
    1PC     O22 5820   0.459  -0.530   6.387  0.5791 -0.5487 -0.0972
    1OL     C12 5821   0.270  -0.661   6.456 -0.2311 -0.5887 -0.1665
    1OL     H2R 5822   0.207  -0.572   6.462 -1.0279 -1.1473 -0.0228
    1OL     H2S 5823   0.257  -0.720   6.547 -1.8487  1.0331  0.7127
    1OL     C13 5824   0.232  -0.743   6.333 -0.8076  0.6825 -0.8965
    1OL     H3R 5825   0.152  -0.809   6.368 -0.2031 -0.6992 -1.9826
    1OL     H3S 5826   0.314  -0.808   6.300 -0.2317  1.6168 -1.3384
    1OL     C14 5827   0.181  -0.652   6.214  0.4311 -0.2116  0.6400
    1OL     H4R 5828   0.251  -0.573   6.187 -0.1602  0.3851  0.8077
    1OL     H4S 5829   0.097  -0.592   6.251 -1.2160 -1.0760 -1.4976
    1OL     C15 5830   0.141  -0.712   6.087  0.3131  0.2625 -0.4385
    1OL     H5R 5831   0.104  -0.625   6.033  0.6508  1.0456  0.5488
    1OL     H5S 5832   0.067  -0.792   6.096  1.6437 -0.9846 -0.2363
    1OL     C16 5833   0.257  -0.769   6.004  0.1932  0.0794 -0.0497
    1OL     H6R 5834   0.282  -0.874   6.020  0.7332  0.2584  0.3161
    1OL     H6S 5835   0.355  -0.731   6.033 -0.0053  1.6501 -1.3008
    1OL     C17 5836   0.226  -0.758   5.853 -0.4513  0.2827  0.4667
    1OL     H7R 5837   0.168  -0.667   5.834 -0.7251  0.1226  0.5303
    1OL     H7S 5838   0.167  -0.846   5.831  1.4805 -1.1719  0.8545
    1OL     C18 5839   0.356  -0.763   5.770  0.0072 -0.0074  0.3321
    1OL     H8R 5840   0.431  -0.702   5.822 -1.1404 -0.2789  2.4029
    1OL     H8S 5841   0.344  -0.731   5.666  0.7594 -2.0921 -0.4443
    1OL     C19 5842   0.415  -0.905   5.758  0.6920  0.3411  0.8335
    1OL     H9R 5843   0.479  -0.937   5.840  0.3560  0.0611  0.9887
    1OL    C110 5844   0.403  -0.980   5.642  0.3911  0.0767 -0.9310
    1OL    H10R 5845   0.456  -1.075   5.633  1.1368  0.1906  1.5039
    1OL    C111 5846   0.330  -0.940   5.517  0.8603  0.0853  0.5131
    1OL    H11R 5847   0.409  -0.883   5.468  0.1281  0.1634 -0.6015
    1OL    H11S 5848   0.246  -0.873   5.537  0.0499 -0.8890  0.4114
    1OL    C112 5849   0.293  -1.057   5.422 -0.5155 -0.5160 -0.8791
    1OL    H12R 5850   0.198  -1.098   5.457  0.6635 -1.9703  0.8512
    1OL    H12S 5851   0.366  -1.138   5.431  1.1344  0.8767 -1.3781
    1OL    C113 5852   0.284  -1.003   5.280 -0.1646  0.0708 -0.0791
    1OL    H13R 5853   0.375  -0.952   5.247 -0.8993  1.9430  0.6377
    1OL    H13S 5854   0.219  -0.916   5.280  0.5302  0.5951  0.0896
    1OL    C114 5855   0.246  -1.114   5.177  0.1734 -0.2610 -0.7352
    1OL    H14R 5856   0.153  -1.157   5.217 -0.1926  0.7854 -0.4419
    1OL    H14S 5857   0.327  -1.186   5.190  0.3553  0.0988  0.2433
    1OL    C115 5858   0.235  -1.062   5.035 -0.3567 -0.5553  0.7179
    1OL    H15R 5859   0.199  -0.960   5.038 -1.2313 -0.6920 -2.1594
    1OL    H15S 5860   0.171  -1.130   4.979 -0.1802 -0.9335  0.9709
    1OL    C116 5861   0.371  -1.063   4.966 -0.3681 -0.0286  0.4227
    1OL    H16R 5862   0.412  -1.164   4.959  1.2547  0.4995  1.4256
    1OL    H16S 5863   0.451  -1.015   5.023  2.3906 -1.5345 -1.9018
    1OL    C117 5864   0.370  -0.999   4.827 -0.3373  0.5018  0.4936
    1OL    H17R 5865   0.335  -0.895   4.833 -0.7313  0.3265  1.4501
    1OL    H17S 5866   0.312  -1.060   4.758  0.8213  0.1952 -0.2279
    1OL    C118 5867   0.507  -0.993   4.766 -0.1159 -0.5030  0.0520
    1OL    H18R 5868   0.561  -1.087   4.763 -0.1121 -0.5042 -2.3455
    1OL    H18S 5869   0.565  -0.928   4.832 -1.3850  1.4427 -0.6596
    1OL    H18T 5870   0.514  -0.946   4.667 -2.5784 -0.3068 -0.0835
    1PA    C116 5871   0.242   1.469   5.436 -0.3580  1.1102  0.5332
    1PA    H16R 5872   0.154   1.531   5.454 -2.0090 -1.1613  0.5486
    1PA    H16S 5873   0.309   1.508   5.359  0.7072  0.6058  1.1696
    1PA    H16T 5874   0.303   1.460   5.527 -0.2925  0.0884  0.3976
    1PA    C115 5875   0.181   1.335   5.382  0.9291  0.0341  0.2109
    1PA    H15R 5876   0.141   1.348   5.282 -0.6502 -0.2828  0.7630
    1PA    H15S 5877   0.265   1.266   5.373 -0.6642 -1.8926 -0.5171
    1PA    C114 5878   0.072   1.281   5.477 -0.0372 -0.2586 -0.2706
    1PA    H14R 5879   0.053   1.360   5.550 -3.3457 -0.1459 -1.1083
    1PA    H14S 5880  -0.023   1.259   5.428 -0.5597  0.4120  0.4156
    1PA    C113 5881   0.109   1.146   5.550  0.5021 -0.0451 -0.3759
    1PA    H13R 5882   0.020   1.098   5.590  1.4060 -0.5368  1.1218
    1PA    H13S 5883   0.153   1.078   5.476  0.8502  0.6085 -0.7851
    1PA    C112 5884   0.217   1.167   5.660  0.6461 -0.1266 -0.8769
    1PA    H12R 5885   0.261   1.068   5.673 -1.1830 -0.8252  0.5409
    1PA    H12S 5886   0.302   1.225   5.624  1.7780  0.0269  1.7591
    1PA    C111 5887   0.150   1.229   5.782  0.4195 -0.1830  0.2624
    1PA    H11R 5888   0.093   1.319   5.757  0.8247  0.7395  2.4283
    1PA    H11S 5889   0.087   1.149   5.822 -0.8798 -0.2052 -1.7023
    1PA    C110 5890   0.240   1.268   5.907  0.0395 -0.2908  0.5991
    1PA    H10R 5891   0.306   1.346   5.868 -0.4714 -0.7423 -1.2421
    1PA    H10S 5892   0.174   1.307   5.984 -1.2428 -2.3242  0.6016
    1PA     C19 5893   0.322   1.157   5.972 -0.0168 -0.5958  0.0661
    1PA     H9R 5894   0.262   1.066   5.986  0.0192 -0.4914  0.9783
    1PA     H9S 5895   0.402   1.130   5.903 -0.0729 -0.4251 -0.0661
    1PA     C18 5896   0.370   1.196   6.112  0.1046  0.1711 -0.1004
    1PA     H8R 5897   0.461   1.255   6.105  0.8218 -1.0983 -2.2474
    1PA     H8S 5898   0.291   1.252   6.164 -0.8321 -0.5447 -0.7212
    1PA     C17 5899   0.400   1.082   6.209  0.2368 -0.3162 -0.0846
    1PA     H7R 5900   0.315   1.014   6.207  1.2807 -1.6681  0.4382
    1PA     H7S 5901   0.485   1.022   6.178  0.3114 -1.3867  2.0244
    1PA     C16 5902   0.431   1.142   6.349 -0.4925  0.4074 -0.5097
    1PA     H6R 5903   0.507   1.219   6.334  1.4477 -1.7243 -2.2949
    1PA     H6S 5904   0.340   1.180   6.395 -1.0873 -0.0242 -1.2915
    1PA     C15 5905   0.499   1.036   6.444  0.1564  0.5572  0.0480
    1PA     H5R 5906   0.601   1.028   6.407 -0.3909  0.5329 -1.5365
    1PA     H5S 5907   0.518   1.070   6.546  1.6358  1.8855 -0.6336
    1PA     C14 5908   0.437   0.903   6.449  0.0713  0.7650  0.1788
    1PA     H4R 5909   0.332   0.923   6.474 -0.2118 -2.4502  2.1078
    1PA     H4S 5910   0.440   0.844   6.357  1.3351 -1.6551  1.6868
    1PA     C13 5911   0.500   0.812   6.564  0.0286  0.2325 -0.1176
    1PA     H3R 5912   0.488   0.704   6.552 -1.6698  0.3674  0.1263
    1PA     H3S 5913   0.608   0.826   6.575 -0.0465  2.0581 -1.2766
    1PA     C12 5914   0.430   0.835   6.696 -0.1191  0.2321 -1.0048
    1PA     H2R 5915   0.392   0.938   6.694 -1.9856 -0.3115  1.4123
    1PA     H2S 5916   0.344   0.769   6.708 -0.4034  1.0345  2.4588
    1PC     C11 5917   0.520   0.821   6.820 -0.5802 -0.2982 -0.5044
    1PC     O12 5918   0.579   0.915   6.872  0.1826  0.3383 -0.1271
    1PC     O11 5919   0.521   0.695   6.864  0.1107 -0.2143  0.0876
    1PC      C1 5920   0.615   0.671   6.973  0.3623 -0.0727  0.1689
    1PC      HR 5921   0.717   0.701   6.946 -0.1627  0.9434 -0.7687
    1PC      HS 5922   0.584   0.726   7.062  3.2727  1.0134  0.6102
    1PC      C2 5923   0.616   0.519   7.015 -0.7529  0.2859 -0.3218
    1PC      HX 5924   0.523   0.486   7.064 -1.6777  2.1869 -0.6908
    1PC      C3 5925   0.737   0.480   7.113 -0.1424  0.2746 -0.4958
    1PC      HA 5926   0.728   0.382   7.161  1.7429  0.0712 -0.5089
    1PC      HB 5927   0.828   0.481   7.053 -0.4493 -0.5011 -0.9863
    1PC     O31 5928   0.747   0.585   7.223 -0.3133 -0.0816  0.5368
    1PC     P31 5929   0.658   0.572   7.354 -0.0969  0.1158  0.1225
    1PC     O32 5930   0.751   0.485   7.457  0.0771  0.3740 -0.5539
    1PC     C31 5931   0.764   0.343   7.442 -0.0995 -0.1173  0.1741
    1PC     H1A 5932   0.664   0.305   7.422 -1.0523  2.1789  0.1858
    1PC     H1B 5933   0.832   0.324   7.359 -0.0129 -1.5631  0.5630
    1PC     C32 5934   0.824   0.293   7.574  0.2392 -0.0303 -0.6121
    1PC     H2A 5935   0.765   0.333   7.657  2.1386  1.8329 -0.0571
    1PC     H2B 5936   0.820   0.185   7.593  1.9604 -0.1026 -0.5297
    1PC     N31 5937   0.969   0.330   7.608  0.2579  0.0742  0.7302
    1PC     C33 5938   1.056   0.278   7.499 -0.2047  0.0557  0.0158
    1PC     H3A 5939   1.042   0.338   7.409  1.4257  0.9547  0.3214
    1PC     H3B 5940   1.164   0.291   7.509 -0.3191  2.2513 -0.9847
    1PC     H3C 5941   1.038   0.171   7.484 -1.7596  0.4804 -1.4674
    1PC     C34 5942   0.984   0.479   7.622  0.4060 -0.1985 -0.6044
    1PC     H4A 5943   1.083   0.492   7.667 -0.0821 -1.8971  1.1387
    1PC     H4B 5944   0.981   0.528   7.525  1.0670  2.1071  0.4734
    1PC     H4C 5945   0.916   0.526   7.693  0.1990 -1.4515  0.0666
    1PC     C35 5946   1.009   0.259   7.730  0.8127 -0.7988  0.7624
    1PC     H5A 5947   1.113   0.283   7.753  1.0548 -0.6903 -0.4029
    1PC     H5B 5948   1.009   0.156   7.695 -0.8459 -0.0029 -1.7851
    1PC     H5C 5949   0.946   0.270   7.819  1.5782 -0.7013  1.3080
    1PC     O33 5950   0.645   0.706   7.421  0.4242  0.1775  1.2422
    1PC     O34 5951   0.525   0.493   7.327  0.3061 -0.5693  0.1788
    1PC     O21 5952   0.638   0.447   6.887 -0.1180 -0.0835 -0.2027
    1PC     C21 5953   0.529   0.393   6.837 -0.3066 -0.1125  0.3167
    1PC     O22 5954   0.426   0.365   6.900 -0.0328 -0.2749 -0.1270
    1OL     C12 5955   0.550   0.367   6.694  0.1235 -0.2720  0.5409
    1OL     H2R 5956   0.589   0.265   6.686 -0.9456 -0.6334 -0.1165
    1OL     H2S 5957   0.630   0.429   6.653 -1.1217  0.2105 -1.2163
    1OL     C13 5958   0.426   0.382   6.612  0.5693 -0.7884 -0.2017
    1OL     H3R 5959   0.386   0.481   6.633  1.1944 -0.6924  0.6252
    1OL     H3S 5960   0.354   0.304   6.640  2.2293 -2.6243 -0.7864
    1OL     C14 5961   0.447   0.362   6.465  0.3748  0.2050 -0.6771
    1OL     H4R 5962   0.350   0.327   6.429 -0.1033 -1.5644  2.0537
    1OL     H4S 5963   0.522   0.284   6.450  0.2687 -0.0885  0.2462
    1OL     C15 5964   0.484   0.487   6.393 -0.4223 -0.0088  0.1414
    1OL     H5R 5965   0.580   0.522   6.430  0.9939 -1.7833 -1.6824
    1OL     H5S 5966   0.410   0.567   6.403  0.3943  1.1705 -2.3846
    1OL     C16 5967   0.494   0.452   6.248 -0.6087  0.4217  0.3575
    1OL     H6R 5968   0.397   0.419   6.212  0.3395 -1.0326 -0.9988
    1OL     H6S 5969   0.571   0.375   6.234  0.1650  0.9880  1.2948
    1OL     C17 5970   0.543   0.574   6.169  0.1853 -0.4225 -0.4233
    1OL     H7R 5971   0.641   0.607   6.203 -0.0345 -0.8762  0.7077
    1OL     H7S 5972   0.461   0.645   6.181 -0.8911 -1.2639 -2.3137
    1OL     C18 5973   0.567   0.546   6.022  0.4164  0.0462  1.2366
    1OL     H8R 5974   0.486   0.482   5.987  1.0159 -0.3492  0.5617
    1OL     H8S 5975   0.658   0.486   6.015 -0.4694 -1.2924  0.7603
    1OL     C19 5976   0.606   0.667   5.942  0.4378 -0.6235  0.1218
    1OL     H9R 5977   0.664   0.746   5.989  0.5916 -1.0086  0.5939
    1OL    C110 5978   0.586   0.674   5.808 -0.9569  0.1869  0.2308
    1OL    H10R 5979   0.625   0.756   5.748 -3.1804 -0.9510 -3.0115
    1OL    C111 5980   0.518   0.571   5.721  0.1282  0.0864  1.2921
    1OL    H11R 5981   0.493   0.477   5.771 -3.2304 -2.3178 -4.0563
    1OL    H11S 5982   0.575   0.537   5.635 -3.3934 -0.2257 -1.1192
    1OL    C112 5983   0.379   0.625   5.661 -0.1488 -0.0847 -0.1213
    1OL    H12R 5984   0.305   0.614   5.741 -0.0507 -2.7880 -0.3146
    1OL    H12S 5985   0.347   0.557   5.582  2.3830  1.1676 -2.4082
    1OL    C113 5986   0.384   0.769   5.600 -0.1416  0.5348 -0.5666
    1OL    H13R 5987   0.432   0.824   5.681  0.9284 -1.6787  0.3757
    1OL    H13S 5988   0.282   0.805   5.585  0.0315  1.0924 -0.4548
    1OL    C114 5989   0.457   0.798   5.467 -0.5298 -0.0653  0.1033
    1OL    H14R 5990   0.394   0.767   5.383 -1.1325  2.5027 -0.4837
    1OL    H14S 5991   0.554   0.749   5.476 -0.4595 -0.0450 -0.5108
    1OL    C115 5992   0.489   0.945   5.449  0.3054 -0.5827 -0.4636
    1OL    H15R 5993   0.572   0.962   5.519 -0.8025 -1.9910  1.2973
    1OL    H15S 5994   0.401   1.004   5.477  1.1551  0.3376  0.3843
    1OL    C116 5995   0.538   0.987   5.306  0.0060  0.0780  0.1650
    1OL    H16R 5996   0.468   0.936   5.239  0.2911  0.4909 -0.4549
    1OL    H16S 5997   0.629   0.933   5.280  0.9404  2.3258 -1.5405
    1OL    C117 5998   0.542   1.137   5.255 -0.3943 -0.5699 -0.8985
    1OL    H17R 5999   0.629   1.192   5.292  0.3612 -0.9968 -2.0000
    1OL    H17S 6000   0.442   1.174   5.275 -1.0857 -2.2169 -1.1518
    1OL    C118 6001   0.551   1.132   5.103 -0.1663 -0.3120  0.4806
    1OL    H18R 6002   0.460   1.092   5.057 -0.7134  0.3411  0.9843
    1OL    H18S 6003   0.624   1.063   5.059 -0.0609  1.2763 -1.9937
    1OL    H18T 6004   0.572   1.233   5.068 -0.4728 -0.4492 -0.1162
    1PA    C116 6005   0.485   0.582   4.724 -0.1619  0.6338 -0.8218
    1PA    H16R 6006   0.445   0.480   4.722  4.2351 -1.3159 -0.6228
    1PA    H16S 6007   0.590   0.559   4.740 -0.8750 -0.7458  2.6671
    1PA    H16T 6008   0.476   0.627   4.624 -1.9649  2.2402 -0.0036
    1PA    C115 6009   0.427   0.650   4.844 -0.1027 -0.5440  0.9371
    1PA    H15R 6010   0.469   0.751   4.839  1.2456 -1.1593 -2.4190
    1PA    H15S 6011   0.322   0.674   4.825  0.5518  1.4732 -0.4744
    1PA    C114 6012   0.464   0.594   4.981  0.8831  0.2168  0.3223
    1PA    H14R 6013   0.397   0.642   5.052  0.7374  0.0413  0.3043
    1PA    H14S 6014   0.438   0.488   4.970  1.3913 -0.2376  2.8638
    1PA    C113 6015   0.604   0.596   5.028 -0.3754  1.0227 -0.0861
    1PA    H13R 6016   0.668   0.610   4.941  1.7226  0.0267  1.2120
    1PA    H13S 6017   0.612   0.689   5.085  1.0794  0.4060  0.7822
    1PA    C112 6018   0.641   0.475   5.114  0.5921 -0.8256 -0.0725
    1PA    H12R 6019   0.585   0.391   5.073  1.2143 -1.1081 -0.3587
    1PA    H12S 6020   0.748   0.461   5.098  1.1465  2.3262  0.0804
    1PA    C111 6021   0.612   0.503   5.267  0.5366 -0.3265  0.3576
    1PA    H11R 6022   0.661   0.594   5.301 -0.2239 -0.6103  2.3287
    1PA    H11S 6023   0.509   0.535   5.285  1.3972  2.6757  0.3665
    1PA    C110 6024   0.656   0.402   5.365  1.1587  0.0311 -0.4771
    1PA    H10R 6025   0.761   0.376   5.351  1.5273  0.0195  1.9113
    1PA    H10S 6026   0.653   0.448   5.464  1.5175  1.9497 -1.3152
    1PA     C19 6027   0.570   0.271   5.365 -0.2858  0.2348  0.9558
    1PA     H9R 6028   0.463   0.291   5.368 -0.3849 -0.2042  0.5540
    1PA     H9S 6029   0.595   0.221   5.271  1.4849  0.2123  1.4091
    1PA     C18 6030   0.614   0.176   5.483  0.2826 -0.2913  0.4083
    1PA     H8R 6031   0.548   0.089   5.487  0.0888 -0.1993 -0.4922
    1PA     H8S 6032   0.714   0.135   5.472  0.9459  1.6098 -1.2098
    1PA     C17 6033   0.595   0.234   5.626 -0.0822 -0.5477 -0.0227
    1PA     H7R 6034   0.662   0.319   5.637  1.5961 -1.8343  0.1249
    1PA     H7S 6035   0.494   0.274   5.631 -0.8743 -2.5820  2.9529
    1PA     C16 6036   0.604   0.131   5.741 -0.0441 -0.2431  0.1061
    1PA     H6R 6037   0.535   0.047   5.726  0.1041 -0.4468  0.5622
    1PA     H6S 6038   0.705   0.091   5.737  0.3673  0.8484 -1.5477
    1PA     C15 6039   0.565   0.185   5.882  0.4665 -0.8547  0.0758
    1PA     H5R 6040   0.644   0.248   5.926  0.0375  0.8916 -1.5016
    1PA     H5S 6041   0.478   0.251   5.879 -0.7766 -2.4284  0.3390
    1PA     C14 6042   0.535   0.063   5.977 -0.7206  0.1963 -0.7697
    1PA     H4R 6043   0.451   0.006   5.938 -1.3888 -0.8555  2.0190
    1PA     H4S 6044   0.620  -0.005   5.988  1.1314  2.4005 -0.7948
    1PA     C13 6045   0.507   0.121   6.117  0.6411 -0.5935 -0.3387
    1PA     H3R 6046   0.594   0.159   6.170 -1.0912 -0.5126  2.7062
    1PA     H3S 6047   0.439   0.205   6.103 -0.2162 -1.1440  0.3959
    1PA     C12 6048   0.437   0.015   6.211 -0.6669 -0.5146  0.2257
    1PA     H2R 6049   0.397   0.072   6.295  2.2155 -0.5556  1.7502
    1PA     H2S 6050   0.359  -0.034   6.151 -0.8332 -0.4754  0.4078
    1PC     C11 6051   0.530  -0.079   6.281 -0.0257  0.1052  0.6825
    1PC     O12 6052   0.651  -0.085   6.266  0.4506  0.2065 -0.2717
    1PC     O11 6053   0.464  -0.146   6.378  0.0462 -0.4908 -0.1981
    1PC      C1 6054   0.537  -0.219   6.481  0.3521 -0.7216 -0.1398
    1PC      HR 6055   0.459  -0.282   6.523  1.4355 -2.4744 -0.6438
    1PC      HS 6056   0.607  -0.293   6.441  1.5652  0.0449  0.5108
    1PC      C2 6057   0.593  -0.133   6.597 -0.5911  0.2037 -0.0660
    1PC      HX 6058   0.657  -0.195   6.661 -1.3382  0.0939  0.5844
    1PC      C3 6059   0.491  -0.074   6.696 -0.2199 -0.1190  0.3150
    1PC      HA 6060   0.428  -0.002   6.643 -1.1116 -2.1078 -1.4596
    1PC      HB 6061   0.421  -0.152   6.727  2.1934 -1.8011  1.9172
    1PC     O31 6062   0.560  -0.021   6.809  0.0634 -0.6334  0.4163
    1PC     P31 6063   0.582  -0.119   6.931  0.1404  0.5197  0.0653
    1PC     O32 6064   0.446  -0.097   7.012 -0.1996 -0.2491 -0.0111
    1PC     C31 6065   0.423   0.021   7.080 -0.4167 -0.9157 -0.4165
    1PC     H1A 6066   0.472   0.100   7.022 -0.9888  1.5969  2.2674
    1PC     H1B 6067   0.316   0.037   7.090 -0.0452  1.6345  0.3040
    1PC     C32 6068   0.493   0.013   7.217  1.0960  0.2821 -0.5280
    1PC     H2A 6069   0.600  -0.006   7.210  1.1975  0.9670 -0.9473
    1PC     H2B 6070   0.496   0.115   7.258  0.3813  1.1798 -2.5999
    1PC     N31 6071   0.437  -0.068   7.333  0.0023  0.9147 -0.2678
    1PC     C33 6072   0.524  -0.041   7.461 -0.5516  0.5042  0.4462
    1PC     H3A 6073   0.492   0.048   7.515 -1.4519  1.0421 -0.9184
    1PC     H3B 6074   0.515  -0.121   7.534  2.4436 -0.6897 -0.3339
    1PC     H3C 6075   0.628  -0.017   7.439 -0.7925  2.0071  0.8301
    1PC     C34 6076   0.290  -0.035   7.358 -0.2350  0.6491 -0.9770
    1PC     H4A 6077   0.263  -0.099   7.442 -0.1045 -0.8645 -2.0386
    1PC     H4B 6078   0.282   0.073   7.369  0.1673  0.6012 -0.0347
    1PC     H4C 6079   0.224  -0.059   7.275 -0.6260 -1.0451 -0.2167
    1PC     C35 6080   0.455  -0.206   7.303  0.1237 -0.1010 -0.1278
    1PC     H5A 6081   0.414  -0.261   7.388  0.0169  0.8698  0.4522
    1PC     H5B 6082   0.562  -0.225   7.304  0.4228  1.2304 -2.1879
    1PC     H5C 6083   0.401  -0.230   7.211 -0.1043  1.2290 -0.3548
    1PC     O33 6084   0.564  -0.259   6.885 -0.0935  0.6877  0.1212
    1PC     O34 6085   0.701  -0.079   7.002 -0.2604  0.6185 -0.2260
    1PC     O21 6086   0.665  -0.031   6.528 -0.6847  0.4431  0.7185
    1PC     C21 6087   0.794  -0.023   6.535 -0.0733 -0.1267 -0.8703
    1PC     O22 6088   0.865  -0.096   6.604 -0.4058 -0.1959 -0.3120
    1OL     C12 6089   0.845   0.108   6.478 -0.6176 -0.2036 -0.5819
    1OL     H2R 6090   0.857   0.188   6.551  1.4632 -1.5296  0.6254
    1OL     H2S 6091   0.760   0.143   6.419 -0.7111 -2.8147 -2.1665
    1OL     C13 6092   0.973   0.101   6.400  0.0526 -0.0461  0.1398
    1OL     H3R 6093   0.949   0.022   6.329 -0.3021  0.5285 -0.3948
    1OL     H3S 6094   1.059   0.063   6.455 -0.5453 -1.3580  0.2122
    1OL     C14 6095   1.006   0.231   6.318 -0.0098 -0.5651 -0.8397
    1OL     H4R 6096   1.057   0.309   6.375 -0.1737  1.8842 -3.7309
    1OL     H4S 6097   0.914   0.280   6.284  1.0865  2.6013  0.4089
    1OL     C15 6098   1.104   0.201   6.202  0.0719 -0.2389  0.0935
    1OL     H5R 6099   1.183   0.130   6.228 -0.4742 -0.9800 -0.2469
    1OL     H5S 6100   1.168   0.286   6.174 -1.6068  0.4741 -1.9104
    1OL     C16 6101   1.043   0.163   6.066  0.3223  0.3182 -0.1368
    1OL     H6R 6102   1.123   0.155   5.992 -0.8761  1.3643 -1.5869
    1OL     H6S 6103   0.973   0.238   6.031  0.3495  0.7438  0.6985
    1OL     C17 6104   0.963   0.029   6.064 -0.2522  0.0465 -0.3215
    1OL     H7R 6105   0.876   0.022   6.129 -1.0918 -0.0194 -1.4086
    1OL     H7S 6106   1.031  -0.047   6.101  0.4329  1.3618  1.2066
    1OL     C18 6107   0.911   0.000   5.917  0.1645  0.0347 -0.8703
    1OL     H8R 6108   0.997   0.016   5.852 -0.5245  0.1862 -1.7725
    1OL     H8S 6109   0.846   0.085   5.894  0.6641  0.0560 -2.3008
    1OL     C19 6110   0.848  -0.137   5.903 -0.1184 -0.0895  0.4888
    1OL     H9R 6111   0.799  -0.173   5.993 -0.9039  0.0883  0.1373
    1OL    C110 6112   0.848  -0.222   5.799 -0.4699  0.4709 -0.6094
    1OL    H10R 6113   0.795  -0.316   5.813 -0.0060 -0.4147 -3.8079
    1OL    C111 6114   0.913  -0.193   5.660  1.0435  0.3659 -0.4084
    1OL    H11R 6115   1.000  -0.258   5.651 -0.9347 -2.6976  1.1532
    1OL    H11S 6116   0.941  -0.087   5.662  1.0291  0.3523  0.6244
    1OL    C112 6117   0.810  -0.226   5.546 -0.4529 -0.0216  0.1658
    1OL    H12R 6118   0.713  -0.186   5.576 -0.8353 -0.1279 -0.8849
    1OL    H12S 6119   0.793  -0.333   5.540  0.6458 -0.1223 -2.3439
    1OL    C113 6120   0.868  -0.183   5.410 -0.4654  0.3433  0.0383
    1OL    H13R 6121   0.961  -0.239   5.405  0.6842  2.0924  0.8869
    1OL    H13S 6122   0.888  -0.075   5.411  2.6465 -0.1407 -1.2226
    1OL    C114 6123   0.786  -0.215   5.290  0.5118  0.0178  0.0481
    1OL    H14R 6124   0.683  -0.185   5.309  1.2140  2.6593  0.0183
    1OL    H14S 6125   0.791  -0.323   5.272  1.2468  0.2578 -1.2930
    1OL    C115 6126   0.839  -0.152   5.162 -0.3798 -0.0285 -0.0730
    1OL    H15R 6127   0.862  -0.046   5.177 -0.4164  0.4250 -2.7006
    1OL    H15S 6128   0.750  -0.162   5.099  0.1618 -1.6602 -0.6250
    1OL    C116 6129   0.960  -0.216   5.095  0.3420 -0.1832 -0.4652
    1OL    H16R 6130   0.945  -0.323   5.080 -2.3328  0.4588 -3.2990
    1OL    H16S 6131   1.047  -0.197   5.158  0.8035  0.8618 -1.4016
    1OL    C117 6132   0.981  -0.160   4.954 -1.0150  0.1042 -0.0240
    1OL    H17R 6133   0.902  -0.180   4.882  0.9865 -0.6809 -2.1356
    1OL    H17S 6134   1.057  -0.224   4.909 -1.4751 -2.0123  2.0592
    1OL    C118 6135   1.034  -0.011   4.946 -0.2815  0.0633  0.1743
    1OL    H18R 6136   0.966   0.067   4.981  0.0394  1.1587 -1.5141
    1OL    H18S 6137   1.047   0.019   4.842  0.4586  2.7664  0.9461
    1OL    H18T 6138   1.133   0.005   4.990 -0.6219  1.0182  0.6252
    1PA    C116 6139   3.116   1.467   4.587  0.5570  0.0757 -0.3397
    1PA    H16R 6140   3.115   1.377   4.525  1.8708 -0.9978  1.1218
    1PA    H16S 6141   3.167   1.441   4.680 -0.2237 -2.4989 -0.5677
    1PA    H16T 6142   3.186   1.534   4.535 -0.7035  2.2376  0.6205
    1PA    C115 6143   2.974   1.517   4.608  0.1545  0.6325 -0.4267
    1PA    H15R 6144   2.942   1.464   4.698  0.9623 -0.1578 -0.5882
    1PA    H15S 6145   2.957   1.624   4.623  1.7150  1.2018 -2.2611
    1PA    C114 6146   2.875   1.462   4.504 -0.1221 -0.3637  0.2384
    1PA    H14R 6147   2.879   1.353   4.513 -0.3691 -0.3747  0.2217
    1PA    H14S 6148   2.778   1.502   4.532 -0.1881 -0.4639  0.1538
    1PA    C113 6149   2.908   1.500   4.357 -0.7326  0.7220  0.3140
    1PA    H13R 6150   2.928   1.607   4.351  0.4069  0.5879  1.1250
    1PA    H13S 6151   3.003   1.451   4.333 -2.1777 -1.7214 -0.7227
    1PA    C112 6152   2.808   1.447   4.261 -0.1548  0.3428 -0.0186
    1PA    H12R 6153   2.783   1.342   4.275 -1.1886  0.2307 -2.2593
    1PA    H12S 6154   2.710   1.495   4.254 -0.0305  0.3346 -4.1227
    1PA    C111 6155   2.861   1.460   4.120 -0.3883  0.2783  0.0781
    1PA    H11R 6156   2.864   1.567   4.096 -1.0003  0.1137 -0.7725
    1PA    H11S 6157   2.966   1.432   4.129 -0.7123 -0.4123  2.3995
    1PA    C110 6158   2.793   1.392   4.002 -0.2896  0.0120 -0.0637
    1PA    H10R 6159   2.690   1.428   3.998 -0.5242 -0.6643 -0.4221
    1PA    H10S 6160   2.838   1.404   3.903 -1.8836 -2.1818 -1.1481
    1PA     C19 6161   2.796   1.239   4.011 -0.0919 -0.2773 -0.1612
    1PA     H9R 6162   2.894   1.212   4.051 -0.6161 -2.0549  0.0265
    1PA     H9S 6163   2.722   1.192   4.077  1.1551 -0.2456  1.3320
    1PA     C18 6164   2.783   1.175   3.873  0.2851  0.3127  0.5125
    1PA     H8R 6165   2.854   1.224   3.804  0.1465 -2.8361 -2.1190
    1PA     H8S 6166   2.812   1.070   3.874 -0.2892  0.1533  1.1360
    1PA     C17 6167   2.630   1.187   3.821  0.3271 -0.6176 -0.7961
    1PA     H7R 6168   2.608   1.293   3.837  1.3402 -0.5687  0.4356
    1PA     H7S 6169   2.629   1.154   3.716  0.9580 -1.6723 -0.4857
    1PA     C16 6170   2.532   1.088   3.894 -0.0682 -0.2324  0.3478
    1PA     H6R 6171   2.562   0.987   3.864 -1.1807 -0.5466  0.2652
    1PA     H6S 6172   2.553   1.088   4.001  0.3929 -0.1960  0.2574
    1PA     C15 6173   2.383   1.112   3.874  0.4759  0.1630  0.0872
    1PA     H5R 6174   2.327   1.055   3.948 -0.3645 -0.5326 -1.0529
    1PA     H5S 6175   2.372   1.218   3.899  1.6916  0.9379 -2.2903
    1PA     C14 6176   2.328   1.087   3.729  0.2486  0.4676 -0.4845
    1PA     H4R 6177   2.351   0.991   3.683 -2.2183  0.2883 -1.4626
    1PA     H4S 6178   2.220   1.100   3.742  0.4670  0.8504  1.2649
    1PA     C13 6179   2.364   1.202   3.629 -0.1945  0.0542  0.7912
    1PA     H3R 6180   2.365   1.295   3.687  2.6494  0.2117  0.6373
    1PA     H3S 6181   2.465   1.184   3.593  0.6136 -0.4678  3.1508
    1PA     C12 6182   2.271   1.206   3.511 -0.0560  0.2091  0.8452
    1PA     H2R 6183   2.248   1.104   3.479  1.1683  0.0984  0.2525
    1PA     H2S 6184   2.180   1.254   3.548  0.0115  0.0023  1.2827
    1PC     C11 6185   2.331   1.287   3.399 -0.2035 -0.2979  0.6989
    1PC     O12 6186   2.356   1.247   3.287 -0.5424  0.0629  0.3182
    1PC     O11 6187   2.338   1.414   3.436 -0.3899  0.0285 -0.0777
    1PC      C1 6188   2.392   1.510   3.346  0.1525  0.2436  0.4005
    1PC      HR 6189   2.494   1.529   3.380 -0.8658  2.1165  2.6911
    1PC      HS 6190   2.383   1.476   3.243  0.3048  1.5245 -0.0514
    1PC      C2 6191   2.322   1.650   3.339  0.0540 -0.7387 -0.6536
    1PC      HX 6192   2.215   1.640   3.321 -0.0227 -0.5232 -0.3333
    1PC      C3 6193   2.384   1.748   3.234  0.0492  0.4532  1.0579
    1PC      HA 6194   2.356   1.730   3.130  1.6426  0.2479  0.6420
    1PC      HB 6195   2.328   1.840   3.253 -3.4772 -1.4484  0.7129
    1PC     O31 6196   2.527   1.755   3.245  0.2241  0.5876  0.4957
    1PC     P31 6197   2.611   1.848   3.141 -0.7238 -0.2031 -0.6546
    1PC     O32 6198   2.589   1.993   3.203  0.7941  0.4563  0.6666
    1PC     C31 6199   2.648   2.032   3.327  0.3447 -0.3878 -0.2827
    1PC     H1A 6200   2.583   1.995   3.407 -0.2381 -1.3649 -1.1786
    1PC     H1B 6201   2.751   1.995   3.333  0.5547  0.3353  1.0261
    1PC     C32 6202   2.638   2.191   3.329 -0.1993 -0.2568  0.1648
    1PC     H2A 6203   2.691   2.217   3.421  0.1957 -1.6274  0.3550
    1PC     H2B 6204   2.696   2.236   3.248  0.4086  1.7884  1.6638
    1PC     N31 6205   2.498   2.242   3.328 -0.0047  0.0416  0.0233
    1PC     C33 6206   2.403   2.148   3.388  0.1387  0.2479 -0.0006
    1PC     H3A 6207   2.447   2.125   3.485 -0.0544 -1.2205 -0.2395
    1PC     H3B 6208   2.317   2.210   3.412  0.2853  0.6612 -0.5241
    1PC     H3C 6209   2.392   2.059   3.326  0.2245  0.4947 -0.3746
    1PC     C34 6210   2.504   2.370   3.402  0.2722  0.2581  0.3818
    1PC     H4A 6211   2.575   2.426   3.342 -0.1697 -1.5036 -1.9350
    1PC     H4B 6212   2.406   2.416   3.411  1.0199  1.5454  2.9196
    1PC     H4C 6213   2.547   2.350   3.500 -0.3959  0.7202  0.7809
    1PC     C35 6214   2.446   2.269   3.190  0.1564 -0.1370 -0.0958
    1PC     H5A 6215   2.350   2.317   3.211  0.3141 -0.9332  2.8267
    1PC     H5B 6216   2.427   2.171   3.146  2.4736 -0.9314  0.5349
    1PC     H5C 6217   2.515   2.328   3.129  3.0700 -2.7514  0.4441
    1PC     O33 6218   2.751   1.812   3.163 -0.0599  0.0817  0.1149
    1PC     O34 6219   2.547   1.841   3.007 -0.8864 -0.2927 -0.4194
    1PC     O21 6220   2.339   1.712   3.471 -0.5347 -0.1108 -0.2228
    1PC     C21 6221   2.250   1.673   3.569 -0.8085 -0.5146  0.3854
    1PC     O22 6222   2.142   1.619   3.549  0.3457 -0.2007 -0.0798
    1OL     C12 6223   2.300   1.711   3.708  0.3440 -0.5149  0.2255
    1OL     H2R 6224   2.225   1.771   3.760 -0.2605 -0.0026 -1.1843
    1OL     H2S 6225   2.384   1.780   3.713 -1.2392  1.4802  0.6397
    1OL     C13 6226   2.329   1.584   3.791 -0.2637 -0.3845 -0.3423
    1OL     H3R 6227   2.373   1.511   3.722 -1.2357 -0.4551 -0.9081
    1OL     H3S 6228   2.240   1.536   3.833 -0.5975  0.1024 -0.4867
    1OL     C14 6229   2.432   1.601   3.907  0.1216 -0.4189  0.4381
    1OL     H4R 6230   2.529   1.636   3.873 -0.0563 -1.2864 -1.0564
    1OL     H4S 6231   2.457   1.500   3.940  0.6465 -0.6557 -0.6418
    1OL     C15 6232   2.377   1.681   4.020  0.5225  0.3978  0.8153
    1OL     H5R 6233   2.284   1.634   4.052  0.6776 -1.0763 -0.7694
    1OL     H5S 6234   2.358   1.782   3.983 -0.6174  0.1591  0.6960
    1OL     C16 6235   2.455   1.697   4.149 -0.0715 -0.3937 -0.8441
    1OL     H6R 6236   2.494   1.600   4.180  4.4054  0.9584 -1.5000
    1OL     H6S 6237   2.385   1.740   4.220 -0.1817 -2.2965  0.2665
    1OL     C17 6238   2.568   1.797   4.119  0.2917 -0.4207  0.0865
    1OL     H7R 6239   2.508   1.886   4.095 -1.1572 -1.7820 -1.6818
    1OL     H7S 6240   2.627   1.767   4.033 -0.9659 -2.0161 -0.2670
    1OL     C18 6241   2.666   1.819   4.239 -0.1404 -0.1162 -0.3060
    1OL     H8R 6242   2.761   1.861   4.206 -0.3860 -1.0123 -2.3251
    1OL     H8S 6243   2.686   1.720   4.283  2.5720 -0.1172 -1.3762
    1OL     C19 6244   2.607   1.919   4.335  0.6223 -0.1226  0.4633
    1OL     H9R 6245   2.599   2.022   4.303 -1.1407 -0.1506  0.7156
    1OL    C110 6246   2.555   1.896   4.455  0.1772 -0.0618  0.1328
    1OL    H10R 6247   2.498   1.979   4.496 -0.0824 -0.4512  0.5751
    1OL    C111 6248   2.549   1.767   4.525 -0.1651  0.0272 -0.7510
    1OL    H11R 6249   2.640   1.762   4.586 -1.2957  0.3514  1.0419
    1OL    H11S 6250   2.557   1.684   4.454 -0.2201 -1.8731  1.3285
    1OL    C112 6251   2.420   1.753   4.606 -0.6756 -0.0275 -0.7529
    1OL    H12R 6252   2.345   1.769   4.529  1.6376  3.2829 -2.5576
    1OL    H12S 6253   2.411   1.836   4.676  1.7384  2.0179 -2.6756
    1OL    C113 6254   2.422   1.613   4.676 -0.0248  0.0708 -1.1188
    1OL    H13R 6255   2.506   1.612   4.745 -2.3539  2.4175  2.0502
    1OL    H13S 6256   2.434   1.535   4.601  0.0951  2.8618 -4.2517
    1OL    C114 6257   2.294   1.586   4.760 -0.3660 -0.5530  0.3885
    1OL    H14R 6258   2.283   1.480   4.785 -0.1800 -0.4217  1.0318
    1OL    H14S 6259   2.205   1.613   4.702 -0.3223 -2.2592 -0.5302
    1OL    C115 6260   2.282   1.667   4.892 -0.7901  0.0676 -0.2441
    1OL    H15R 6261   2.277   1.771   4.862  1.6480  0.5960  0.9334
    1OL    H15S 6262   2.371   1.666   4.955  0.2703  1.3132 -1.6632
    1OL    C116 6263   2.158   1.636   4.972  0.1999  0.7646  0.8030
    1OL    H16R 6264   2.167   1.529   4.993 -3.3086  0.1418 -0.2486
    1OL    H16S 6265   2.070   1.649   4.910 -1.8741  0.5973  3.5252
    1OL    C117 6266   2.146   1.714   5.100 -0.0377 -0.4208  0.4794
    1OL    H17R 6267   2.054   1.698   5.156  0.7846  0.4380  2.1580
    1OL    H17S 6268   2.155   1.817   5.065  0.6675 -0.9758 -1.0769
    1OL    C118 6269   2.255   1.678   5.199  0.2509  0.2138  0.6055
    1OL    H18R 6270   2.354   1.714   5.171  0.1251 -0.3002 -0.5867
    1OL    H18S 6271   2.243   1.569   5.204  0.8833  0.0639 -0.7980
    1OL    H18T 6272   2.217   1.718   5.293 -2.1649 -1.8654  0.6248
    1PA    C116 6273   2.997   2.722   5.271  0.2204 -0.4566  0.7318
    1PA    H16R 6274   3.025   2.617   5.276  0.9150 -0.3590 -0.5804
    1PA    H16S 6275   2.924   2.741   5.350  0.0779  0.7552  0.3309
    1PA    H16T 6276   3.071   2.801   5.288  1.7371 -2.0181  1.5945
    1PA    C115 6277   2.914   2.742   5.143  0.2972  0.0568  0.0113
    1PA    H15R 6278   2.824   2.681   5.148 -0.4843  1.2490  0.9018
    1PA    H15S 6279   2.895   2.849   5.137  2.7859  0.5136 -1.2335
    1PA    C114 6280   2.996   2.721   5.015 -0.4502  0.5434 -0.3840
    1PA    H14R 6281   3.086   2.783   5.012  0.3522 -0.4622  1.5009
    1PA    H14S 6282   3.017   2.615   5.005 -1.2939 -0.1489  3.7005
    1PA    C113 6283   2.923   2.768   4.890 -0.0939  0.2437 -0.4482
    1PA    H13R 6284   2.861   2.688   4.850  0.5774 -0.1900 -0.6280
    1PA    H13S 6285   2.868   2.861   4.907 -1.8384  0.0271 -3.9821
    1PA    C112 6286   3.026   2.790   4.782 -0.4130  0.0948  0.1269
    1PA    H12R 6287   3.084   2.880   4.798  0.4670 -0.2972 -0.7252
    1PA    H12S 6288   3.098   2.707   4.776 -0.7685 -0.3458  1.4951
    1PA    C111 6289   2.969   2.806   4.639  0.1411  0.6060 -0.2154
    1PA    H11R 6290   2.927   2.712   4.603  0.3140 -0.2750  1.7763
    1PA    H11S 6291   2.896   2.885   4.624  1.5712  1.5240 -3.0526
    1PA    C110 6292   3.083   2.846   4.549 -0.1128 -0.7819 -0.0464
    1PA    H10R 6293   3.096   2.953   4.563 -0.4701 -0.8236  0.6242
    1PA    H10S 6294   3.175   2.795   4.579  0.3674  0.0413 -0.1067
    1PA     C19 6295   3.051   2.829   4.401 -0.0104 -0.5087 -0.0582
    1PA     H9R 6296   3.037   2.725   4.372  1.2935 -0.7329  0.0608
    1PA     H9S 6297   2.956   2.878   4.380  0.1589  0.0005  0.3466
    1PA     C18 6298   3.162   2.890   4.308 -0.2387  0.4313 -0.1748
    1PA     H8R 6299   3.175   2.996   4.332 -1.4076  0.0345  2.6134
    1PA     H8S 6300   3.249   2.829   4.335 -1.7863 -1.0923  1.6310
    1PA     C17 6301   3.125   2.867   4.160  0.5060  0.2367  0.0368
    1PA     H7R 6302   3.091   2.764   4.147  1.3888 -0.0848  0.2304
    1PA     H7S 6303   3.041   2.931   4.131  0.0391 -0.0779  0.6516
    1PA     C16 6304   3.238   2.893   4.058 -0.3190  0.2171  0.1977
    1PA     H6R 6305   3.273   2.995   4.074  0.3207  0.6746 -3.2315
    1PA     H6S 6306   3.320   2.821   4.064 -1.1670 -1.4568 -4.0379
    1PA     C15 6307   3.186   2.886   3.910  0.0699  0.3241  0.6746
    1PA     H5R 6308   3.083   2.922   3.913 -0.5676 -1.2738 -0.3382
    1PA     H5S 6309   3.253   2.949   3.851 -1.1201  0.6600 -0.3561
    1PA     C14 6310   3.190   2.743   3.853  0.3007 -0.7278  0.1316
    1PA     H4R 6311   3.294   2.710   3.862  0.5387 -0.5292 -1.5242
    1PA     H4S 6312   3.120   2.686   3.915 -0.9629 -1.0565 -1.5195
    1PA     C13 6313   3.143   2.745   3.706 -0.0939  0.1998  0.5088
    1PA     H3R 6314   3.122   2.642   3.676  0.4758  0.6259 -1.4836
    1PA     H3S 6315   3.048   2.799   3.710 -1.3512 -1.9387  2.8436
    1PA     C12 6316   3.247   2.787   3.599 -0.1315 -0.1114  0.2295
    1PA     H2R 6317   3.288   2.887   3.615  0.3050  0.3114 -2.8360
    1PA     H2S 6318   3.324   2.709   3.597 -0.1939 -0.1804  0.4873
    1PC     C11 6319   3.186   2.800   3.461  0.8208  0.0434 -0.3190
    1PC     O12 6320   3.090   2.736   3.415  0.0608  0.2836  0.6130
    1PC     O11 6321   3.228   2.912   3.402 -0.6406  0.3941 -0.3586
    1PC      C1 6322   3.168   2.947   3.273 -0.1054  0.2345  0.0073
    1PC      HR 6323   3.156   2.857   3.214  2.0018 -0.3047  0.3273
    1PC      HS 6324   3.076   3.002   3.291  0.2145  0.6679  0.3595
    1PC      C2 6325   3.272   3.049   3.213 -0.2591  0.2559 -0.3695
    1PC      HX 6326   3.232   3.080   3.116  0.5786  3.0214  0.0790
    1PC      C3 6327   3.419   2.994   3.197 -0.5579 -0.3028  0.6661
    1PC      HA 6328   3.483   3.075   3.161  0.4230 -1.0860  0.6026
    1PC      HB 6329   3.455   2.957   3.293  0.2775  0.6702  0.7464
    1PC     O31 6330   3.420   2.884   3.106  0.0584  0.6131  0.1991
    1PC     P31 6331   3.461   2.899   2.954  0.0944 -0.1089  0.0939
    1PC     O32 6332   3.619   2.870   2.968 -0.8650  0.1599  0.1437
    1PC     C31 6333   3.712   2.969   2.998 -0.9153  0.5430  0.2478
    1PC     H1A 6334   3.700   3.058   2.936  0.1107  0.4238 -0.1438
    1PC     H1B 6335   3.712   2.992   3.105  1.2230  0.9082  0.2131
    1PC     C32 6336   3.855   2.915   2.961 -0.2286  0.0223  0.2422
    1PC     H2A 6337   3.886   2.843   3.037  0.6802 -0.7029 -0.7804
    1PC     H2B 6338   3.839   2.865   2.865  0.5515 -0.1463  0.1939
    1PC     N31 6339   3.975   3.001   2.946  1.0382 -0.3255  0.4400
    1PC     C33 6340   3.970   3.105   2.836  0.3550 -0.6484 -0.0431
    1PC     H3A 6341   3.883   3.167   2.856  1.2153  0.6278 -0.2009
    1PC     H3B 6342   4.056   3.171   2.839 -2.1695  3.0902 -2.2872
    1PC     H3C 6343   3.953   3.059   2.738 -0.6775  1.1051 -0.7284
    1PC     C34 6344   3.988   3.077   3.072 -0.1864 -0.1317 -0.6251
    1PC     H4A 6345   3.960   3.010   3.154 -2.9941  0.1730 -1.2535
    1PC     H4B 6346   4.087   3.121   3.080 -1.0879  1.6235  2.8931
    1PC     H4C 6347   3.914   3.157   3.068  0.1121  0.2721  1.0091
    1PC     C35 6348   4.101   2.921   2.923  0.4218  0.0098  0.1089
    1PC     H5A 6349   4.108   2.857   3.012  0.5362 -2.9404 -1.8579
    1PC     H5B 6350   4.186   2.988   2.916  1.4043 -1.3355 -1.5076
    1PC     H5C 6351   4.083   2.862   2.833 -1.0252  0.0288  0.3668
    1PC     O33 6352   3.392   2.785   2.893  0.0375 -0.1282 -0.3225
    1PC     O34 6353   3.428   3.037   2.909  0.1888  0.1684  0.3386
    1PC     O21 6354   3.281   3.167   3.303 -0.5511  0.1604 -0.5137
    1PC     C21 6355   3.243   3.285   3.253  0.0046 -0.4256  0.1581
    1PC     O22 6356   3.221   3.304   3.133  0.1531  0.0539  0.1251
    1OL     C12 6357   3.241   3.394   3.361  0.6298 -0.0484 -0.2842
    1OL     H2R 6358   3.237   3.489   3.307  0.2203 -0.5676 -1.1990
    1OL     H2S 6359   3.328   3.391   3.427 -0.7930 -1.1294  1.6771
    1OL     C13 6360   3.118   3.365   3.457  0.0103 -0.0707  0.5842
    1OL     H3R 6361   3.126   3.260   3.482  1.3336  0.3910  2.2714
    1OL     H3S 6362   3.029   3.389   3.398 -0.1108 -2.0912 -0.1101
    1OL     C14 6363   3.122   3.445   3.585 -0.1519  0.5128  0.3598
    1OL     H4R 6364   3.026   3.434   3.637 -0.3694  0.2959 -0.0842
    1OL     H4S 6365   3.125   3.553   3.568 -0.5462  0.0956 -2.9931
    1OL     C15 6366   3.231   3.397   3.681  0.9612  0.4695 -0.9845
    1OL     H5R 6367   3.323   3.441   3.641 -0.3055  1.6321 -2.7652
    1OL     H5S 6368   3.229   3.288   3.681 -1.9196  0.4192 -2.9058
    1OL     C16 6369   3.231   3.431   3.825  0.0579 -0.0932 -0.4789
    1OL     H6R 6370   3.274   3.532   3.823  0.0766 -0.1006 -0.4411
    1OL     H6S 6371   3.301   3.361   3.871  0.2235 -1.9106 -3.2664
    1OL     C17 6372   3.095   3.447   3.896  0.4277  0.3840  0.8440
    1OL     H7R 6373   3.034   3.358   3.882 -0.3878  0.4798  3.2466
    1OL     H7S 6374   3.044   3.528   3.843 -1.5052  0.3922  2.5770
    1OL     C18 6375   3.111   3.478   4.047 -0.4158  0.2928 -0.2904
    1OL     H8R 6376   3.009   3.500   4.079  0.2086  1.6015  0.8819
    1OL     H8S 6377   3.183   3.557   4.067  3.0892 -3.4294  3.9057
    1OL     C19 6378   3.160   3.359   4.126  0.2808  0.0029 -0.6773
    1OL     H9R 6379   3.268   3.345   4.122  0.2632 -0.2340 -0.3318
    1OL    C110 6380   3.093   3.271   4.202 -0.0215 -0.1900 -0.1693
    1OL    H10R 6381   3.157   3.203   4.259  0.2758  0.8678  0.7897
    1OL    C111 6382   2.951   3.243   4.205  0.0273 -0.2183 -0.2612
    1OL    H11R 6383   2.935   3.162   4.133 -0.8281  1.1080 -1.6134
    1OL    H11S 6384   2.891   3.325   4.165 -0.5292 -0.1910  0.6175
    1OL    C112 6385   2.895   3.204   4.345 -0.5310 -0.0758  0.3065
    1OL    H12R 6386   2.944   3.111   4.376  2.8611  0.8350 -1.7138
    1OL    H12S 6387   2.789   3.179   4.352 -0.0922 -1.9411  0.8329
    1OL    C113 6388   2.937   3.324   4.437 -0.1399  1.0054 -0.4678
    1OL    H13R 6389   2.914   3.420   4.388 -0.6625  0.7517 -0.7247
    1OL    H13S 6390   3.046   3.315   4.447  0.3253  0.8990 -4.2050
    1OL    C114 6391   2.873   3.306   4.579 -0.1756 -0.4974  0.0337
    1OL    H14R 6392   2.914   3.213   4.620 -0.7469 -1.1998 -0.9239
    1OL    H14S 6393   2.764   3.295   4.579 -0.4653  1.8604  1.3843
    1OL    C115 6394   2.896   3.417   4.676  0.0205 -0.0362  0.4747
    1OL    H15R 6395   2.842   3.502   4.634 -0.9149 -1.5828 -1.6781
    1OL    H15S 6396   3.002   3.440   4.663 -0.3673  0.8377 -1.5729
    1OL    C116 6397   2.852   3.385   4.817 -0.7924 -0.2244  0.5496
    1OL    H16R 6398   2.887   3.472   4.872  5.4379 -0.2576 -2.4939
    1OL    H16S 6399   2.903   3.296   4.853 -0.6430  0.0759  1.0908
    1OL    C117 6400   2.696   3.360   4.846  0.0883  0.2618  0.2298
    1OL    H17R 6401   2.669   3.262   4.808  0.1952 -0.0673  1.0037
    1OL    H17S 6402   2.632   3.433   4.795  0.3211  0.7173  0.5850
    1OL    C118 6403   2.651   3.386   4.990 -0.3334 -0.7400 -0.2877
    1OL    H18R 6404   2.737   3.356   5.049  0.4445  1.2077 -0.3602
    1OL    H18S 6405   2.561   3.327   5.011  1.4477 -4.1498 -1.5189
    1OL    H18T 6406   2.624   3.490   5.012  0.6403 -0.6568  0.5762
    1PA    C116 6407   3.872   1.271   4.736  0.2840 -0.5242 -0.9086
    1PA    H16R 6408   3.937   1.205   4.794 -0.6731  0.8185  1.9114
    1PA    H16S 6409   3.802   1.295   4.816  0.6881 -2.5776  0.1371
    1PA    H16T 6410   3.933   1.356   4.704 -0.3227  0.1199 -0.3919
    1PA    C115 6411   3.800   1.211   4.618 -0.1994  0.0535  0.2878
    1PA    H15R 6412   3.876   1.192   4.542 -0.3308 -0.6534  0.3205
    1PA    H15S 6413   3.766   1.110   4.644 -1.2363  0.6698  1.4136
    1PA    C114 6414   3.687   1.285   4.547  0.4415 -0.1058  0.4152
    1PA    H14R 6415   3.608   1.312   4.618 -1.2173  1.3033 -1.8171
    1PA    H14S 6416   3.731   1.372   4.498  0.5149 -0.2541  0.2183
    1PA    C113 6417   3.605   1.199   4.444 -0.0651 -0.0554 -0.1396
    1PA    H13R 6418   3.676   1.181   4.363 -0.5386  2.9227 -1.3461
    1PA    H13S 6419   3.575   1.105   4.493 -0.0743  0.5809  1.1257
    1PA    C112 6420   3.478   1.267   4.387  0.0947 -0.5288  0.6385
    1PA    H12R 6421   3.427   1.198   4.319 -0.1212  1.1710 -1.0274
    1PA    H12S 6422   3.404   1.289   4.464  0.0737 -0.0484  0.4829
    1PA    C111 6423   3.506   1.397   4.309  0.0854 -1.0409  0.4514
    1PA    H11R 6424   3.561   1.465   4.374  1.7744 -0.8827 -1.0622
    1PA    H11S 6425   3.571   1.375   4.225  0.9825 -0.7034  1.0412
    1PA    C110 6426   3.380   1.472   4.255 -0.2945 -0.1813  0.6719
    1PA    H10R 6427   3.330   1.530   4.332  0.9816  0.0671  1.3342
    1PA    H10S 6428   3.417   1.546   4.184 -0.1525  0.0412  0.9753
    1PA     C19 6429   3.281   1.382   4.183  1.1330  0.1009 -0.5164
    1PA     H9R 6430   3.223   1.312   4.243  0.9642  1.0221  0.4277
    1PA     H9S 6431   3.207   1.455   4.148  1.2488  0.5098  0.0863
    1PA     C18 6432   3.332   1.313   4.048  0.0609  0.6025 -0.8635
    1PA     H8R 6433   3.282   1.358   3.963 -1.0916  0.2843 -0.3708
    1PA     H8S 6434   3.437   1.336   4.027 -0.2285  1.3848 -1.4836
    1PA     C17 6435   3.301   1.152   4.041 -0.1426 -0.4490  0.1689
    1PA     H7R 6436   3.379   1.105   4.101  2.6653  2.4639 -0.9247
    1PA     H7S 6437   3.203   1.134   4.086  0.3383  0.9798  1.9339
    1PA     C16 6438   3.317   1.095   3.897  0.1323  0.3614  0.3534
    1PA     H6R 6439   3.265   1.161   3.828 -1.5471 -1.4156 -0.1883
    1PA     H6S 6440   3.421   1.086   3.865  1.0163  0.0108  3.0733
    1PA     C15 6441   3.258   0.953   3.871 -0.6619  0.1962 -0.2391
    1PA     H5R 6442   3.266   0.928   3.765  0.5384  3.2082 -0.9674
    1PA     H5S 6443   3.323   0.880   3.920  0.1210 -1.6012 -3.6412
    1PA     C14 6444   3.113   0.958   3.921  0.6114 -0.4675  0.1857
    1PA     H4R 6445   3.118   0.952   4.030 -0.4496  0.0441  0.2735
    1PA     H4S 6446   3.061   1.050   3.891  1.8318  0.5792  1.1441
    1PA     C13 6447   3.037   0.829   3.889  0.4676  0.0502  0.0511
    1PA     H3R 6448   3.072   0.746   3.950 -0.1274 -0.8231 -0.7560
    1PA     H3S 6449   2.932   0.844   3.914  0.1341  0.6052 -1.5321
    1PA     C12 6450   3.032   0.767   3.749 -0.5274  0.4469 -0.5237
    1PA     H2R 6451   3.131   0.738   3.712 -0.8025 -1.8097  0.3340
    1PA     H2S 6452   2.982   0.670   3.754  2.8407 -1.5163 -1.3072
    1PC     C11 6453   2.966   0.851   3.640  0.1437  0.3574  0.2476
    1PC     O12 6454   2.846   0.838   3.609  0.0355 -0.0530  0.0743
    1PC     O11 6455   3.037   0.959   3.604  0.6116 -0.1788 -0.3184
    1PC      C1 6456   2.978   1.067   3.530 -0.3031 -0.3086 -0.7906
    1PC      HR 6457   2.934   1.023   3.440  0.6918  0.4505 -1.6716
    1PC      HS 6458   2.889   1.101   3.584 -1.0330  0.2517 -2.2867
    1PC      C2 6459   3.072   1.181   3.494  0.5002  0.1215  0.2165
    1PC      HX 6460   3.010   1.234   3.421 -0.9882 -0.9538  0.6375
    1PC      C3 6461   3.208   1.128   3.441  0.1326  0.2264  0.6688
    1PC      HA 6462   3.261   1.079   3.523  0.3073 -1.1104 -0.2059
    1PC      HB 6463   3.197   1.054   3.362  2.2063 -1.0474  1.4873
    1PC     O31 6464   3.279   1.238   3.387 -0.7538  0.1058  0.2432
    1PC     P31 6465   3.278   1.266   3.225 -0.1587  0.0449  0.0431
    1PC     O32 6466   3.400   1.166   3.171 -0.1762 -0.2787 -0.1644
    1PC     C31 6467   3.385   1.027   3.162 -0.3030 -0.2843  0.0706
    1PC     H1A 6468   3.399   0.980   3.260  0.5758 -1.9423 -0.8166
    1PC     H1B 6469   3.282   0.998   3.136 -0.1180 -2.0436  1.1004
    1PC     C32 6470   3.484   0.967   3.063  0.1502 -0.3176  0.0347
    1PC     H2A 6471   3.475   1.020   2.969  0.3736 -0.2049  0.0749
    1PC     H2B 6472   3.585   0.967   3.106 -0.3505 -0.1766  1.2541
    1PC     N31 6473   3.459   0.818   3.033  0.2062  0.0636 -0.7537
    1PC     C33 6474   3.458   0.727   3.156 -0.2673 -0.3415 -0.1587
    1PC     H3A 6475   3.553   0.738   3.209 -0.5289  0.0862  0.2330
    1PC     H3B 6476   3.363   0.757   3.201 -0.1332 -0.2080  0.0364
    1PC     H3C 6477   3.449   0.623   3.124 -0.1925 -0.0292 -1.2171
    1PC     C34 6478   3.331   0.817   2.959  0.5193 -0.0738 -0.2345
    1PC     H4A 6479   3.329   0.718   2.913 -1.6212 -0.4138  0.4732
    1PC     H4B 6480   3.256   0.831   3.037 -0.6119  1.6334 -1.5326
    1PC     H4C 6481   3.316   0.900   2.890 -1.1283 -0.0157  0.1377
    1PC     C35 6482   3.576   0.766   2.957  0.2391 -0.2124 -0.0261
    1PC     H5A 6483   3.660   0.769   3.027  0.5687 -0.3460 -0.4122
    1PC     H5B 6484   3.586   0.843   2.881 -2.3465 -0.2154 -0.4607
    1PC     H5C 6485   3.556   0.665   2.921  1.8834 -1.4212  2.1729
    1PC     O33 6486   3.154   1.217   3.163  0.3067  0.3209  0.2146
    1PC     O34 6487   3.325   1.406   3.204  0.0727 -0.4373 -0.0428
    1PC     O21 6488   3.099   1.256   3.603  0.0138  0.4724 -0.1615
    1PC     C21 6489   3.097   1.387   3.591  0.2242 -0.0917 -0.2646
    1PC     O22 6490   3.045   1.447   3.496  0.0984  0.3855  0.1288
    1OL     C12 6491   3.158   1.458   3.715 -0.4584 -0.1038  0.5959
    1OL     H2R 6492   3.240   1.396   3.750  1.2315  1.9716  0.5223
    1OL     H2S 6493   3.075   1.459   3.785  1.5166 -0.0476  3.0825
    1OL     C13 6494   3.200   1.599   3.675 -0.4092 -0.2646 -0.4047
    1OL     H3R 6495   3.118   1.650   3.624 -0.6418  0.7085  0.9092
    1OL     H3S 6496   3.284   1.587   3.607  0.0974 -1.4022  0.3743
    1OL     C14 6497   3.252   1.681   3.796 -0.7985  0.0036 -0.4590
    1OL     H4R 6498   3.274   1.783   3.765  0.5563 -0.0244  0.3270
    1OL     H4S 6499   3.344   1.631   3.826 -0.7314 -0.4329 -1.3615
    1OL     C15 6500   3.160   1.682   3.917 -1.1100 -0.0039 -0.1414
    1OL     H5R 6501   3.146   1.581   3.956 -0.2324  0.4777  1.5152
    1OL     H5S 6502   3.065   1.712   3.872 -0.6371 -0.5362 -1.5748
    1OL     C16 6503   3.199   1.768   4.033 -0.6365  0.1258  0.7156
    1OL     H6R 6504   3.215   1.872   4.003 -1.4612  0.0028 -0.1899
    1OL     H6S 6505   3.295   1.737   4.075  0.6374  0.8169 -1.5307
    1OL     C17 6506   3.098   1.756   4.145  0.1852  0.3261 -0.1721
    1OL     H7R 6507   3.096   1.652   4.180 -0.9544  0.8007  1.2445
    1OL     H7S 6508   3.003   1.784   4.099 -0.2203 -2.0899 -0.9867
    1OL     C18 6509   3.130   1.855   4.263 -0.1400  0.3460  0.4309
    1OL     H8R 6510   3.035   1.895   4.298 -0.7872  1.1321 -2.0364
    1OL     H8S 6511   3.188   1.941   4.229 -0.7662  0.5330 -0.2023
    1OL     C19 6512   3.205   1.787   4.375 -0.0307 -0.5691  0.4158
    1OL     H9R 6513   3.227   1.682   4.361  0.8397 -0.3477  0.0655
    1OL    C110 6514   3.242   1.851   4.492  0.5237  0.2314 -0.1146
    1OL    H10R 6515   3.277   1.793   4.577  1.3533 -0.5122 -0.9311
    1OL    C111 6516   3.223   1.996   4.518 -0.0742 -0.0002  0.4957
    1OL    H11R 6517   3.167   2.016   4.610  0.6145 -1.2187  1.2158
    1OL    H11S 6518   3.154   2.037   4.444 -1.6574  0.7913  2.3136
    1OL    C112 6519   3.360   2.070   4.522 -0.1181 -0.3496 -0.5834
    1OL    H12R 6520   3.431   2.028   4.594 -0.3013  1.5632  0.7952
    1OL    H12S 6521   3.342   2.171   4.561  0.0221 -0.2304 -0.8261
    1OL    C113 6522   3.427   2.089   4.387 -0.1772 -1.4147 -0.2480
    1OL    H13R 6523   3.495   2.174   4.395  0.9572 -2.4374  1.5318
    1OL    H13S 6524   3.344   2.106   4.318  0.3160 -1.1404 -0.7897
    1OL    C114 6525   3.514   1.976   4.334 -0.1803  0.6446  0.0326
    1OL    H14R 6526   3.453   1.887   4.318 -0.5124  0.9684 -0.5276
    1OL    H14S 6527   3.585   1.945   4.411 -0.1569 -2.0841 -0.9833
    1OL    C115 6528   3.585   2.008   4.203 -0.2719 -0.1537 -0.3834
    1OL    H15R 6529   3.638   1.921   4.163  1.2832  0.7185 -0.3212
    1OL    H15S 6530   3.659   2.089   4.211  0.3814 -0.0283 -5.0338
    1OL    C116 6531   3.484   2.068   4.095 -0.5034 -0.0363 -0.1018
    1OL    H16R 6532   3.431   2.155   4.134 -0.6999 -0.1657 -0.0773
    1OL    H16S 6533   3.407   1.993   4.076 -0.5376 -0.1800  0.5592
    1OL    C117 6534   3.540   2.107   3.959 -0.2089 -0.2000 -0.0854
    1OL    H17R 6535   3.578   2.017   3.909  0.1120 -1.1524  1.8056
    1OL    H17S 6536   3.620   2.178   3.978 -0.8201  0.5972 -0.4426
    1OL    C118 6537   3.432   2.177   3.874  0.4207  0.7319 -0.2089
    1OL    H18R 6538   3.376   2.258   3.922 -3.3617 -1.0601 -1.2199
    1OL    H18S 6539   3.355   2.106   3.841 -1.1560  2.3562 -0.2241
    1OL    H18T 6540   3.470   2.218   3.780 -2.0521 -1.9839 -2.6217
    1PA    C116 6541   2.957   2.193   5.206  0.4021 -0.0095 -0.1205
    1PA    H16R 6542   2.922   2.195   5.310 -0.6244  2.6226 -0.4379
    1PA    H16S 6543   3.003   2.290   5.187  2.9624 -0.7535  1.7482
    1PA    H16T 6544   3.028   2.110   5.206  0.6396  0.0960 -2.9754
    1PA    C115 6545   2.835   2.167   5.116  0.1602 -0.3041  0.1673
    1PA    H15R 6546   2.792   2.073   5.151  0.7458 -0.6562 -0.0478
    1PA    H15S 6547   2.763   2.249   5.128 -0.8311 -0.5678 -2.9872
    1PA    C114 6548   2.873   2.148   4.970  0.1012  0.0486 -0.9821
    1PA    H14R 6549   2.957   2.077   4.973 -0.3429 -0.4971 -1.2604
    1PA    H14S 6550   2.790   2.105   4.913 -1.8801  0.2218  1.5840
    1PA    C113 6551   2.920   2.272   4.894  0.6712  0.3018 -0.0764
    1PA    H13R 6552   2.844   2.348   4.912  0.7852 -0.3862  4.7521
    1PA    H13S 6553   3.005   2.305   4.955 -0.0171 -0.1431  1.1770
    1PA    C112 6554   2.960   2.245   4.745  0.6283 -0.0453  0.0871
    1PA    H12R 6555   3.039   2.169   4.747  0.0396 -0.6539  1.1856
    1PA    H12S 6556   2.873   2.202   4.696  0.9729 -0.8579  0.1734
    1PA    C111 6557   3.000   2.361   4.664  0.3060  0.8728 -0.5237
    1PA    H11R 6558   2.916   2.428   4.647 -0.0909 -0.0395 -2.4438
    1PA    H11S 6559   3.076   2.423   4.711 -1.8848  3.5689 -0.3443
    1PA    C110 6560   3.051   2.316   4.527 -0.6368  0.1468  0.2038
    1PA    H10R 6561   3.144   2.260   4.540  0.3470  1.9401  1.3022
    1PA    H10S 6562   2.976   2.259   4.471  0.7586 -0.2617 -1.3413
    1PA     C19 6563   3.086   2.439   4.439 -0.2958 -0.8242 -0.0262
    1PA     H9R 6564   2.999   2.503   4.425 -1.9213 -2.0690  3.4016
    1PA     H9S 6565   3.160   2.504   4.488  0.2815 -0.3285 -1.4733
    1PA     C18 6566   3.156   2.407   4.300  0.1175  0.1554 -0.8428
    1PA     H8R 6567   3.192   2.495   4.247 -0.0515  0.1473 -0.9692
    1PA     H8S 6568   3.241   2.348   4.335 -1.3212 -0.3584  2.1255
    1PA     C17 6569   3.062   2.326   4.202 -0.0895  0.2175 -0.2443
    1PA     H7R 6570   3.023   2.238   4.255 -2.7731  1.0043 -0.7958
    1PA     H7S 6571   2.970   2.379   4.177 -2.2124 -3.6094 -1.3884
    1PA     C16 6572   3.140   2.278   4.079 -0.1200 -0.2161 -0.5000
    1PA     H6R 6573   3.141   2.354   4.001  0.7445  0.2003 -0.0988
    1PA     H6S 6574   3.244   2.259   4.108 -0.2430 -0.9151 -0.5019
    1PA     C15 6575   3.084   2.151   4.015  0.1897  0.1131 -0.5933
    1PA     H5R 6576   3.143   2.116   3.930  0.2417 -1.4880  0.0695
    1PA     H5S 6577   3.084   2.077   4.095 -1.3632  1.0034  0.2757
    1PA     C14 6578   2.938   2.162   3.971  0.2341 -0.3954 -0.2861
    1PA     H4R 6579   2.886   2.207   4.056  0.0966  2.5778 -1.7781
    1PA     H4S 6580   2.928   2.243   3.898  2.0650  0.7271  0.6288
    1PA     C13 6581   2.860   2.036   3.921  0.3610 -0.5398  0.4094
    1PA     H3R 6582   2.853   1.958   3.997 -0.4194 -3.1286 -2.1476
    1PA     H3S 6583   2.755   2.061   3.907  0.3308 -1.0022 -0.2017
    1PA     C12 6584   2.915   1.965   3.800  0.4939 -0.5632  0.4497
    1PA     H2R 6585   3.015   1.924   3.810  0.5672 -0.6952 -0.6770
    1PA     H2S 6586   2.851   1.881   3.772 -0.6235  0.1555  0.7668
    1PC     C11 6587   2.909   2.072   3.684 -0.1504 -0.8291  0.2587
    1PC     O12 6588   2.806   2.118   3.632 -0.0702  0.0701  0.0416
    1PC     O11 6589   3.034   2.111   3.644  0.0691 -0.2894  0.1560
    1PC      C1 6590   3.052   2.210   3.533  0.1218 -0.6415  0.2689
    1PC      HR 6591   3.124   2.168   3.462 -2.5463  0.0757 -3.1261
    1PC      HS 6592   2.969   2.211   3.462 -0.0379 -2.9824  0.3484
    1PC      C2 6593   3.097   2.356   3.582  0.2470 -0.1429 -0.1855
    1PC      HX 6594   3.074   2.429   3.504 -0.3212 -0.6891 -0.5411
    1PC      C3 6595   3.241   2.355   3.629  0.5666 -0.2676 -0.5701
    1PC      HA 6596   3.231   2.375   3.736 -0.5373 -1.4514 -0.4252
    1PC      HB 6597   3.280   2.255   3.607  1.5387  0.0577 -0.3766
    1PC     O31 6598   3.327   2.453   3.570  0.3250  0.0938 -0.6265
    1PC     P31 6599   3.388   2.429   3.423  0.0638  0.0417  0.2308
    1PC     O32 6600   3.519   2.345   3.456  0.4867  0.2245 -0.4167
    1PC     C31 6601   3.514   2.206   3.421 -0.0401  0.4960 -0.2507
    1PC     H1A 6602   3.587   2.147   3.476 -0.4764  1.7579  1.7902
    1PC     H1B 6603   3.419   2.161   3.452 -0.5179  0.6191 -1.4764
    1PC     C32 6604   3.538   2.194   3.273 -0.5703  0.1517  0.0503
    1PC     H2A 6605   3.519   2.094   3.234  0.8805 -0.0775 -0.1372
    1PC     H2B 6606   3.473   2.264   3.221 -0.4232  0.3118  0.0812
    1PC     N31 6607   3.670   2.233   3.214 -0.2816  0.1544 -0.1281
    1PC     C33 6608   3.669   2.241   3.070  0.5030  0.1608 -0.4556
    1PC     H3A 6609   3.628   2.341   3.053 -1.3092 -0.5192 -0.3488
    1PC     H3B 6610   3.771   2.245   3.033  0.6295 -0.3526 -0.1711
    1PC     H3C 6611   3.603   2.163   3.032 -0.2127  1.2374 -1.5252
    1PC     C34 6612   3.727   2.365   3.262 -0.1564  0.8626 -0.0348
    1PC     H4A 6613   3.659   2.450   3.249 -0.6747  0.2052 -2.1045
    1PC     H4B 6614   3.742   2.351   3.369  0.3528  0.6474 -0.1348
    1PC     H4C 6615   3.830   2.382   3.229 -0.0487  3.7719  1.4275
    1PC     C35 6616   3.765   2.123   3.237 -0.0953 -0.4462 -0.2167
    1PC     H5A 6617   3.780   2.130   3.345 -0.7696  1.8264 -0.2198
    1PC     H5B 6618   3.860   2.156   3.194  0.0245 -1.2347 -0.5897
    1PC     H5C 6619   3.741   2.022   3.204 -1.0496  0.2151 -1.6285
    1PC     O33 6620   3.296   2.349   3.353  0.5732 -0.0714 -0.0977
    1PC     O34 6621   3.421   2.555   3.362  0.0209  0.1745  0.1826
    1PC     O21 6622   3.006   2.397   3.695 -0.6629 -0.5439  0.6568
    1PC     C21 6623   2.884   2.433   3.654  0.1985 -0.8914 -1.0447
    1PC     O22 6624   2.844   2.414   3.542  0.2860 -0.3921  0.2886
    1OL     C12 6625   2.818   2.505   3.774  0.2287  0.5011  0.1990
    1OL     H2R 6626   2.865   2.603   3.779 -1.7884  1.4922  0.9990
    1OL     H2S 6627   2.835   2.461   3.872 -1.2996  0.0430  0.2911
    1OL     C13 6628   2.668   2.521   3.764  0.1998  0.5083  0.0774
    1OL     H3R 6629   2.636   2.530   3.660  1.6492 -2.3145 -0.6959
    1OL     H3S 6630   2.627   2.609   3.814 -0.0721  0.9685 -0.9306
    1OL     C14 6631   2.585   2.395   3.823 -0.0377 -0.3085 -0.2663
    1OL     H4R 6632   2.584   2.314   3.750  0.2380 -0.5027 -0.0563
    1OL     H4S 6633   2.478   2.420   3.829 -0.5931 -1.4881 -3.3810
    1OL     C15 6634   2.620   2.336   3.956 -0.0301  0.1803  0.2218
    1OL     H5R 6635   2.636   2.410   4.035 -1.1577 -1.3225  1.9262
    1OL     H5S 6636   2.718   2.286   3.953 -1.0529 -1.8871 -1.3392
    1OL     C16 6637   2.515   2.238   4.006  0.8571  0.3741 -0.6955
    1OL     H6R 6638   2.549   2.187   4.097 -0.8463 -1.3367 -0.9486
    1OL     H6S 6639   2.480   2.167   3.930  0.6773 -1.1287  0.7229
    1OL     C17 6640   2.390   2.301   4.068 -0.1153  0.4601  0.4527
    1OL     H7R 6641   2.342   2.361   3.990  1.5123 -0.0619 -1.0083
    1OL     H7S 6642   2.407   2.374   4.147  1.3615  0.3986  0.2051
    1OL     C18 6643   2.288   2.199   4.113 -0.2848  0.2671 -0.3209
    1OL     H8R 6644   2.323   2.131   4.191  0.5978  0.5020 -0.5026
    1OL     H8S 6645   2.270   2.129   4.032  0.7416 -1.1372  0.6109
    1OL     C19 6646   2.158   2.254   4.170 -0.2049  0.0001 -0.1413
    1OL     H9R 6647   2.083   2.251   4.091  0.8593  0.7308 -1.2134
    1OL    C110 6648   2.136   2.297   4.287  0.2141  0.0405 -0.8328
    1OL    H10R 6649   2.036   2.330   4.314 -0.4443 -1.7972 -0.8710
    1OL    C111 6650   2.228   2.307   4.404 -0.1927 -0.5313  0.4735
    1OL    H11R 6651   2.281   2.402   4.399  0.6526 -0.9449  1.2329
    1OL    H11S 6652   2.310   2.235   4.395  1.7675  1.7044 -0.7340
    1OL    C112 6653   2.159   2.298   4.536 -1.0125 -0.1869  0.8075
    1OL    H12R 6654   2.109   2.394   4.553 -0.9060  0.1919 -0.8703
    1OL    H12S 6655   2.244   2.292   4.605 -1.4005 -0.1822  1.2900
    1OL    C113 6656   2.068   2.178   4.558 -0.3270  0.0527  0.3376
    1OL    H13R 6657   2.118   2.083   4.540 -1.0951 -0.1904 -0.6209
    1OL    H13S 6658   2.005   2.192   4.469  0.5141 -1.5147 -0.5524
    1OL    C114 6659   1.982   2.199   4.679  0.1972 -0.1646 -0.2401
    1OL    H14R 6660   1.944   2.302   4.673  0.2507 -0.0661  0.8657
    1OL    H14S 6661   2.034   2.199   4.775  0.5944 -1.4414 -0.4436
    1OL    C115 6662   1.858   2.120   4.681  0.3563  0.0759  0.0376
    1OL    H15R 6663   1.820   2.121   4.579  1.2926  0.3604 -0.3234
    1OL    H15S 6664   1.789   2.170   4.749  1.8448  0.1684  1.5535
    1OL    C116 6665   1.889   1.973   4.719  0.2194 -0.1654  0.5782
    1OL    H16R 6666   1.969   1.941   4.652  0.9047  0.6055  1.0153
    1OL    H16S 6667   1.799   1.913   4.701  1.9071 -2.5798 -0.3842
    1OL    C117 6668   1.950   1.953   4.859  0.0707  0.6941  0.5456
    1OL    H17R 6669   2.054   1.984   4.867  0.1019  0.7400 -0.0483
    1OL    H17S 6670   1.948   1.845   4.877 -1.6359  1.0885  3.5075
    1OL    C118 6671   1.876   2.026   4.973 -0.2749 -0.6168 -0.3441
    1OL    H18R 6672   1.772   1.991   4.976 -0.4045 -0.2342  2.8486
    1OL    H18S 6673   1.875   2.135   4.963 -0.9205 -0.4238  1.5265
    1OL    H18T 6674   1.926   2.002   5.066  1.8671  0.9376 -1.0093
    1PA    C116 6675   2.611   2.138   4.699  0.4803  0.2639  0.0448
    1PA    H16R 6676   2.559   2.042   4.698 -1.0090  1.0470 -0.4151
    1PA    H16S 6677   2.632   2.149   4.805  0.1762 -3.7902  0.6669
    1PA    H16T 6678   2.702   2.127   4.638  1.8917  2.7608  1.5016
    1PA    C115 6679   2.515   2.244   4.644 -0.0267 -0.2501 -0.2724
    1PA    H15R 6680   2.446   2.203   4.570 -1.0930  1.9084 -0.5751
    1PA    H15S 6681   2.450   2.277   4.726  1.4451 -1.0404  1.2763
    1PA    C114 6682   2.576   2.370   4.577  0.4898  0.2292  0.5197
    1PA    H14R 6683   2.497   2.423   4.525 -0.5543 -2.4726 -0.8251
    1PA    H14S 6684   2.612   2.429   4.662  0.1974  1.6062 -0.2867
    1PA    C113 6685   2.678   2.340   4.466 -0.7504  0.5637 -0.2346
    1PA    H13R 6686   2.762   2.283   4.507  0.0532  0.7080 -1.6243
    1PA    H13S 6687   2.624   2.278   4.394 -0.9883 -0.0297  0.4432
    1PA    C112 6688   2.728   2.467   4.398  0.1984 -0.3623  0.7230
    1PA    H12R 6689   2.788   2.533   4.460 -0.2987  0.6090  0.1915
    1PA    H12S 6690   2.798   2.435   4.320 -1.7816 -1.8511 -0.5374
    1PA    C111 6691   2.628   2.548   4.318 -0.0606  0.0212 -0.3869
    1PA    H11R 6692   2.569   2.496   4.242  0.1446  2.9267 -2.7670
    1PA    H11S 6693   2.549   2.583   4.385  1.0057  1.9524 -0.0727
    1PA    C110 6694   2.705   2.657   4.247 -0.2909 -0.0458  0.5861
    1PA    H10R 6695   2.731   2.729   4.326 -0.0097 -0.8223  1.2130
    1PA    H10S 6696   2.803   2.634   4.207 -0.3367 -1.3509  1.1680
    1PA     C19 6697   2.615   2.740   4.147  0.3988  0.0323  0.7273
    1PA     H9R 6698   2.614   2.687   4.051 -2.2559 -0.9498  1.2123
    1PA     H9S 6699   2.519   2.758   4.195  0.2092  4.2667 -0.8112
    1PA     C18 6700   2.679   2.879   4.130 -0.5250  0.3844 -0.6659
    1PA     H8R 6701   2.688   2.912   4.233  1.4647 -0.7494 -0.4221
    1PA     H8S 6702   2.778   2.879   4.084 -1.2944 -0.8375 -2.4534
    1PA     C17 6703   2.586   2.965   4.041  0.0583  0.3406  0.9938
    1PA     H7R 6704   2.553   2.909   3.953 -0.0220  0.1525  1.1416
    1PA     H7S 6705   2.488   2.974   4.089 -0.9713 -1.3641 -0.6298
    1PA     C16 6706   2.640   3.108   4.008  0.4315 -0.4896 -0.2564
    1PA     H6R 6707   2.562   3.162   3.953  1.9240  1.2480 -0.7502
    1PA     H6S 6708   2.665   3.158   4.102 -1.2456  0.8600 -0.4770
    1PA     C15 6709   2.778   3.109   3.927 -0.4278 -0.5728 -0.4112
    1PA     H5R 6710   2.826   3.207   3.936  0.5501 -0.9675 -1.2232
    1PA     H5S 6711   2.852   3.044   3.972  2.0625  2.5277  0.3508
    1PA     C14 6712   2.757   3.063   3.781  0.1635  0.1186  0.1716
    1PA     H4R 6713   2.717   2.961   3.782 -3.2296  1.3172 -0.2877
    1PA     H4S 6714   2.686   3.123   3.724  1.9468  1.3627 -0.8191
    1PA     C13 6715   2.880   3.071   3.700 -0.1440 -0.1613  0.6943
    1PA     H3R 6716   2.896   3.175   3.670 -0.7285 -0.5386 -1.0969
    1PA     H3S 6717   2.965   3.043   3.762 -0.7424 -1.9218  0.7818
    1PA     C12 6718   2.886   2.994   3.566  0.8771  0.2373  0.1410
    1PA     H2R 6719   2.972   3.028   3.508  2.0113  0.0548  1.6687
    1PA     H2S 6720   2.892   2.887   3.586  1.6086  0.5611  1.8220
    1PC     C11 6721   2.768   3.025   3.476 -0.3019  0.0919  0.1274
    1PC     O12 6722   2.708   3.133   3.488  0.3432 -0.3537  0.0653
    1PC     O11 6723   2.751   2.932   3.378 -0.2709 -0.3324 -0.5663
    1PC      C1 6724   2.639   2.961   3.288 -0.4566  0.0260 -0.7240
    1PC      HR 6725   2.628   3.069   3.282 -2.4417 -0.0609  0.5009
    1PC      HS 6726   2.660   2.919   3.189  0.2943  5.3922 -3.2199
    1PC      C2 6727   2.516   2.890   3.338  0.0180  0.0071  0.4044
    1PC      HX 6728   2.549   2.789   3.364  1.3091  0.4032  0.3721
    1PC      C3 6729   2.414   2.881   3.212  0.1368 -0.3524  0.3478
    1PC      HA 6730   2.439   2.794   3.150 -2.6536 -1.7237  0.9528
    1PC      HB 6731   2.312   2.863   3.249 -0.1649  1.1707  0.2930
    1PC     O31 6732   2.421   3.008   3.137  0.0749  0.2343 -0.2999
    1PC     P31 6733   2.298   3.087   3.066  0.1361  0.0430 -0.0672
    1PC     O32 6734   2.246   3.178   3.188 -0.1415 -0.0495 -0.0240
    1PC     C31 6735   2.156   3.125   3.300 -1.0343 -0.0832  0.1071
    1PC     H1A 6736   2.214   3.041   3.341  0.3777 -0.2928 -2.1419
    1PC     H1B 6737   2.159   3.198   3.381  0.3189 -0.8172  0.7440
    1PC     C32 6738   2.013   3.083   3.261 -0.2094  0.4563 -0.3108
    1PC     H2A 6739   2.015   3.035   3.163  2.5922 -1.7687  0.7240
    1PC     H2B 6740   1.985   3.005   3.331  1.7648 -0.7734 -0.8023
    1PC     N31 6741   1.915   3.196   3.255  0.9500  0.2240  0.4518
    1PC     C33 6742   1.779   3.144   3.205  0.3369 -0.0820  0.0231
    1PC     H3A 6743   1.731   3.084   3.283 -0.2924 -1.0037 -1.0421
    1PC     H3B 6744   1.710   3.225   3.181 -0.6941 -0.1956  2.2864
    1PC     H3C 6745   1.801   3.077   3.121 -1.4133 -0.7326  0.0318
    1PC     C34 6746   1.888   3.255   3.389 -0.0208  0.1588  0.3868
    1PC     H4A 6747   1.893   3.171   3.459  0.7089  0.1631  0.3461
    1PC     H4B 6748   1.966   3.329   3.401  0.3038 -0.0492 -0.3441
    1PC     H4C 6749   1.796   3.313   3.399  0.7199  0.9289  3.5796
    1PC     C35 6750   1.948   3.292   3.146 -0.7871  0.2467 -0.3621
    1PC     H5A 6751   1.891   3.385   3.156  0.2901  0.8508  0.5350
    1PC     H5B 6752   1.941   3.246   3.048  0.7100  0.5813 -0.6524
    1PC     H5C 6753   2.053   3.319   3.159 -0.4724  0.2224 -2.5674
    1PC     O33 6754   2.351   3.174   2.959  0.4197  0.1681 -0.2406
    1PC     O34 6755   2.196   2.992   3.035  0.3558 -0.0520 -0.0879
    1PC     O21 6756   2.451   2.959   3.444 -0.1875 -0.0142 -0.0672
    1PC     C21 6757   2.463   2.929   3.572  0.3721 -0.0256  0.1957
    1PC     O22 6758   2.524   2.837   3.616 -0.1470 -0.1487  0.0228
    1OL     C12 6759   2.388   3.032   3.654 -0.4763 -0.4907 -0.4131
    1OL     H2R 6760   2.334   3.107   3.594 -1.8089 -1.3044 -0.2576
    1OL     H2S 6761   2.458   3.098   3.706 -0.5506 -0.4317 -0.3881
    1OL     C13 6762   2.301   2.976   3.765  0.4374  0.0404 -0.8477
    1OL     H3R 6763   2.366   2.931   3.841  1.0445  1.5986 -0.4018
    1OL     H3S 6764   2.257   2.886   3.720  1.7043 -0.1044 -1.8611
    1OL     C14 6765   2.194   3.055   3.842 -0.0840  0.1918  0.6785
    1OL     H4R 6766   2.146   3.117   3.766  0.9833 -1.1856 -1.2133
    1OL     H4S 6767   2.239   3.119   3.919 -0.6319 -0.2374  1.3642
    1OL     C15 6768   2.092   2.971   3.911  0.0054 -0.1717  0.4575
    1OL     H5R 6769   2.131   2.890   3.973  1.1455 -0.3732 -0.4844
    1OL     H5S 6770   2.024   2.937   3.832  1.5076  0.4796 -1.1907
    1OL     C16 6771   2.007   3.067   4.002  0.1777 -0.5647  0.2396
    1OL     H6R 6772   1.956   3.143   3.942 -0.7924 -0.3542  1.3159
    1OL     H6S 6773   2.065   3.120   4.079 -0.1670 -0.7798  0.6483
    1OL     C17 6774   1.897   2.990   4.075  0.0844  0.2559 -0.3757
    1OL     H7R 6775   1.943   2.911   4.134 -0.8170  0.8390  1.1457
    1OL     H7S 6776   1.845   2.935   3.995  1.7590 -0.2728 -1.1502
    1OL     C18 6777   1.796   3.071   4.149 -0.0929 -0.3339  0.1621
    1OL     H8R 6778   1.758   3.142   4.075  1.2573  1.3754  1.0154
    1OL     H8S 6779   1.839   3.127   4.232  0.3079  2.2200 -1.6347
    1OL     C19 6780   1.680   2.991   4.200  0.2396 -0.1602  0.1223
    1OL     H9R 6781   1.703   2.886   4.215 -1.8971 -1.3250 -3.5155
    1OL    C110 6782   1.559   3.033   4.227 -0.2003 -0.5200 -0.0403
    1OL    H10R 6783   1.487   2.954   4.250 -0.5995  0.3454  1.7761
    1OL    C111 6784   1.509   3.171   4.230 -0.2797 -0.5474 -0.3518
    1OL    H11R 6785   1.430   3.191   4.157 -0.2663 -1.9513 -0.7920
    1OL    H11S 6786   1.590   3.243   4.218 -0.7753  0.5576  2.1843
    1OL    C112 6787   1.452   3.193   4.371  0.6252 -0.5838 -0.2613
    1OL    H12R 6788   1.537   3.177   4.438  1.1082 -2.9957 -1.3362
    1OL    H12S 6789   1.379   3.116   4.396  2.1475 -2.5324 -1.4465
    1OL    C113 6790   1.386   3.335   4.390  0.2562 -0.3338 -0.3081
    1OL    H13R 6791   1.304   3.328   4.318 -1.3721 -0.5684  1.4850
    1OL    H13S 6792   1.449   3.419   4.359 -0.4665  0.1569 -0.4862
    1OL    C114 6793   1.328   3.364   4.530 -0.5998  0.6144 -0.3510
    1OL    H14R 6794   1.406   3.384   4.604 -1.9411  0.8566  1.0160
    1OL    H14S 6795   1.274   3.278   4.569  0.3847  0.3149  0.4136
    1OL    C115 6796   1.219   3.475   4.519  0.2773 -0.1152 -0.8505
    1OL    H15R 6797   1.134   3.434   4.464  0.2774  0.3742 -1.2252
    1OL    H15S 6798   1.270   3.555   4.465 -0.5798  0.7881 -0.3488
    1OL    C116 6799   1.166   3.530   4.658 -0.5600  0.2367  0.4759
    1OL    H16R 6800   1.115   3.450   4.711  2.3099 -1.8351  0.3207
    1OL    H16S 6801   1.093   3.603   4.621 -0.6540 -1.0218 -2.0436
    1OL    C117 6802   1.277   3.613   4.738 -0.5086  0.7415  0.5491
    1OL    H17R 6803   1.300   3.698   4.674 -2.6836  0.8900 -0.1427
    1OL    H17S 6804   1.363   3.546   4.748 -0.3764  1.1945  3.5622
    1OL    C118 6805   1.214   3.660   4.867  0.1368  0.4300 -0.2278
    1OL    H18R 6806   1.154   3.576   4.904 -2.4168  2.1600 -0.1908
    1OL    H18S 6807   1.141   3.739   4.851 -0.2378  0.7285  2.4721
    1OL    H18T 6808   1.291   3.697   4.935 -0.1182 -0.3031  0.4874
    1PA    C116 6809   1.843   1.358   5.273  0.4936 -0.4684 -0.3515
    1PA    H16R 6810   1.745   1.401   5.248  0.3226 -0.5940  0.0897
    1PA    H16S 6811   1.873   1.405   5.367  0.6949  1.2803 -1.2448
    1PA    H16T 6812   1.847   1.251   5.290  0.6846 -0.3099  0.6580
    1PA    C115 6813   1.946   1.397   5.168  0.7819 -0.6688 -0.3213
    1PA    H15R 6814   1.931   1.501   5.137  2.7765 -0.9553 -2.5916
    1PA    H15S 6815   2.051   1.391   5.200  1.2372  1.4347 -1.2151
    1PA    C114 6816   1.931   1.317   5.035  0.7373 -0.1594  0.8739
    1PA    H14R 6817   1.824   1.300   5.022  0.4781  1.3866  0.7137
    1PA    H14S 6818   1.962   1.379   4.950 -2.0111  0.1620  0.0014
    1PA    C113 6819   2.014   1.182   5.037  0.2957 -0.9445 -0.5230
    1PA    H13R 6820   2.121   1.203   5.045  0.3257 -1.0986 -0.5221
    1PA    H13S 6821   1.990   1.127   5.128 -0.4607 -1.8155 -1.2277
    1PA    C112 6822   1.979   1.077   4.923 -0.3303  0.6957 -0.0990
    1PA    H12R 6823   2.043   0.990   4.940  0.3253  0.8683 -1.5591
    1PA    H12S 6824   1.874   1.051   4.937  0.2249 -1.6076  0.3385
    1PA    C111 6825   2.000   1.131   4.777 -0.3465  0.5414 -0.2047
    1PA    H11R 6826   1.933   1.217   4.780  1.0584  1.6465  0.5676
    1PA    H11S 6827   2.101   1.171   4.766 -1.4317  3.5557 -0.0245
    1PA    C110 6828   1.968   1.041   4.661  0.3273  0.8993  0.0458
    1PA    H10R 6829   1.865   1.007   4.675  0.8492 -0.5306  0.5669
    1PA    H10S 6830   1.963   1.103   4.571  2.1832  1.7912  0.5095
    1PA     C19 6831   2.063   0.928   4.653  0.3885  0.2454  0.1056
    1PA     H9R 6832   2.166   0.964   4.657 -0.0026  1.3601  0.6165
    1PA     H9S 6833   2.033   0.866   4.737 -1.8874  3.0863  1.5501
    1PA     C18 6834   2.049   0.852   4.515 -0.3089 -0.7887 -0.5913
    1PA     H8R 6835   2.120   0.770   4.521  1.6303  0.8720  0.3660
    1PA     H8S 6836   1.946   0.815   4.508 -1.0228  1.1385 -1.1203
    1PA     C17 6837   2.082   0.940   4.387  0.0874  0.8999  0.3894
    1PA     H7R 6838   2.037   1.039   4.393 -1.3567  0.2144  2.1098
    1PA     H7S 6839   2.190   0.937   4.371  0.1598 -1.9202  0.7730
    1PA     C16 6840   2.029   0.858   4.264 -0.1767  0.0737 -0.2845
    1PA     H6R 6841   2.081   0.762   4.261  0.0591  0.2131 -1.0740
    1PA     H6S 6842   1.922   0.850   4.287  0.3322 -0.5052  2.1353
    1PA     C15 6843   2.058   0.940   4.132 -0.0929 -0.1851  0.2817
    1PA     H5R 6844   1.997   1.031   4.127  0.6589  0.2819 -0.7038
    1PA     H5S 6845   2.163   0.967   4.128  0.0555 -0.7207  0.4834
    1PA     C14 6846   2.036   0.849   4.013  0.0214  0.1657 -0.4602
    1PA     H4R 6847   1.949   0.788   4.038 -0.1978  0.0767 -1.3787
    1PA     H4S 6848   2.000   0.915   3.934 -0.8031  0.9389  0.5482
    1PA     C13 6849   2.153   0.757   3.975  0.7558 -0.2251 -0.5071
    1PA     H3R 6850   2.235   0.820   3.937  0.0993 -0.3207 -2.1862
    1PA     H3S 6851   2.188   0.706   4.065 -0.8928  0.0646  0.3204
    1PA     C12 6852   2.128   0.645   3.866 -0.3708 -0.2083  0.6193
    1PA     H2R 6853   2.225   0.601   3.841  0.1303  1.1297  0.1402
    1PA     H2S 6854   2.079   0.567   3.925  1.6426 -0.9967  1.3500
    1PC     C11 6855   2.050   0.689   3.746 -0.4409 -0.5463 -0.2675
    1PC     O12 6856   1.951   0.761   3.754 -0.3088  0.6028 -0.4317
    1PC     O11 6857   2.092   0.629   3.636 -0.1290  0.1054  0.3417
    1PC      C1 6858   2.017   0.653   3.520  0.5946 -1.4159 -0.0490
    1PC      HR 6859   2.027   0.574   3.445  0.0444 -0.5849 -1.0273
    1PC      HS 6860   1.911   0.650   3.548  1.2308  0.3227  3.0833
    1PC      C2 6861   2.050   0.791   3.454  0.3131 -0.0981  1.0160
    1PC      HX 6862   1.978   0.792   3.373  0.1098 -1.2233  1.1688
    1PC      C3 6863   2.201   0.781   3.392  0.5329 -0.3758 -0.0248
    1PC      HA 6864   2.272   0.791   3.475  0.2729 -1.7992  0.3930
    1PC      HB 6865   2.216   0.681   3.351 -1.0030  0.3646 -2.6318
    1PC     O31 6866   2.214   0.882   3.292  0.3132  0.2246  0.2838
    1PC     P31 6867   2.184   0.858   3.135  0.2312  0.4949  0.0218
    1PC     O32 6868   2.326   0.860   3.071 -0.6024 -0.1775  0.4023
    1PC     C31 6869   2.384   0.995   3.042  0.1614 -0.1205  0.1026
    1PC     H1A 6870   2.341   1.075   3.103 -1.3297  0.4411 -1.6006
    1PC     H1B 6871   2.490   0.979   3.065  0.6487  2.0052 -0.4983
    1PC     C32 6872   2.372   1.025   2.888  0.2695 -0.2757 -0.2827
    1PC     H2A 6873   2.420   0.942   2.837 -1.4345 -2.1024  0.9063
    1PC     H2B 6874   2.270   1.015   2.851 -0.1936 -0.8776  1.0937
    1PC     N31 6875   2.430   1.159   2.842  0.5382 -0.2671 -0.4907
    1PC     C33 6876   2.427   1.144   2.693  0.0271  0.6700 -0.2103
    1PC     H3A 6877   2.467   1.045   2.671  1.5490  1.7201 -2.6599
    1PC     H3B 6878   2.321   1.160   2.670  0.0710  2.6373  0.7614
    1PC     H3C 6879   2.488   1.217   2.640 -0.1201  0.9851  0.0507
    1PC     C34 6880   2.349   1.281   2.882  0.4368  0.4875  0.1641
    1PC     H4A 6881   2.414   1.367   2.898  0.6160  0.5887 -1.0125
    1PC     H4B 6882   2.275   1.300   2.804  1.9571 -0.6249 -1.6550
    1PC     H4C 6883   2.285   1.260   2.968 -1.5818  0.1969 -1.3392
    1PC     C35 6884   2.573   1.176   2.887 -0.1230  0.8338 -0.1826
    1PC     H5A 6885   2.612   1.076   2.904 -3.0270  0.2070  4.5764
    1PC     H5B 6886   2.581   1.224   2.985 -0.9878 -2.9994  1.9867
    1PC     H5C 6887   2.623   1.226   2.804  0.3465  0.5960 -0.0467
    1PC     O33 6888   2.133   0.718   3.120  0.0996  0.6998  0.3893
    1PC     O34 6889   2.104   0.967   3.080  0.1245 -0.1964 -0.5841
    1PC     O21 6890   2.036   0.910   3.536  0.0707  0.4100 -0.6378
    1PC     C21 6891   1.919   0.975   3.543  1.0038 -0.3923  0.4829
    1PC     O22 6892   1.820   0.940   3.479 -0.1347 -0.4113  0.3195
    1OL     C12 6893   1.932   1.108   3.624  0.4431  0.6071  0.3269
    1OL     H2R 6894   1.934   1.188   3.551  1.3666  0.9217  0.6770
    1OL     H2S 6895   2.033   1.112   3.665 -0.0312  1.2526  1.4643
    1OL     C13 6896   1.817   1.124   3.724  0.0935  0.3171 -0.3781
    1OL     H3R 6897   1.829   1.058   3.810  0.6285  0.2953 -0.4614
    1OL     H3S 6898   1.724   1.099   3.674  0.6194 -0.4054 -1.0258
    1OL     C14 6899   1.798   1.262   3.769 -0.0299  0.3476  0.5691
    1OL     H4R 6900   1.713   1.271   3.836  0.2007 -1.2615  1.1222
    1OL     H4S 6901   1.763   1.314   3.680 -0.3690  0.3627  0.7103
    1OL     C15 6902   1.928   1.342   3.821  0.2491  0.2804  0.2830
    1OL     H5R 6903   1.908   1.449   3.814  1.3789  0.4160 -1.4360
    1OL     H5S 6904   2.015   1.350   3.755 -0.1696 -0.2093 -0.3416
    1OL     C16 6905   1.970   1.302   3.963 -0.3049  0.3412  0.0848
    1OL     H6R 6906   1.982   1.194   3.970 -1.5413  0.2317  1.0811
    1OL     H6S 6907   1.883   1.320   4.028 -1.3117  0.0395 -1.1408
    1OL     C17 6908   2.099   1.367   4.021 -0.2978 -0.1869  0.1304
    1OL     H7R 6909   2.079   1.475   4.025 -2.3055 -0.3656 -2.5036
    1OL     H7S 6910   2.184   1.346   3.956 -1.4728 -0.5067 -1.3493
    1OL     C18 6911   2.138   1.307   4.158  0.8590  0.5589 -0.1108
    1OL     H8R 6912   2.155   1.200   4.138  0.2611  0.5083 -0.3791
    1OL     H8S 6913   2.054   1.307   4.228  1.4576 -1.1022  0.6816
    1OL     C19 6914   2.259   1.379   4.216  0.2586  0.7709 -0.4736
    1OL     H9R 6915   2.250   1.486   4.198 -1.4301  0.6790 -0.3956
    1OL    C110 6916   2.360   1.320   4.279  0.3720  0.4376  0.6512
    1OL    H10R 6917   2.450   1.377   4.301  0.3605 -0.1671  2.4199
    1OL    C111 6918   2.365   1.169   4.309 -0.1329 -0.5494  0.4683
    1OL    H11R 6919   2.456   1.127   4.266 -0.4952  1.2624 -2.3695
    1OL    H11S 6920   2.278   1.121   4.265  0.1565  1.5442 -2.7041
    1OL    C112 6921   2.368   1.143   4.458 -0.4691  0.3261 -0.0576
    1OL    H12R 6922   2.367   1.035   4.473 -0.8256  0.5395  1.6985
    1OL    H12S 6923   2.272   1.183   4.491  0.1819  1.0504  1.0171
    1OL    C113 6924   2.488   1.211   4.528  0.2575 -0.2950  0.2859
    1OL    H13R 6925   2.468   1.318   4.534  0.4889 -0.1868 -0.8164
    1OL    H13S 6926   2.570   1.202   4.457  0.5755  1.0293  0.4549
    1OL    C114 6927   2.525   1.148   4.661 -0.1590 -0.4824  0.1798
    1OL    H14R 6928   2.515   1.039   4.662 -1.6850 -0.4322 -2.2308
    1OL    H14S 6929   2.443   1.181   4.726  0.2437  3.2298 -0.9777
    1OL    C115 6930   2.664   1.195   4.714  0.1836  0.3095 -0.7676
    1OL    H15R 6931   2.748   1.176   4.647  0.2164 -3.1021  0.0577
    1OL    H15S 6932   2.695   1.127   4.794 -0.1653  0.2293 -0.7021
    1OL    C116 6933   2.666   1.339   4.761  0.0146 -0.6414  0.0186
    1OL    H16R 6934   2.635   1.406   4.681 -1.6786 -1.2362  0.1393
    1OL    H16S 6935   2.764   1.381   4.784 -1.2416  1.2240  2.3802
    1OL    C117 6936   2.581   1.371   4.880  0.3096  0.2350 -0.7804
    1OL    H17R 6937   2.486   1.317   4.884  0.9395 -0.9746 -1.5359
    1OL    H17S 6938   2.568   1.479   4.883  1.6992  0.4003 -0.4213
    1OL    C118 6939   2.654   1.357   5.015  0.4889  0.6125  0.4412
    1OL    H18R 6940   2.730   1.435   5.022  1.6165 -0.2593 -1.3276
    1OL    H18S 6941   2.697   1.257   5.017 -2.2326 -0.6568  0.0146
    1OL    H18T 6942   2.584   1.357   5.098  1.9101 -0.3555  1.6974
    1PA    C116 6943   2.291   2.641   4.873 -0.3264 -0.1640 -1.5733
    1PA    H16R 6944   2.281   2.541   4.915  1.9459 -0.2632 -1.0918
    1PA    H16S 6945   2.329   2.704   4.953 -2.6311 -1.9574  1.1135
    1PA    H16T 6946   2.364   2.623   4.793  2.2529 -2.2098  1.0404
    1PA    C115 6947   2.162   2.700   4.826  0.3668  0.0537 -0.2521
    1PA    H15R 6948   2.079   2.695   4.898  1.4394 -0.0878  1.0057
    1PA    H15S 6949   2.165   2.806   4.798 -2.1753  0.3413  0.3028
    1PA    C114 6950   2.124   2.615   4.701  0.3146 -0.7724 -0.1881
    1PA    H14R 6951   2.207   2.611   4.631 -0.7570 -1.6729 -1.4439
    1PA    H14S 6952   2.118   2.510   4.731 -2.4773 -0.1901  1.7143
    1PA    C113 6953   1.986   2.644   4.640  0.2440 -0.5531 -0.4718
    1PA    H13R 6954   1.961   2.572   4.562 -0.8078  0.8642 -1.4762
    1PA    H13S 6955   1.916   2.645   4.724 -1.1162  0.3699 -1.5683
    1PA    C112 6956   1.974   2.779   4.576  0.3129 -0.2129  0.2477
    1PA    H12R 6957   1.873   2.774   4.537  0.6206 -0.7676 -0.5016
    1PA    H12S 6958   1.992   2.849   4.658  1.0833  2.2792 -1.9137
    1PA    C111 6959   2.074   2.811   4.465 -0.2882 -0.2233  0.3447
    1PA    H11R 6960   2.050   2.905   4.416 -0.3875 -0.7487 -0.6240
    1PA    H11S 6961   2.174   2.822   4.508 -0.3946  0.3991  0.4422
    1PA    C110 6962   2.080   2.708   4.348 -0.1041 -0.6159  0.0754
    1PA    H10R 6963   2.093   2.604   4.379 -2.2554 -0.5254  1.4549
    1PA    H10S 6964   1.976   2.719   4.318 -0.0930  1.6100  0.6421
    1PA     C19 6965   2.169   2.756   4.234  0.2223  0.0802  0.5110
    1PA     H9R 6966   2.134   2.849   4.188  0.9561 -1.3412 -3.2462
    1PA     H9S 6967   2.272   2.769   4.268  0.1011  1.7693  0.3154
    1PA     C18 6968   2.166   2.660   4.114 -0.7164 -0.4244 -0.0389
    1PA     H8R 6969   2.225   2.707   4.034  1.7974 -2.9581  0.1705
    1PA     H8S 6970   2.214   2.566   4.142  1.9567  0.7604 -0.2453
    1PA     C17 6971   2.028   2.624   4.062  0.5545 -0.5904  0.5957
    1PA     H7R 6972   1.958   2.584   4.135 -1.1027  0.4353 -0.3725
    1PA     H7S 6973   1.982   2.713   4.018  0.9478 -1.0214 -0.7275
    1PA     C16 6974   2.041   2.520   3.949 -0.0293 -0.4708 -0.4059
    1PA     H6R 6975   2.133   2.538   3.892  1.0034  0.5097  1.4929
    1PA     H6S 6976   2.041   2.421   3.995 -4.2634  0.2868  1.6078
    1PA     C15 6977   1.926   2.535   3.842 -1.0112  0.9205 -0.5492
    1PA     H5R 6978   1.892   2.440   3.800 -0.1468 -0.6790  2.1435
    1PA     H5S 6979   1.831   2.574   3.880 -1.3061  0.8056 -1.1526
    1PA     C14 6980   1.977   2.618   3.726 -0.4951 -0.0466  0.7427
    1PA     H4R 6981   2.041   2.705   3.740 -1.3604  0.7073  0.0977
    1PA     H4S 6982   2.044   2.555   3.668 -2.3438 -0.4842 -1.0463
    1PA     C13 6983   1.855   2.661   3.641 -0.6659 -0.7198  0.6017
    1PA     H3R 6984   1.784   2.716   3.702 -0.0586  0.9231 -0.1071
    1PA     H3S 6985   1.880   2.735   3.565 -5.8412  0.3711 -0.4040
    1PA     C12 6986   1.791   2.544   3.562  0.6670  0.2178 -0.1160
    1PA     H2R 6987   1.740   2.489   3.641  0.7631 -0.3011 -0.4107
    1PA     H2S 6988   1.719   2.581   3.489  2.1132 -1.3986 -2.5159
    1PC     C11 6989   1.889   2.465   3.481 -0.8750  0.6064 -0.3615
    1PC     O12 6990   1.966   2.518   3.406  0.1637 -0.2412  0.5770
    1PC     O11 6991   1.873   2.333   3.498 -0.1151  0.5157  0.2370
    1PC      C1 6992   1.946   2.245   3.408  0.1994  0.3995 -0.2493
    1PC      HR 6993   1.957   2.291   3.310 -0.0216  1.6297  0.2815
    1PC      HS 6994   2.045   2.231   3.453 -0.0655  2.1776  0.9916
    1PC      C2 6995   1.883   2.107   3.394  0.4387 -0.1952 -0.1267
    1PC      HX 6996   1.951   2.044   3.338  1.0159 -1.5198  1.9478
    1PC      C3 6997   1.744   2.124   3.319 -0.7868  0.3881  0.5291
    1PC      HA 6998   1.679   2.038   3.337 -1.8097  0.5731 -1.8638
    1PC      HB 6999   1.695   2.220   3.340 -0.4263  0.5070  0.8477
    1PC     O31 7000   1.764   2.121   3.174  0.2816  0.3026 -0.0061
    1PC     P31 7001   1.720   2.235   3.074  0.1352 -0.2685 -0.4461
    1PC     O32 7002   1.823   2.346   3.083 -0.3697 -0.1767 -0.0796
    1PC     C31 7003   1.941   2.346   2.996  0.1601  0.1254  0.1553
    1PC     H1A 7004   2.020   2.290   3.048  0.4259  0.4645  0.1239
    1PC     H1B 7005   1.927   2.286   2.906 -1.2893 -1.0894  1.1338
    1PC     C32 7006   1.980   2.482   2.967 -0.2290 -0.1323  0.3772
    1PC     H2A 7007   1.982   2.550   3.053  2.8953 -1.9964  1.9730
    1PC     H2B 7008   2.086   2.478   2.939 -0.4524  0.0403 -0.5286
    1PC     N31 7009   1.908   2.553   2.857  0.8904 -0.3639  0.0407
    1PC     C33 7010   1.897   2.491   2.725 -0.1876 -0.0085 -0.0306
    1PC     H3A 7011   1.845   2.568   2.668 -0.5580  0.0523  0.3795
    1PC     H3B 7012   1.994   2.469   2.682 -0.3617  0.9175 -0.9255
    1PC     H3C 7013   1.853   2.391   2.735  2.8098 -1.4707 -0.4623
    1PC     C34 7014   1.767   2.584   2.898 -0.4153  0.2087  0.5217
    1PC     H4A 7015   1.716   2.649   2.826  1.1332  1.4559  0.5027
    1PC     H4B 7016   1.714   2.488   2.896 -1.0461  0.5589  0.1272
    1PC     H4C 7017   1.771   2.621   3.000  1.1823 -1.9029  1.3139
    1PC     C35 7018   1.976   2.687   2.844 -0.2343 -0.0907  0.4579
    1PC     H5A 7019   1.921   2.744   2.769  1.6496  0.1424 -0.8115
    1PC     H5B 7020   2.081   2.666   2.823 -0.0324  1.5354 -0.3224
    1PC     H5C 7021   1.963   2.734   2.941 -1.6192 -0.5537  0.5153
    1PC     O33 7022   1.713   2.187   2.934 -0.6578 -0.7719  0.5010
    1PC     O34 7023   1.599   2.301   3.129  0.0623  0.1616 -0.0661
    1PC     O21 7024   1.862   2.039   3.523  0.0435 -0.0695  0.1710
    1PC     C21 7025   1.964   1.984   3.594 -0.1754  0.2596 -0.0693
    1PC     O22 7026   2.080   1.995   3.564 -0.4286  0.4132 -0.0808
    1OL     C12 7027   1.916   1.901   3.713  0.1611 -0.0999 -0.2955
    1OL     H2R 7028   1.967   1.804   3.706 -1.5411 -1.1038  0.4775
    1OL     H2S 7029   1.808   1.887   3.715 -0.2808  2.1829 -2.4939
    1OL     C13 7030   1.963   1.968   3.837  0.0855 -0.4228 -0.4369
    1OL     H3R 7031   1.914   2.066   3.844 -2.3886 -1.6635  1.2819
    1OL     H3S 7032   2.068   1.991   3.822 -0.3741  2.2337 -0.1207
    1OL     C14 7033   1.943   1.886   3.970 -0.7189  0.2895  0.8811
    1OL     H4R 7034   1.999   1.793   3.956 -2.2676 -0.6864  0.9458
    1OL     H4S 7035   1.840   1.855   3.986 -0.6044 -1.1568 -0.8816
    1OL     C15 7036   1.998   1.960   4.098  0.8952  0.3453  0.8040
    1OL     H5R 7037   1.979   2.068   4.095  1.3142  0.4514  1.6222
    1OL     H5S 7038   2.107   1.952   4.093  0.9027  1.0360 -0.7450
    1OL     C16 7039   1.957   1.903   4.236 -0.1883  0.3368 -0.6265
    1OL     H6R 7040   1.856   1.920   4.272  0.4571 -0.7960  2.0547
    1OL     H6S 7041   2.026   1.949   4.308 -0.7009  1.1942 -0.6798
    1OL     C17 7042   1.981   1.751   4.251  0.1264 -0.3255  0.3595
    1OL     H7R 7043   2.085   1.735   4.222  0.7485  1.1955  1.6062
    1OL     H7S 7044   1.919   1.689   4.187 -3.6826 -0.1652  3.5189
    1OL     C18 7045   1.960   1.700   4.394 -0.1088  0.2165  0.1575
    1OL     H8R 7046   1.869   1.746   4.432 -0.8122  1.2963 -2.6238
    1OL     H8S 7047   2.045   1.731   4.456 -1.0366 -0.3041  1.7482
    1OL     C19 7048   1.955   1.548   4.401  0.2360 -0.3699 -0.2569
    1OL     H9R 7049   1.971   1.489   4.311 -1.7602 -1.6237  0.1433
    1OL    C110 7050   1.927   1.486   4.516 -0.3393 -0.8296  0.6056
    1OL    H10R 7051   1.915   1.378   4.518  2.2058 -1.1779 -0.4143
    1OL    C111 7052   1.906   1.561   4.647  0.6386  0.1917 -0.1681
    1OL    H11R 7053   1.959   1.654   4.669  0.6759  0.5732 -1.7646
    1OL    H11S 7054   1.927   1.500   4.735  2.8964  2.1449  0.7529
    1OL    C112 7055   1.758   1.589   4.672  0.1012  0.3415  0.8630
    1OL    H12R 7056   1.701   1.505   4.634 -1.8882  0.7769  2.6882
    1OL    H12S 7057   1.726   1.667   4.602  3.4137 -2.4954 -4.4571
    1OL    C113 7058   1.716   1.618   4.813  0.7494  0.2085  0.1833
    1OL    H13R 7059   1.774   1.695   4.863  1.3054 -1.4927  2.3286
    1OL    H13S 7060   1.731   1.525   4.869  0.4999 -0.0877 -0.2267
    1OL    C114 7061   1.574   1.652   4.816  0.4818 -0.5754 -0.4995
    1OL    H14R 7062   1.508   1.578   4.771 -0.5638  0.5322 -0.8256
    1OL    H14S 7063   1.554   1.747   4.765  0.7462  0.1656  0.7183
    1OL    C115 7064   1.527   1.674   4.964  0.1228  0.3136  0.4289
    1OL    H15R 7065   1.594   1.740   5.019  1.0739 -1.1732  1.1021
    1OL    H15S 7066   1.520   1.575   5.009 -1.5687  1.1099  2.0533
    1OL    C116 7067   1.385   1.744   4.976  0.1889 -0.1492 -0.1525
    1OL    H16R 7068   1.357   1.756   5.081 -1.0874  1.6193 -0.6530
    1OL    H16S 7069   1.306   1.678   4.941  1.7553 -1.6035 -1.1463
    1OL    C117 7070   1.373   1.880   4.904  0.2107 -0.2531 -0.0680
    1OL    H17R 7071   1.380   1.866   4.796 -0.1327  1.6921 -0.3889
    1OL    H17S 7072   1.453   1.950   4.928  0.4723  0.5085 -2.7651
    1OL    C118 7073   1.235   1.943   4.941 -0.0352  0.1177 -0.7181
    1OL    H18R 7074   1.198   2.022   4.877 -1.4762 -1.0115 -1.3421
    1OL    H18S 7075   1.232   1.990   5.040  1.1635  0.8905 -1.0285
    1OL    H18T 7076   1.162   1.862   4.934  2.6288 -2.3252 -3.0670
    1PA    C116 7077   2.566   2.756   4.603 -0.5035  0.1984  0.2224
    1PA    H16R 7078   2.625   2.688   4.541 -1.4035  1.2397 -1.8582
    1PA    H16S 7079   2.464   2.739   4.569 -0.2902 -1.9182  0.4604
    1PA    H16T 7080   2.554   2.732   4.709  0.3690  2.5905  0.9195
    1PA    C115 7081   2.611   2.900   4.573 -0.4131  0.3499  0.4932
    1PA    H15R 7082   2.657   2.942   4.662  0.1295  2.8203 -0.8704
    1PA    H15S 7083   2.679   2.901   4.487  0.1028 -0.2464  0.8838
    1PA    C114 7084   2.495   2.994   4.541  0.2610 -0.3942 -0.5617
    1PA    H14R 7085   2.411   2.974   4.608  0.2790  0.5700 -0.2345
    1PA    H14S 7086   2.527   3.097   4.561 -0.4515 -0.1610 -0.6007
    1PA    C113 7087   2.444   2.975   4.393  0.0661  0.0334  0.0572
    1PA    H13R 7088   2.524   2.996   4.323  0.3002 -0.8024  0.0630
    1PA    H13S 7089   2.411   2.872   4.376  3.2309 -0.8883 -1.0453
    1PA    C112 7090   2.329   3.071   4.363  0.6457  0.4235 -0.5042
    1PA    H12R 7091   2.295   3.059   4.260 -1.8961  1.2684  0.1534
    1PA    H12S 7092   2.246   3.048   4.431  0.7869 -2.3746 -1.1671
    1PA    C111 7093   2.365   3.216   4.371  0.7561  0.0467 -0.0396
    1PA    H11R 7094   2.274   3.272   4.347 -0.9214 -2.5058 -0.0566
    1PA    H11S 7095   2.377   3.235   4.478 -1.4283 -2.6809  0.8357
    1PA    C110 7096   2.483   3.260   4.287 -0.2861  0.4404  0.0595
    1PA    H10R 7097   2.569   3.208   4.329  1.0931  1.7586 -1.0616
    1PA    H10S 7098   2.468   3.220   4.186 -1.0227  0.5224  0.1293
    1PA     C19 7099   2.509   3.411   4.285  0.5069 -0.5954  0.1413
    1PA     H9R 7100   2.422   3.453   4.233  1.1170  0.5557  0.0227
    1PA     H9S 7101   2.515   3.467   4.378  0.3975  2.7584 -1.7226
    1PA     C18 7102   2.630   3.438   4.203  0.0042  0.2936  0.4464
    1PA     H8R 7103   2.722   3.415   4.256 -0.1844 -1.2248  0.1435
    1PA     H8S 7104   2.621   3.381   4.110 -1.1365 -1.9746  1.8684
    1PA     C17 7105   2.645   3.592   4.173  0.2681 -0.1035  0.4951
    1PA     H7R 7106   2.555   3.625   4.121  1.9050  0.7599 -1.9976
    1PA     H7S 7107   2.664   3.652   4.262 -0.6144  1.5494 -0.3873
    1PA     C16 7108   2.748   3.623   4.058 -0.4191 -0.0688 -0.8058
    1PA     H6R 7109   2.722   3.721   4.018  0.5539  1.1509  1.3697
    1PA     H6S 7110   2.853   3.623   4.091 -0.5152 -1.6583 -0.4238
    1PA     C15 7111   2.750   3.521   3.942 -0.0915 -0.4667  0.1863
    1PA     H5R 7112   2.829   3.553   3.874  0.3173  0.7019  1.1809
    1PA     H5S 7113   2.767   3.420   3.981 -0.9847 -0.4696  0.6048
    1PA     C14 7114   2.618   3.523   3.872  0.7911 -0.1977 -0.2888
    1PA     H4R 7115   2.544   3.492   3.945  0.5325 -2.0771 -1.2842
    1PA     H4S 7116   2.584   3.622   3.841 -2.8015 -1.3344 -0.3588
    1PA     C13 7117   2.604   3.411   3.762 -0.4935  0.6516 -0.3425
    1PA     H3R 7118   2.639   3.314   3.797  2.2210  0.7702 -2.4549
    1PA     H3S 7119   2.499   3.408   3.732 -0.4424  0.3146 -0.4862
    1PA     C12 7120   2.695   3.437   3.641  0.2988 -0.4031  0.3554
    1PA     H2R 7121   2.801   3.426   3.662  0.5981  0.5733 -0.5161
    1PA     H2S 7122   2.667   3.362   3.566 -1.6569  0.8701 -0.2768
    1PC     C11 7123   2.670   3.567   3.571  0.6841  0.3432  0.5103
    1PC     O12 7124   2.560   3.598   3.517 -0.6632 -0.0310 -0.8925
    1PC     O11 7125   2.778   3.637   3.573 -0.2915 -0.4844 -0.0474
    1PC      C1 7126   2.778   3.762   3.490  0.4692  0.5085 -0.3326
    1PC      HR 7127   2.709   3.746   3.406  1.6121  1.8931 -1.5961
    1PC      HS 7128   2.740   3.846   3.548  0.0764 -0.6605  1.1484
    1PC      C2 7129   2.923   3.778   3.426  0.2900 -0.2552  0.3396
    1PC      HX 7130   2.928   3.876   3.378 -1.6649 -0.7987 -1.1208
    1PC      C3 7131   2.949   3.661   3.328  0.0942  0.1941  0.0925
    1PC      HA 7132   2.938   3.563   3.375 -0.9271  0.1937 -0.1288
    1PC      HB 7133   2.881   3.665   3.242  2.2145 -0.4417 -1.6968
    1PC     O31 7134   3.085   3.662   3.273 -0.2783 -0.3968 -0.2432
    1PC     P31 7135   3.117   3.753   3.148 -0.0560  0.0091 -0.2111
    1PC     O32 7136   3.052   3.669   3.035 -0.0279 -0.2104 -0.6353
    1PC     C31 7137   3.112   3.651   2.908  0.8821 -0.0388  0.2355
    1PC     H1A 7138   3.155   3.744   2.871 -0.2124 -0.2395 -1.6072
    1PC     H1B 7139   3.182   3.567   2.909  1.6267  0.4665 -2.6982
    1PC     C32 7140   2.990   3.613   2.814  0.2658  0.2767  0.6736
    1PC     H2A 7141   2.914   3.691   2.814  1.8509  1.9313 -1.2166
    1PC     H2B 7142   3.030   3.594   2.714 -0.0982  1.3623  0.3168
    1PC     N31 7143   2.921   3.479   2.846  0.0791 -0.3193 -0.2442
    1PC     C33 7144   2.809   3.502   2.945  0.2530  0.2682  0.3440
    1PC     H3A 7145   2.843   3.503   3.048  0.2884  1.1558  0.3262
    1PC     H3B 7146   2.754   3.592   2.916  0.0555 -0.6651 -2.5384
    1PC     H3C 7147   2.735   3.422   2.934 -0.2501  0.7873 -0.0958
    1PC     C34 7148   2.855   3.431   2.728 -0.0067  0.0144 -0.3565
    1PC     H4A 7149   2.795   3.345   2.757 -0.4636  1.5262  3.8584
    1PC     H4B 7150   2.784   3.507   2.697 -1.2234  0.2753  2.6747
    1PC     H4C 7151   2.927   3.406   2.650  0.0660 -0.4820 -0.1399
    1PC     C35 7152   3.011   3.375   2.900  0.2213  0.1225  0.5886
    1PC     H5A 7153   2.954   3.283   2.912  0.6512  0.1061  2.9828
    1PC     H5B 7154   3.046   3.418   2.994 -0.7251  3.6369 -0.5143
    1PC     H5C 7155   3.093   3.355   2.830 -1.2385 -1.9437 -0.6420
    1PC     O33 7156   3.041   3.876   3.169 -0.0707 -0.1169 -0.0864
    1PC     O34 7157   3.262   3.756   3.123  0.1103 -0.5199 -0.0873
    1PC     O21 7158   3.019   3.779   3.542 -0.2278 -0.0393 -0.0490
    1PC     C21 7159   3.015   3.874   3.635  0.1966  0.9709 -0.3965
    1PC     O22 7160   2.952   3.972   3.619  0.2366  0.4677  0.0244
    1OL     C12 7161   3.086   3.840   3.767 -0.1441  0.0144 -0.3185
    1OL     H2R 7162   3.187   3.881   3.767  0.3068 -0.9929  1.4056
    1OL     H2S 7163   3.102   3.733   3.773 -3.0309 -0.4467  1.3098
    1OL     C13 7164   3.009   3.896   3.891 -0.2323  0.4200  0.0613
    1OL     H3R 7165   2.930   3.824   3.912  0.0186 -0.7060 -2.5117
    1OL     H3S 7166   2.974   3.997   3.868  0.9999  0.5973 -1.2288
    1OL     C14 7167   3.109   3.899   4.012 -0.1840  0.0517  0.3850
    1OL     H4R 7168   3.200   3.958   3.994 -1.1721  2.5388  2.7703
    1OL     H4S 7169   3.148   3.799   4.027 -0.0464  0.0403 -0.0270
    1OL     C15 7170   3.039   3.941   4.145 -0.1229  0.1971  0.4790
    1OL     H5R 7171   2.945   3.886   4.158  0.3030 -0.3414  1.3633
    1OL     H5S 7172   3.005   4.045   4.138  1.0456  0.5511 -0.1324
    1OL     C16 7173   3.136   3.919   4.261 -0.2634  0.3401 -0.5061
    1OL     H6R 7174   3.230   3.970   4.240 -1.4605  2.2788 -1.3376
    1OL     H6S 7175   3.160   3.812   4.257 -1.1303  0.1467 -0.6278
    1OL     C17 7176   3.076   3.943   4.401  0.2823  0.0848  0.2506
    1OL     H7R 7177   2.986   3.882   4.408  0.1339  0.4711  2.1904
    1OL     H7S 7178   3.052   4.049   4.407  1.8085  0.5502 -1.1690
    1OL     C18 7179   3.164   3.891   4.511  0.4634 -0.8279  0.2517
    1OL     H8R 7180   3.175   3.967   4.589  1.8843 -1.4733  0.7103
    1OL     H8S 7181   3.270   3.891   4.483  0.4029  0.3146 -0.0413
    1OL     C19 7182   3.119   3.763   4.567  0.5611  0.0681  0.1098
    1OL     H9R 7183   3.135   3.680   4.499  1.1912  0.9649 -0.8742
    1OL    C110 7184   3.079   3.744   4.691 -0.2352 -0.4152 -1.0319
    1OL    H10R 7185   3.083   3.642   4.729  2.9893  0.4981  1.5697
    1OL    C111 7186   3.053   3.848   4.791 -0.8539 -0.4649 -0.0271
    1OL    H11R 7187   3.039   3.949   4.753  1.6427  0.0617  0.3061
    1OL    H11S 7188   3.148   3.856   4.844 -0.4810 -1.1498 -0.5792
    1OL    C112 7189   2.944   3.785   4.878  0.0014 -0.1558 -0.5745
    1OL    H12R 7190   2.987   3.707   4.941 -2.1993  1.6269  3.5770
    1OL    H12S 7191   2.858   3.746   4.822 -1.4389  0.7762  0.8841
    1OL    C113 7192   2.895   3.880   4.991  0.5317 -0.1632 -0.1965
    1OL    H13R 7193   2.864   3.969   4.935  1.9416 -1.4416 -3.2374
    1OL    H13S 7194   2.972   3.900   5.066 -1.7345  1.0031  1.9783
    1OL    C114 7195   2.781   3.813   5.058  0.8223 -0.6909 -0.3456
    1OL    H14R 7196   2.807   3.710   5.085 -1.7451 -0.6543  2.9779
    1OL    H14S 7197   2.696   3.807   4.990 -0.4064  0.2429  1.0669
    1OL    C115 7198   2.726   3.895   5.176 -0.0302 -0.4537  0.5368
    1OL    H15R 7199   2.782   3.876   5.268  1.4395 -1.4125 -0.5043
    1OL    H15S 7200   2.624   3.858   5.187 -0.2074 -0.7203 -1.5454
    1OL    C116 7201   2.711   4.043   5.154 -0.4492  0.6480 -0.3623
    1OL    H16R 7202   2.686   4.057   5.049 -1.6419 -1.6087 -0.4572
    1OL    H16S 7203   2.814   4.078   5.164  0.5062 -1.2816 -2.4314
    1OL    C117 7204   2.614   4.098   5.255 -0.2374  0.3037  0.8528
    1OL    H17R 7205   2.648   4.066   5.354  1.4524  1.4741  0.6856
    1OL    H17S 7206   2.516   4.053   5.233  0.7389 -1.4488 -0.1771
    1OL    C118 7207   2.578   4.250   5.256  0.4183  0.5228 -0.0871
    1OL    H18R 7208   2.491   4.276   5.318  1.8579  1.3983  1.6518
    1OL    H18S 7209   2.535   4.279   5.159  2.6457  1.2384 -0.9152
    1OL    H18T 7210   2.659   4.316   5.284  0.9976 -0.0044 -0.4917
    1PA    C116 7211   3.569   1.530   4.785 -0.6286  0.7528  0.6122
    1PA    H16R 7212   3.664   1.480   4.768 -0.6730  0.9407 -0.2083
    1PA    H16S 7213   3.491   1.476   4.732  0.4784  0.5698 -0.9126
    1PA    H16T 7214   3.534   1.543   4.888  1.6932 -1.0285  1.7333
    1PA    C115 7215   3.568   1.656   4.714  0.0765 -0.2654 -0.2962
    1PA    H15R 7216   3.596   1.647   4.609  1.1833  0.1230 -0.0430
    1PA    H15S 7217   3.468   1.699   4.715  1.1464  2.4205 -0.9466
    1PA    C114 7218   3.670   1.746   4.777 -0.4029  0.3598 -0.1060
    1PA    H14R 7219   3.634   1.786   4.872  0.4792  1.9630 -0.4023
    1PA    H14S 7220   3.765   1.699   4.803  0.5880  2.4929  0.3968
    1PA    C113 7221   3.708   1.859   4.680  0.5888 -0.2498 -0.4633
    1PA    H13R 7222   3.756   1.824   4.588 -1.5422 -0.0004 -1.7434
    1PA    H13S 7223   3.608   1.886   4.643  0.4576 -1.1070 -0.7698
    1PA    C112 7224   3.770   1.991   4.733 -0.2719  0.1206  0.1333
    1PA    H12R 7225   3.705   2.020   4.816 -0.4999 -0.0499  0.0181
    1PA    H12S 7226   3.856   1.949   4.786 -0.5820 -1.2519 -0.4106
    1PA    C111 7227   3.783   2.118   4.651 -0.3033  0.1074  0.4414
    1PA    H11R 7228   3.693   2.152   4.600  0.4668  1.5662 -0.0257
    1PA    H11S 7229   3.805   2.203   4.717  0.4587  0.5734 -0.3856
    1PA    C110 7230   3.900   2.119   4.553  0.0773 -0.3057  0.0103
    1PA    H10R 7231   3.995   2.093   4.599  0.6452 -1.0461 -1.4985
    1PA    H10S 7232   3.878   2.042   4.477 -3.4069  1.4254 -0.9428
    1PA     C19 7233   3.935   2.248   4.478  0.3386 -0.0233 -0.3788
    1PA     H9R 7234   3.855   2.252   4.404 -0.1164 -2.9329 -0.1677
    1PA     H9S 7235   3.930   2.338   4.540  2.5153  1.2352 -1.8721
    1PA     C18 7236   4.076   2.252   4.418  0.0531  0.2521 -0.5562
    1PA     H8R 7237   4.081   2.345   4.362 -1.0929  1.4689  1.2672
    1PA     H8S 7238   4.142   2.268   4.504 -0.4570 -0.3769 -0.0395
    1PA     C17 7239   4.119   2.132   4.337  0.0539 -0.3688  0.1507
    1PA     H7R 7240   4.222   2.142   4.301 -0.0232  1.0459  0.2670
    1PA     H7S 7241   4.117   2.042   4.399 -1.7734 -1.1068 -0.8894
    1PA     C16 7242   4.027   2.103   4.219 -0.5670 -0.1207 -0.3836
    1PA     H6R 7243   4.051   2.004   4.178 -0.7359 -1.4503  2.5095
    1PA     H6S 7244   3.925   2.105   4.256 -0.2477  0.4755  0.4743
    1PA     C15 7245   4.045   2.217   4.116 -0.0199  0.5686 -0.4098
    1PA     H5R 7246   4.026   2.318   4.153  1.2034  0.6454  0.0606
    1PA     H5S 7247   4.149   2.226   4.084  0.3580  0.9941  0.8561
    1PA     C14 7248   3.953   2.192   4.001 -0.7833  0.0532 -0.3669
    1PA     H4R 7249   3.929   2.086   3.989 -0.9174 -0.0883  1.0826
    1PA     H4S 7250   3.856   2.239   4.014 -0.1865  1.5023 -0.9712
    1PA     C13 7251   4.024   2.243   3.873  0.0719 -0.0272  0.5261
    1PA     H3R 7252   4.110   2.179   3.852  0.1114  0.4681 -0.8774
    1PA     H3S 7253   3.965   2.230   3.782  1.7472  2.8210 -1.0947
    1PA     C12 7254   4.058   2.403   3.877 -0.3709  0.3311  0.3598
    1PA     H2R 7255   3.958   2.446   3.888 -0.5059 -0.2367  1.4914
    1PA     H2S 7256   4.110   2.438   3.966  0.6077  4.3523 -1.5500
    1PC     C11 7257   4.132   2.459   3.754  0.8623 -0.3573 -0.1993
    1PC     O12 7258   4.202   2.392   3.684 -0.2145 -0.2215 -0.6019
    1PC     O11 7259   4.110   2.591   3.743 -0.8015  0.0324  0.1564
    1PC      C1 7260   4.177   2.648   3.622  0.3835  0.0530 -0.6745
    1PC      HR 7261   4.183   2.756   3.638 -0.9719  0.2043 -1.0805
    1PC      HS 7262   4.277   2.606   3.612 -0.3937 -1.9870 -0.4684
    1PC      C2 7263   4.093   2.626   3.496  0.1592  0.0769  0.6629
    1PC      HX 7264   4.093   2.519   3.473  2.2534 -0.4545  2.7258
    1PC      C3 7265   4.158   2.712   3.382 -0.8414  0.7600  0.3069
    1PC      HA 7266   4.153   2.817   3.411  2.1547  1.2793 -0.6258
    1PC      HB 7267   4.263   2.685   3.365 -1.1313  0.8376 -1.9552
    1PC     O31 7268   4.092   2.696   3.252 -0.0565 -1.1131  0.1009
    1PC     P31 7269   4.152   2.609   3.135 -0.3971 -0.0293 -0.0135
    1PC     O32 7270   4.275   2.701   3.088 -0.3924 -0.1359 -0.0033
    1PC     C31 7271   4.414   2.654   3.058  0.1822  0.5665 -1.0001
    1PC     H1A 7272   4.485   2.735   3.075 -0.6532  1.0779  0.1510
    1PC     H1B 7273   4.434   2.576   3.132 -1.6811  1.1025  0.1261
    1PC     C32 7274   4.412   2.607   2.911  0.0854 -0.4897 -0.1619
    1PC     H2A 7275   4.340   2.525   2.904 -0.8254  0.1268  1.4491
    1PC     H2B 7276   4.373   2.695   2.858 -1.5577 -0.3657  1.1581
    1PC     N31 7277   4.532   2.568   2.849 -0.7778  0.0348 -0.6568
    1PC     C33 7278   4.506   2.509   2.718 -0.5552  0.0661  0.4080
    1PC     H3A 7279   4.603   2.492   2.671 -0.9623  0.5527 -0.6403
    1PC     H3B 7280   4.449   2.416   2.722  0.7834 -0.7540  1.0602
    1PC     H3C 7281   4.455   2.581   2.653  0.9036  0.7409 -0.0259
    1PC     C34 7282   4.644   2.675   2.848  0.4317  0.4171 -0.1883
    1PC     H4A 7283   4.740   2.631   2.820  2.1905  3.0676  1.2592
    1PC     H4B 7284   4.615   2.752   2.777  0.7639  0.4620 -0.2776
    1PC     H4C 7285   4.645   2.719   2.948  1.1025 -0.5031  0.2241
    1PC     C35 7286   4.585   2.449   2.927  0.1303 -0.7580  0.0029
    1PC     H5A 7287   4.663   2.412   2.860 -0.0344 -1.1277  0.0183
    1PC     H5B 7288   4.505   2.380   2.951 -0.2196 -0.8453 -1.3528
    1PC     H5C 7289   4.624   2.475   3.026  0.8544 -0.3383 -0.3881
    1PC     O33 7290   4.202   2.482   3.199 -0.4862  0.1782 -0.5428
    1PC     O34 7291   4.052   2.605   3.028  0.2336 -0.5371  0.2967
    1PC     O21 7292   3.960   2.682   3.516  0.2017 -0.2675  0.2571
    1PC     C21 7293   3.869   2.601   3.564  0.2155  0.0847 -0.1488
    1PC     O22 7294   3.894   2.480   3.571 -0.1884 -0.6733  0.6432
    1OL     C12 7295   3.752   2.673   3.618 -0.2374  0.3862  0.1631
    1OL     H2R 7296   3.673   2.650   3.547  1.2387  0.4627 -1.5599
    1OL     H2S 7297   3.763   2.782   3.616 -2.5262  0.7181  1.5934
    1OL     C13 7298   3.717   2.614   3.759  0.1976 -0.1907  0.2277
    1OL     H3R 7299   3.806   2.618   3.821 -0.0011 -0.0240  0.5078
    1OL     H3S 7300   3.681   2.512   3.745 -0.5648 -0.0952  1.3904
    1OL     C14 7301   3.602   2.693   3.829 -0.3054 -0.3053  0.0336
    1OL     H4R 7302   3.524   2.710   3.754 -0.5019  1.2124  0.5527
    1OL     H4S 7303   3.637   2.788   3.868  0.2807 -0.7953  0.7214
    1OL     C15 7304   3.546   2.613   3.945  0.5893  0.2526  0.5005
    1OL     H5R 7305   3.500   2.526   3.898 -0.1990  1.9339 -2.1175
    1OL     H5S 7306   3.464   2.672   3.986 -1.2409 -0.2083 -2.2324
    1OL     C16 7307   3.634   2.574   4.068 -0.0245 -0.9293 -0.1375
    1OL     H6R 7308   3.656   2.667   4.121  0.6778 -1.4065  0.4208
    1OL     H6S 7309   3.730   2.538   4.031  0.7168 -0.1643  0.9667
    1OL     C17 7310   3.570   2.472   4.162 -0.2198  0.2423  0.1758
    1OL     H7R 7311   3.548   2.374   4.118  1.9970  0.1132 -0.8252
    1OL     H7S 7312   3.480   2.519   4.200  1.6603  2.5815  2.0558
    1OL     C18 7313   3.669   2.446   4.277  0.8722 -0.0924 -0.0428
    1OL     H8R 7314   3.773   2.436   4.246  2.3927  1.3839  3.9335
    1OL     H8S 7315   3.638   2.347   4.312  0.8033 -1.0437 -2.5532
    1OL     C19 7316   3.666   2.568   4.368  0.4786  0.0108 -0.5229
    1OL     H9R 7317   3.702   2.658   4.320 -0.5088 -0.1582 -1.6314
    1OL    C110 7318   3.649   2.565   4.499 -0.1614 -0.1790  0.2162
    1OL    H10R 7319   3.677   2.655   4.554 -1.3103  0.8087 -0.7385
    1OL    C111 7320   3.615   2.442   4.580  0.0608  0.1051  0.2320
    1OL    H11R 7321   3.701   2.417   4.643 -0.4927  0.2039  1.0505
    1OL    H11S 7322   3.592   2.361   4.511 -0.7758 -0.2529  0.9179
    1OL    C112 7323   3.485   2.438   4.658  0.4653 -0.1950  0.3448
    1OL    H12R 7324   3.470   2.338   4.700 -2.1026 -0.2915 -0.6349
    1OL    H12S 7325   3.401   2.461   4.593 -0.2013  0.0203  1.2620
    1OL    C113 7326   3.486   2.547   4.769  0.2391  0.3237 -0.1805
    1OL    H13R 7327   3.515   2.647   4.734 -1.8168  0.5735 -1.3748
    1OL    H13S 7328   3.559   2.512   4.841 -1.3892  0.9372  1.8703
    1OL    C114 7329   3.347   2.544   4.848  0.3012 -0.0604  0.5391
    1OL    H14R 7330   3.318   2.440   4.862  0.3480 -0.0448  0.7518
    1OL    H14S 7331   3.271   2.601   4.793 -0.5167 -1.1772  0.4817
    1OL    C115 7332   3.337   2.610   4.981  0.1416 -0.2202 -0.1294
    1OL    H15R 7333   3.399   2.560   5.056  0.4242 -0.8827 -0.7931
    1OL    H15S 7334   3.234   2.609   5.017  0.0876 -2.3607 -0.2334
    1OL    C116 7335   3.385   2.761   4.981 -0.1537  0.1182  0.6490
    1OL    H16R 7336   3.326   2.810   4.904 -1.7751 -2.0257  0.4414
    1OL    H16S 7337   3.489   2.771   4.951 -0.1617 -1.8498 -0.1295
    1OL    C117 7338   3.364   2.831   5.116  0.1963 -0.3244 -0.2658
    1OL    H17R 7339   3.420   2.784   5.198  0.8504 -0.2934 -0.6830
    1OL    H17S 7340   3.260   2.829   5.147 -0.4289 -2.2153 -2.2378
    1OL    C118 7341   3.415   2.975   5.113 -0.2830  0.0793  0.0905
    1OL    H18R 7342   3.513   2.974   5.067 -0.8975 -0.0636 -1.2584
    1OL    H18S 7343   3.419   3.016   5.215 -1.2128 -1.9513  1.0066
    1OL    H18T 7344   3.341   3.036   5.061 -0.0351  0.2037 -0.1175
    1PA    C116 7345   3.821   2.852   4.942 -0.8918  0.4884  0.5074
    1PA    H16R 7346   3.777   2.879   5.038  2.2530 -0.0914  2.2300
    1PA    H16S 7347   3.916   2.803   4.963  0.5035  2.0374 -1.7848
    1PA    H16T 7348   3.759   2.774   4.896 -1.1749  1.2674 -0.4736
    1PA    C115 7349   3.837   2.971   4.853 -0.1419 -0.5611  0.5511
    1PA    H15R 7350   3.893   3.050   4.904 -1.0070  0.7954 -0.5112
    1PA    H15S 7351   3.890   2.952   4.759  1.0028 -1.8158  1.3973
    1PA    C114 7352   3.705   3.033   4.807  0.3808 -0.6073  0.1682
    1PA    H14R 7353   3.646   3.069   4.890  0.2122  0.5117 -0.4255
    1PA    H14S 7354   3.733   3.117   4.744 -1.2535 -0.2049 -0.0650
    1PA    C113 7355   3.628   2.928   4.727  0.6817  0.3548  0.4438
    1PA    H13R 7356   3.686   2.896   4.641 -1.4405 -0.6098 -0.7268
    1PA    H13S 7357   3.611   2.845   4.796 -1.4750 -0.8106 -1.3492
    1PA    C112 7358   3.494   2.970   4.669  0.1154  0.6279  0.4165
    1PA    H12R 7359   3.432   2.888   4.631 -1.0963  1.5500  0.3591
    1PA    H12S 7360   3.440   3.025   4.745 -1.2616 -1.1179  0.7799
    1PA    C111 7361   3.510   3.066   4.549  0.8093  0.2334 -0.3957
    1PA    H11R 7362   3.410   3.103   4.526  0.5953 -0.7917 -1.1297
    1PA    H11S 7363   3.577   3.147   4.580  1.7488 -0.9408  0.7218
    1PA    C110 7364   3.555   2.994   4.420 -0.3974 -0.1341  0.1357
    1PA    H10R 7365   3.659   2.963   4.430 -0.8902 -1.9393 -0.0400
    1PA    H10S 7366   3.494   2.905   4.402  0.4201 -0.5634 -0.5594
    1PA     C19 7367   3.545   3.100   4.307  0.4001 -0.1034 -0.2498
    1PA     H9R 7368   3.444   3.139   4.296  1.4030  2.4667 -1.0590
    1PA     H9S 7369   3.609   3.185   4.333 -0.3779 -0.1253  1.9611
    1PA     C18 7370   3.597   3.049   4.175  0.3354 -0.2720  0.6070
    1PA     H8R 7371   3.702   3.026   4.188  0.3761 -0.1596  0.4807
    1PA     H8S 7372   3.545   2.956   4.149  0.3613 -0.4487  1.1904
    1PA     C17 7373   3.577   3.156   4.064 -0.5084 -0.5394 -0.5648
    1PA     H7R 7374   3.472   3.177   4.044 -1.2610 -1.8101  1.7223
    1PA     H7S 7375   3.629   3.244   4.101 -0.2405 -0.5874 -0.8187
    1PA     C16 7376   3.646   3.100   3.939 -1.0745 -0.3674  0.2162
    1PA     H6R 7377   3.753   3.089   3.958 -1.0209 -1.4616 -0.6790
    1PA     H6S 7378   3.604   3.004   3.909 -0.4159  0.1989 -2.8232
    1PA     C15 7379   3.627   3.204   3.832 -0.5929 -0.8418 -0.3199
    1PA     H5R 7380   3.522   3.216   3.803 -0.4791  3.5170  0.3292
    1PA     H5S 7381   3.658   3.299   3.877 -2.1307 -0.6988  0.4872
    1PA     C14 7382   3.719   3.161   3.716  0.4036  0.1280  0.1518
    1PA     H4R 7383   3.762   3.246   3.664 -0.7236  0.1183 -0.8595
    1PA     H4S 7384   3.805   3.110   3.758 -0.5884 -2.0648 -0.3205
    1PA     C13 7385   3.660   3.052   3.611 -0.5093 -0.3188 -1.1196
    1PA     H3R 7386   3.744   3.030   3.545  1.3463 -1.5629  1.4719
    1PA     H3S 7387   3.639   2.969   3.678 -0.2147  1.7244  1.6744
    1PA     C12 7388   3.534   3.113   3.548  0.5125 -0.4956  0.3830
    1PA     H2R 7389   3.487   3.035   3.487 -0.3418 -0.3294  0.8140
    1PA     H2S 7390   3.458   3.144   3.620 -0.0227 -1.3258  0.1976
    1PC     C11 7391   3.565   3.229   3.458  0.5459 -0.0707  0.4418
    1PC     O12 7392   3.604   3.216   3.343 -0.6400  0.3194 -0.2730
    1PC     O11 7393   3.561   3.349   3.515  0.0068 -0.4449  0.1561
    1PC      C1 7394   3.608   3.462   3.431  0.4856  0.6334  0.4038
    1PC      HR 7395   3.715   3.457   3.414  0.2873 -1.9119 -0.5999
    1PC      HS 7396   3.551   3.450   3.338 -0.4735  2.2785  0.7365
    1PC      C2 7397   3.562   3.595   3.487  0.4434  0.5034 -0.0187
    1PC      HX 7398   3.452   3.591   3.488  0.4321 -0.8590 -2.1006
    1PC      C3 7399   3.610   3.711   3.392 -0.4390 -0.4907  0.6481
    1PC      HA 7400   3.536   3.721   3.312 -2.6752  0.3415  2.6827
    1PC      HB 7401   3.617   3.808   3.441  0.7305  0.0429 -0.5212
    1PC     O31 7402   3.737   3.681   3.337  0.4047  0.2867 -0.0228
    1PC     P31 7403   3.773   3.724   3.187 -0.4360  0.1451  0.5292
    1PC     O32 7404   3.785   3.880   3.195  0.4837  0.3942 -0.4120
    1PC     C31 7405   3.903   3.949   3.235  0.2185 -0.6547 -0.1420
    1PC     H1A 7406   3.910   3.924   3.341 -2.5157 -1.2749 -0.0354
    1PC     H1B 7407   3.990   3.905   3.186 -1.2839 -0.2747 -3.4298
    1PC     C32 7408   3.881   4.100   3.199 -0.4236 -0.4671 -0.1671
    1PC     H2A 7409   3.779   4.129   3.224 -0.8925  0.0842 -2.4759
    1PC     H2B 7410   3.952   4.160   3.256 -0.2136 -2.0785  1.3824
    1PC     N31 7411   3.903   4.141   3.055  0.0118 -0.0408 -0.1401
    1PC     C33 7412   3.832   4.058   2.958  0.3853 -0.1948 -0.6944
    1PC     H3A 7413   3.838   4.104   2.859 -1.1555 -2.0125 -1.7084
    1PC     H3B 7414   3.860   3.952   2.956  0.2998 -0.3172  1.7427
    1PC     H3C 7415   3.725   4.052   2.977  0.3361  0.5887 -0.6983
    1PC     C34 7416   3.851   4.281   3.040  0.4070  0.4493 -0.2558
    1PC     H4A 7417   3.745   4.284   3.064  0.0668 -0.8559 -1.4176
    1PC     H4B 7418   3.896   4.352   3.109  1.2649 -1.0298  0.7602
    1PC     H4C 7419   3.849   4.311   2.935 -2.8012 -1.9582 -1.0180
    1PC     C35 7420   4.047   4.152   3.018  0.9084  0.3546 -0.0866
    1PC     H5A 7421   4.087   4.051   3.026 -0.3732 -0.2097 -0.5043
    1PC     H5B 7422   4.092   4.221   3.089  0.5207 -0.3271  0.8429
    1PC     H5C 7423   4.059   4.195   2.919 -0.5107  1.6249  0.2577
    1PC     O33 7424   3.900   3.663   3.143  0.8389 -0.0771 -0.0640
    1PC     O34 7425   3.658   3.689   3.101  0.1932 -0.1924  0.1027
    1PC     O21 7426   3.616   3.616   3.621 -0.0902 -0.4820 -0.6897
    1PC     C21 7427   3.537   3.679   3.712  0.1085 -0.2597 -0.2091
    1PC     O22 7428   3.421   3.712   3.698 -0.3899  0.1968 -0.5244
    1OL     C12 7429   3.610   3.709   3.842 -0.7285 -0.0886 -0.0399
    1OL     H2R 7430   3.565   3.786   3.905  3.2170  0.6007  2.3224
    1OL     H2S 7431   3.706   3.749   3.810 -0.9656  0.7027  0.2173
    1OL     C13 7432   3.619   3.573   3.922 -0.2779  0.0766 -0.3045
    1OL     H3R 7433   3.669   3.497   3.860 -0.4707 -1.4378  1.3071
    1OL     H3S 7434   3.521   3.527   3.937 -0.6099 -0.2885 -2.9820
    1OL     C14 7435   3.697   3.593   4.046  0.1893  0.7134 -0.2319
    1OL     H4R 7436   3.800   3.616   4.020  0.4741  0.7555  0.8814
    1OL     H4S 7437   3.692   3.507   4.113  0.1505  1.7801  1.1859
    1OL     C15 7438   3.654   3.707   4.126  0.9547 -1.5602 -0.4602
    1OL     H5R 7439   3.664   3.803   4.074 -2.6766 -0.7847 -0.0244
    1OL     H5S 7440   3.727   3.720   4.206  1.6290 -0.7920 -1.1760
    1OL     C16 7441   3.508   3.698   4.187 -0.1186 -0.6124  0.6641
    1OL     H6R 7442   3.444   3.692   4.098 -0.0289  2.4051  0.2977
    1OL     H6S 7443   3.484   3.792   4.237  1.5295  0.0826  0.2195
    1OL     C17 7444   3.501   3.583   4.298 -0.9297 -0.7271  0.7379
    1OL     H7R 7445   3.591   3.586   4.359 -0.4648  0.3376  0.0429
    1OL     H7S 7446   3.501   3.489   4.242  1.3780  0.9927 -2.5219
    1OL     C18 7447   3.372   3.599   4.386 -0.6067  0.9423  0.4850
    1OL     H8R 7448   3.302   3.623   4.306  1.0219  1.2018 -0.9162
    1OL     H8S 7449   3.386   3.686   4.451 -0.8506  0.6111  0.9897
    1OL     C19 7450   3.349   3.467   4.455 -0.0492 -0.3101  0.3116
    1OL     H9R 7451   3.318   3.387   4.389  3.3468  0.0281 -1.9595
    1OL    C110 7452   3.373   3.445   4.588 -0.6168  0.1323 -0.0535
    1OL    H10R 7453   3.356   3.347   4.633 -1.1836 -0.3499 -1.2588
    1OL    C111 7454   3.414   3.551   4.685 -0.4811  0.5869  0.0847
    1OL    H11R 7455   3.330   3.589   4.743  0.0246  1.4055  0.2831
    1OL    H11S 7456   3.438   3.645   4.635  0.7938  0.1871 -0.0807
    1OL    C112 7457   3.525   3.507   4.776 -0.8126 -0.2920 -0.2125
    1OL    H12R 7458   3.484   3.434   4.847  2.0851 -0.1079  1.8552
    1OL    H12S 7459   3.564   3.598   4.824  0.0658  0.3231 -1.9998
    1OL    C113 7460   3.643   3.436   4.720 -0.5415 -0.0317  0.7251
    1OL    H13R 7461   3.610   3.351   4.660  1.9206 -0.7698  0.2948
    1OL    H13S 7462   3.705   3.395   4.801 -1.2296 -2.3945  0.1153
    1OL    C114 7463   3.733   3.530   4.628  0.4463 -0.2845  0.4219
    1OL    H14R 7464   3.774   3.619   4.676  0.9342 -0.5090  0.4267
    1OL    H14S 7465   3.660   3.574   4.560  0.5889  0.3761  0.6844
    1OL    C115 7466   3.854   3.475   4.556 -0.2069  0.1639  0.5595
    1OL    H15R 7467   3.915   3.414   4.622  1.4605  1.1419 -0.0089
    1OL    H15S 7468   3.914   3.561   4.525 -0.0273 -0.7379 -1.8081
    1OL    C116 7469   3.815   3.401   4.422  0.1882  0.3298  0.2133
    1OL    H16R 7470   3.796   3.467   4.337 -4.2513 -2.3732 -1.2127
    1OL    H16S 7471   3.721   3.349   4.436 -0.5388  1.4274 -0.3878
    1OL    C117 7472   3.937   3.304   4.401  0.3973  0.1965 -0.0665
    1OL    H17R 7473   3.934   3.234   4.485 -1.4574 -1.2775 -1.2600
    1OL    H17S 7474   4.027   3.364   4.391 -1.0206  2.3090 -0.7686
    1OL    C118 7475   3.924   3.214   4.274 -0.0550 -0.0877  0.5849
    1OL    H18R 7476   3.822   3.184   4.248 -0.2306  0.1349  1.0093
    1OL    H18S 7477   3.999   3.135   4.277  0.1978  0.1177 -0.0475
    1OL    H18T 7478   3.957   3.272   4.187 -0.0190 -0.2167  0.5130
    1PA    C116 7479   4.508   0.384   4.848  0.1412 -0.3041 -0.4627
    1PA    H16R 7480   4.549   0.393   4.747 -2.5622 -0.1544 -1.6334
    1PA    H16S 7481   4.428   0.310   4.843 -1.6535  1.5907 -1.1819
    1PA    H16T 7482   4.587   0.345   4.912  1.2093  2.1277 -0.1742
    1PA    C115 7483   4.452   0.515   4.890 -0.1340 -0.0570 -0.1837
    1PA    H15R 7484   4.396   0.508   4.983 -1.0182  1.5904 -0.5525
    1PA    H15S 7485   4.543   0.570   4.916  0.2422 -1.7122  2.3870
    1PA    C114 7486   4.375   0.576   4.777 -0.1963 -0.2774  0.3545
    1PA    H14R 7487   4.313   0.494   4.739  1.1411 -0.8208 -0.7640
    1PA    H14S 7488   4.311   0.647   4.829 -1.0027 -2.2518  2.1621
    1PA    C113 7489   4.454   0.645   4.666 -0.1649  0.1656 -0.5372
    1PA    H13R 7490   4.518   0.721   4.713  0.5829 -1.8891  1.9826
    1PA    H13S 7491   4.521   0.573   4.619  0.6756  0.2197  0.5227
    1PA    C112 7492   4.368   0.688   4.554  0.2466  0.0568  0.8641
    1PA    H12R 7493   4.293   0.617   4.520  0.5707  0.0323  0.1745
    1PA    H12S 7494   4.310   0.773   4.591 -0.0797 -0.5080  1.6830
    1PA    C111 7495   4.439   0.745   4.432  1.1486  0.1704  0.2200
    1PA    H11R 7496   4.517   0.811   4.468  1.0518  1.3504 -1.5932
    1PA    H11S 7497   4.473   0.660   4.372 -0.6770  0.4942 -1.3916
    1PA    C110 7498   4.342   0.821   4.343  0.3126  0.0116  0.3933
    1PA    H10R 7499   4.251   0.769   4.314  0.1049  0.9629 -0.7507
    1PA    H10S 7500   4.296   0.903   4.399  2.1533  0.5625  1.1820
    1PA     C19 7501   4.408   0.870   4.217 -0.3522 -0.6315 -0.6048
    1PA     H9R 7502   4.491   0.934   4.248  0.1315 -1.8773  0.7970
    1PA     H9S 7503   4.458   0.786   4.167  1.9511 -0.6304  1.5006
    1PA     C18 7504   4.309   0.942   4.132  0.9720  0.8493  0.2134
    1PA     H8R 7505   4.234   0.880   4.084  0.1547  2.0875 -0.1651
    1PA     H8S 7506   4.247   1.005   4.196 -1.6901  1.3166 -2.6101
    1PA     C17 7507   4.374   1.016   4.011 -0.9430 -0.1532 -0.7151
    1PA     H7R 7508   4.299   1.081   3.964  0.0006  0.4442 -1.4529
    1PA     H7S 7509   4.454   1.084   4.041 -0.1949 -0.6311 -1.5640
    1PA     C16 7510   4.433   0.924   3.904  0.4342 -0.1022  0.2181
    1PA     H6R 7511   4.470   0.978   3.817 -0.7696 -1.9472 -1.5178
    1PA     H6S 7512   4.517   0.866   3.942 -0.6050 -2.3433 -0.7378
    1PA     C15 7513   4.326   0.825   3.856  0.0653  0.1790  0.2248
    1PA     H5R 7514   4.368   0.759   3.779 -0.2571 -0.6419  0.7379
    1PA     H5S 7515   4.293   0.756   3.933 -1.4071  0.2882 -0.2835
    1PA     C14 7516   4.187   0.871   3.808 -0.3692 -0.1716 -0.0035
    1PA     H4R 7517   4.139   0.779   3.775  0.3812 -1.3178  1.9092
    1PA     H4S 7518   4.131   0.907   3.895 -0.3470  0.7195 -0.3442
    1PA     C13 7519   4.176   0.989   3.704  0.2055  0.4801 -0.2328
    1PA     H3R 7520   4.217   1.081   3.744  0.4833  0.9309 -1.4913
    1PA     H3S 7521   4.240   0.967   3.617  0.9735 -2.6025  0.9586
    1PA     C12 7522   4.031   0.999   3.655  0.5820 -0.3118  0.1851
    1PA     H2R 7523   4.007   0.906   3.604 -2.0382  0.8079 -0.7999
    1PA     H2S 7524   3.967   1.007   3.744  1.0678 -1.4762  0.6527
    1PC     C11 7525   4.013   1.112   3.553 -0.3928  0.0745  0.2194
    1PC     O12 7526   4.106   1.166   3.496  0.5360  0.3982 -0.3849
    1PC     O11 7527   3.884   1.146   3.532  0.2572 -0.8752  0.8939
    1PC      C1 7528   3.858   1.236   3.420  0.4425  0.0415  0.2380
    1PC      HR 7529   3.887   1.337   3.450 -1.6312  1.3065 -1.7345
    1PC      HS 7530   3.921   1.221   3.332  0.3778 -0.2435  0.2385
    1PC      C2 7531   3.717   1.218   3.371 -1.0751 -0.8586 -1.0291
    1PC      HX 7532   3.690   1.112   3.368 -0.3295 -1.0664 -0.3486
    1PC      C3 7533   3.695   1.282   3.235 -0.0131 -0.4827  0.7294
    1PC      HA 7534   3.731   1.203   3.168  0.5297 -0.6517  1.2031
    1PC      HB 7535   3.589   1.298   3.214  0.2982  1.1791  0.3319
    1PC     O31 7536   3.772   1.407   3.220 -0.3531  0.7308  0.0057
    1PC     P31 7537   3.803   1.465   3.076 -0.0883  0.3455 -0.1785
    1PC     O32 7538   3.673   1.551   3.038  0.4307 -0.7606  0.7519
    1PC     C31 7539   3.567   1.492   2.957  0.5554 -0.0431 -0.4935
    1PC     H1A 7540   3.598   1.496   2.852 -2.1684  2.7462 -1.3180
    1PC     H1B 7541   3.534   1.390   2.981  1.0690  0.0468  0.6847
    1PC     C32 7542   3.453   1.594   2.981 -0.2615  0.7668 -0.1484
    1PC     H2A 7543   3.407   1.590   3.080  0.8952  1.4658  0.4380
    1PC     H2B 7544   3.493   1.695   2.971  2.0980  0.0412  1.0750
    1PC     N31 7545   3.338   1.580   2.878 -0.1993 -0.5884 -0.4566
    1PC     C33 7546   3.281   1.440   2.887 -0.8543  0.8352  0.0087
    1PC     H3A 7547   3.344   1.364   2.841  0.1887  2.4255 -1.2926
    1PC     H3B 7548   3.268   1.417   2.993 -2.2018 -0.9889 -0.4997
    1PC     H3C 7549   3.186   1.439   2.833 -0.9431  0.0470  0.1579
    1PC     C34 7550   3.232   1.673   2.900  0.5229 -0.4741 -0.6352
    1PC     H4A 7551   3.192   1.647   2.999  1.7356 -3.2868 -0.8024
    1PC     H4B 7552   3.280   1.771   2.894  1.0309 -0.3617  2.8634
    1PC     H4C 7553   3.159   1.666   2.819 -0.9556  0.9090  0.4954
    1PC     C35 7554   3.384   1.592   2.738 -0.0853  0.0309 -0.1455
    1PC     H5A 7555   3.466   1.524   2.719  1.0306  1.2229  0.2457
    1PC     H5B 7556   3.432   1.687   2.716  2.2564 -1.2020 -0.6254
    1PC     H5C 7557   3.298   1.585   2.671  0.3336  0.6557 -0.7628
    1PC     O33 7558   3.915   1.561   3.090  0.1324 -0.0842  0.5014
    1PC     O34 7559   3.799   1.356   2.978 -0.1511  0.2053 -0.2598
    1PC     O21 7560   3.630   1.290   3.464 -0.2166  0.4446  0.6069
    1PC     C21 7561   3.556   1.225   3.554 -0.0243  0.1602  0.1998
    1PC     O22 7562   3.552   1.101   3.554  0.1656  0.2020  0.1416
    1OL     C12 7563   3.484   1.320   3.652 -0.4032  0.1073  1.0292
    1OL     H2R 7564   3.440   1.264   3.736  0.1016  2.4089  2.9361
    1OL     H2S 7565   3.403   1.361   3.591 -0.7600 -2.7864 -0.6647
    1OL     C13 7566   3.586   1.415   3.722  0.0647 -0.0901  0.4595
    1OL     H3R 7567   3.545   1.460   3.813 -1.0942  1.0571 -0.5683
    1OL     H3S 7568   3.606   1.490   3.644  0.0645  1.2257  1.6784
    1OL     C14 7569   3.716   1.342   3.777 -0.1704 -0.0756 -0.2971
    1OL     H4R 7570   3.788   1.419   3.807 -1.7737  0.9916  1.0331
    1OL     H4S 7571   3.769   1.291   3.697  0.4269  1.4104 -0.8937
    1OL     C15 7572   3.680   1.257   3.893 -0.0249 -0.4148 -0.6885
    1OL     H5R 7573   3.582   1.208   3.889  0.2897 -0.9667 -2.3368
    1OL     H5S 7574   3.683   1.316   3.985  1.8754 -0.4330 -0.7087
    1OL     C16 7575   3.781   1.141   3.924  0.0720 -0.9241  0.6348
    1OL     H6R 7576   3.883   1.181   3.919 -0.3568  0.0918 -0.8757
    1OL     H6S 7577   3.781   1.069   3.842 -0.8971  1.0446 -1.1917
    1OL     C17 7578   3.727   1.087   4.056 -0.4672 -0.6725 -0.1314
    1OL     H7R 7579   3.626   1.050   4.038 -0.6917 -0.4572  0.6462
    1OL     H7S 7580   3.719   1.167   4.131 -0.0623 -0.5691 -0.1961
    1OL     C18 7581   3.819   0.973   4.102 -0.2085  0.5733 -0.2360
    1OL     H8R 7582   3.918   1.014   4.122  0.2455 -0.1387 -0.9884
    1OL     H8S 7583   3.837   0.898   4.025  0.4354  1.3635 -0.8751
    1OL     C19 7584   3.757   0.907   4.228 -0.3014 -0.2061  0.4990
    1OL     H9R 7585   3.652   0.879   4.226 -1.3939  3.4817 -0.1985
    1OL    C110 7586   3.821   0.894   4.345 -0.8050  0.0569 -0.2918
    1OL    H10R 7587   3.771   0.838   4.424 -1.7632  1.4781  0.1498
    1OL    C111 7588   3.969   0.934   4.376  0.2450  1.1836 -0.0457
    1OL    H11R 7589   3.976   1.043   4.368  1.3903  1.1956  0.8517
    1OL    H11S 7590   4.027   0.891   4.294  0.6928  1.7246 -0.0180
    1OL    C112 7591   4.007   0.894   4.523  0.1954  0.2334 -0.4073
    1OL    H12R 7592   3.935   0.942   4.590 -1.3208 -0.2862 -1.6137
    1OL    H12S 7593   4.105   0.938   4.542 -0.9134  3.0234 -0.7040
    1OL    C113 7594   4.004   0.742   4.552  0.1986  0.1291  0.5682
    1OL    H13R 7595   4.081   0.693   4.493 -1.0643 -1.4528  0.1548
    1OL    H13S 7596   3.909   0.700   4.517  0.1537 -0.3430  1.2347
    1OL    C114 7597   4.041   0.700   4.695  0.4753  0.1558  0.5080
    1OL    H14R 7598   4.142   0.736   4.714  1.5109 -2.3745  0.2802
    1OL    H14S 7599   4.049   0.592   4.713  1.4783 -0.3686 -2.4619
    1OL    C115 7600   3.942   0.769   4.790  0.4106 -0.3904  0.0727
    1OL    H15R 7601   3.840   0.752   4.756  0.0211 -0.5141  1.2415
    1OL    H15S 7602   3.965   0.875   4.798 -1.3574  0.1170 -1.1646
    1OL    C116 7603   3.936   0.708   4.933 -0.2644  0.0553 -0.9981
    1OL    H16R 7604   3.934   0.599   4.932  1.3652  0.0112 -1.1850
    1OL    H16S 7605   3.845   0.745   4.981 -0.6822 -1.9087 -0.2114
    1OL    C117 7606   4.054   0.757   5.016 -0.7946 -0.7093 -0.3961
    1OL    H17R 7607   4.051   0.866   5.010  0.6952 -0.7094 -2.2124
    1OL    H17S 7608   4.148   0.723   4.971  0.0275  0.8975  0.0133
    1OL    C118 7609   4.040   0.698   5.154  0.1072 -0.1773 -1.0858
    1OL    H18R 7610   4.006   0.595   5.159 -1.1643  0.2713  0.1372
    1OL    H18S 7611   3.964   0.753   5.209  0.1185 -2.1671  1.0682
    1OL    H18T 7612   4.132   0.704   5.214 -1.0560 -0.8169  0.8547
    1PA    C116 7613   0.284   3.026   4.498  0.6510 -0.1830  0.2716
    1PA    H16R 7614   0.260   2.935   4.553 -3.9106  1.4147  1.3676
    1PA    H16S 7615   0.194   3.070   4.455 -0.5342 -1.6148  1.1999
    1PA    H16T 7616   0.326   3.090   4.575 -1.7662  0.1027  1.4151
    1PA    C115 7617   0.392   3.004   4.382 -0.4495  0.0733  0.1022
    1PA    H15R 7618   0.358   2.920   4.321 -1.2815 -0.3251  1.1021
    1PA    H15S 7619   0.393   3.091   4.315 -3.2780  0.6874  0.7508
    1PA    C114 7620   0.540   2.983   4.420 -0.3712  0.1501  0.3849
    1PA    H14R 7621   0.578   3.067   4.478 -1.1145 -0.7398  2.2209
    1PA    H14S 7622   0.548   2.890   4.477 -2.1743 -0.5098 -0.3722
    1PA    C113 7623   0.628   2.967   4.290 -0.3730  0.0973  0.2565
    1PA    H13R 7624   0.601   2.873   4.241  0.8046  0.5836 -1.4080
    1PA    H13S 7625   0.608   3.050   4.221 -0.8693 -1.6025 -1.7777
    1PA    C112 7626   0.774   2.946   4.320 -0.8256  0.1910 -0.1661
    1PA    H12R 7627   0.825   3.039   4.342 -0.1509 -0.0015 -0.8651
    1PA    H12S 7628   0.770   2.881   4.407 -0.7621  0.3828 -0.0199
    1PA    C111 7629   0.842   2.877   4.207 -0.7249 -0.2648 -0.2485
    1PA    H11R 7630   0.806   2.779   4.174 -0.1713 -0.1669 -1.1951
    1PA    H11S 7631   0.841   2.948   4.124 -0.8227  2.0672  1.6710
    1PA    C110 7632   0.998   2.847   4.231 -0.1692 -0.2989  0.0826
    1PA    H10R 7633   1.006   2.793   4.326 -0.0338 -0.8522 -0.2387
    1PA    H10S 7634   1.038   2.781   4.154 -0.6642 -0.0855 -0.3659
    1PA     C19 7635   1.088   2.974   4.254 -0.5301 -0.3119  0.0411
    1PA     H9R 7636   1.030   3.045   4.313 -1.5818 -2.2350  1.4123
    1PA     H9S 7637   1.167   2.941   4.322 -1.1878 -1.7153  0.1579
    1PA     C18 7638   1.133   3.036   4.121  0.0824 -0.6371 -0.3810
    1PA     H8R 7639   1.042   3.068   4.070  0.8844  2.8197  0.1277
    1PA     H8S 7640   1.182   3.130   4.147 -3.4003  0.0690  5.3806
    1PA     C17 7641   1.216   2.957   4.021  0.1194 -0.9865  0.5291
    1PA     H7R 7642   1.284   2.893   4.078  0.4177 -0.8540  0.3218
    1PA     H7S 7643   1.158   2.893   3.955  0.5982 -0.0067 -0.8852
    1PA     C16 7644   1.292   3.049   3.925  0.0166 -0.2583 -0.1083
    1PA     H6R 7645   1.212   3.113   3.886  0.9967  0.8008 -0.4515
    1PA     H6S 7646   1.358   3.122   3.973  0.8817 -0.1759 -1.3657
    1PA     C15 7647   1.351   2.973   3.806 -0.7781 -0.2042 -0.3810
    1PA     H5R 7648   1.295   2.881   3.794 -2.6068  0.7543  0.4446
    1PA     H5S 7649   1.348   3.035   3.716  2.0719 -2.1412 -1.9889
    1PA     C14 7650   1.502   2.940   3.824 -0.0852 -0.0685  0.1764
    1PA     H4R 7651   1.516   2.891   3.920 -1.3928 -1.2911 -0.2229
    1PA     H4S 7652   1.530   2.873   3.742  0.0467  1.1424 -0.8136
    1PA     C13 7653   1.598   3.059   3.813  0.1491  0.1757 -0.2362
    1PA     H3R 7654   1.584   3.130   3.895 -3.5396 -1.9046  1.1551
    1PA     H3S 7655   1.697   3.027   3.845  1.1091  0.5810 -2.5824
    1PA     C12 7656   1.609   3.127   3.676 -0.5343  0.0420  0.2260
    1PA     H2R 7657   1.516   3.175   3.646  0.7055  0.7037 -2.9170
    1PA     H2S 7658   1.682   3.209   3.674 -0.5573  0.0554 -0.1640
    1PC     C11 7659   1.642   3.035   3.561  0.2629 -0.1207 -0.1059
    1PC     O12 7660   1.753   3.023   3.511 -0.4615 -0.2166  0.5354
    1PC     O11 7661   1.527   2.978   3.520  0.3218  0.0351 -0.3833
    1PC      C1 7662   1.519   2.925   3.380 -0.5218 -0.5870 -1.2252
    1PC      HR 7663   1.534   3.007   3.309 -2.7285  0.0252 -1.0444
    1PC      HS 7664   1.585   2.839   3.368  0.6713  0.0039  0.6431
    1PC      C2 7665   1.372   2.881   3.337 -0.5482 -0.3582  0.4934
    1PC      HX 7666   1.389   2.842   3.237  0.8541  2.5895 -0.5207
    1PC      C3 7667   1.282   3.003   3.333 -0.9213 -0.2591 -0.4383
    1PC      HA 7668   1.263   3.035   3.436 -1.9788 -0.0746 -0.6834
    1PC      HB 7669   1.322   3.091   3.282 -2.7356  0.5933 -0.4664
    1PC     O31 7670   1.153   2.971   3.278  0.1290  0.4613  0.4822
    1PC     P31 7671   1.137   2.965   3.115 -0.2059  0.0532 -0.1171
    1PC     O32 7672   1.192   2.821   3.081  0.0394 -0.0873 -0.1478
    1PC     C31 7673   1.116   2.699   3.124 -0.4352 -0.3701  0.2223
    1PC     H1A 7674   1.179   2.659   3.204  1.4370  3.3468  0.8260
    1PC     H1B 7675   1.018   2.730   3.163 -0.4780 -2.1788  1.6874
    1PC     C32 7676   1.098   2.598   3.009  0.2346 -0.7695  0.0252
    1PC     H2A 7677   1.044   2.512   3.051  0.1278 -0.3647  0.7297
    1PC     H2B 7678   1.043   2.644   2.927 -0.1888 -0.2243  0.6120
    1PC     N31 7679   1.222   2.557   2.943  0.6072  0.9767  0.1615
    1PC     C33 7680   1.338   2.528   3.038 -0.2423 -0.0493 -0.7103
    1PC     H3A 7681   1.362   2.619   3.093 -1.2422  0.4163 -1.0189
    1PC     H3B 7682   1.304   2.454   3.110  1.3490  0.8981  1.1444
    1PC     H3C 7683   1.424   2.493   2.980  1.2235 -1.1747  1.9620
    1PC     C34 7684   1.186   2.424   2.871 -0.0510  0.7367 -0.4239
    1PC     H4A 7685   1.116   2.447   2.791  0.3065  1.1682 -0.6203
    1PC     H4B 7686   1.278   2.383   2.829 -0.5059 -1.0173  0.2206
    1PC     H4C 7687   1.144   2.349   2.938 -1.3286  0.2275 -1.7411
    1PC     C35 7688   1.260   2.653   2.839  0.3711 -0.4336  0.5829
    1PC     H5A 7689   1.359   2.630   2.801  0.1775 -0.0228 -0.2046
    1PC     H5B 7690   1.260   2.751   2.888  1.9385  0.2662 -0.6946
    1PC     H5C 7691   1.190   2.646   2.755 -0.7744  1.7950  1.2565
    1PC     O33 7692   0.999   2.968   3.076 -0.9397  0.9203 -0.2049
    1PC     O34 7693   1.237   3.065   3.060  0.2306 -0.4188 -0.0994
    1PC     O21 7694   1.316   2.776   3.424  0.3559 -0.0700 -0.0199
    1PC     C21 7695   1.371   2.652   3.422  0.7993 -0.3307  0.1711
    1PC     O22 7696   1.446   2.610   3.337  0.2643 -0.2370  0.7547
    1OL     C12 7697   1.326   2.584   3.545  0.4301  0.4421  0.0154
    1OL     H2R 7698   1.276   2.489   3.522  2.9377 -1.1156  0.5888
    1OL     H2S 7699   1.257   2.645   3.604  0.5496 -0.2285  0.8767
    1OL     C13 7700   1.437   2.554   3.635 -0.1985  0.3454 -0.6198
    1OL     H3R 7701   1.496   2.646   3.639  3.4420 -1.6598 -2.7155
    1OL     H3S 7702   1.504   2.472   3.611  0.9353  0.9818  0.2716
    1OL     C14 7703   1.387   2.539   3.784  0.1986  1.3771 -0.0646
    1OL     H4R 7704   1.354   2.436   3.798  0.7385  1.1856 -0.1791
    1OL     H4S 7705   1.303   2.602   3.813  0.3447  2.3515 -1.6752
    1OL     C15 7706   1.500   2.555   3.887 -0.0711 -0.2245 -0.2303
    1OL     H5R 7707   1.534   2.658   3.889  1.1491 -0.5330 -2.4110
    1OL     H5S 7708   1.586   2.496   3.855  0.6947  1.8967 -2.2989
    1OL     C16 7709   1.459   2.505   4.029 -0.1215  0.0748  0.7222
    1OL     H6R 7710   1.548   2.523   4.089  0.8296  1.4779 -1.0028
    1OL     H6S 7711   1.450   2.396   4.030  0.5685 -0.0145  3.3193
    1OL     C17 7712   1.329   2.569   4.089 -0.3015  0.9928  0.3658
    1OL     H7R 7713   1.241   2.541   4.030  0.8651 -2.0370 -0.1161
    1OL     H7S 7714   1.333   2.677   4.069 -1.5598  0.4533 -3.6708
    1OL     C18 7715   1.306   2.536   4.233 -0.2193  0.1549 -0.4000
    1OL     H8R 7716   1.216   2.590   4.261 -0.4478  1.0161 -2.5708
    1OL     H8S 7717   1.380   2.585   4.296 -0.1386 -1.3534  0.7191
    1OL     C19 7718   1.298   2.384   4.272  0.0425 -0.6918  0.4131
    1OL     H9R 7719   1.370   2.325   4.216 -0.2354  2.0468 -3.2828
    1OL    C110 7720   1.219   2.337   4.369 -0.4346 -0.5984  0.0961
    1OL    H10R 7721   1.225   2.230   4.388 -3.6014 -1.2001 -1.6217
    1OL    C111 7722   1.115   2.407   4.445  0.1448 -0.1893  0.1294
    1OL    H11R 7723   1.032   2.408   4.374  0.8009  0.0924 -0.6482
    1OL    H11S 7724   1.143   2.510   4.468 -0.6992 -0.1741  1.1542
    1OL    C112 7725   1.062   2.345   4.571 -0.2701 -0.0466 -1.0599
    1OL    H12R 7726   1.144   2.334   4.642  0.2051  1.7187 -1.2860
    1OL    H12S 7727   1.031   2.242   4.550  0.0703 -0.3080 -0.3226
    1OL    C113 7728   0.939   2.407   4.634  0.3132 -0.4443 -0.1996
    1OL    H13R 7729   0.973   2.499   4.682  1.2085 -1.7550  1.8350
    1OL    H13S 7730   0.901   2.354   4.721  0.3626  1.6390  1.1666
    1OL    C114 7731   0.819   2.440   4.544  0.9372 -0.4410 -0.3204
    1OL    H14R 7732   0.779   2.345   4.507 -0.4268 -0.3240  0.7598
    1OL    H14S 7733   0.849   2.518   4.473  1.3073 -0.8364 -0.5996
    1OL    C115 7734   0.701   2.508   4.630  0.5218  0.5221  0.1168
    1OL    H15R 7735   0.610   2.502   4.570  0.5369 -2.0256  0.2333
    1OL    H15S 7736   0.722   2.611   4.658 -0.7706  1.5779 -2.4361
    1OL    C116 7737   0.669   2.431   4.761  0.1588 -0.2447  0.3717
    1OL    H16R 7738   0.752   2.445   4.830 -0.9339 -0.6670  1.8152
    1OL    H16S 7739   0.659   2.325   4.737 -4.3413 -0.1970  1.1240
    1OL    C117 7740   0.538   2.479   4.828 -0.0047  0.7091 -0.5205
    1OL    H17R 7741   0.445   2.458   4.773 -0.3975 -0.8315  0.6662
    1OL    H17S 7742   0.546   2.586   4.849  1.3976  0.1303  2.3101
    1OL    C118 7743   0.513   2.408   4.958 -0.3418 -0.2172  0.2629
    1OL    H18R 7744   0.417   2.436   5.003 -1.1808 -0.1910 -1.4393
    1OL    H18S 7745   0.600   2.425   5.022  0.7732  0.3645 -1.3344
    1OL    H18T 7746   0.506   2.299   4.956 -2.4814 -0.1820  2.1592
    1PA    C116 7747   1.767   0.689   5.099  0.0584 -0.2862 -0.4504
    1PA    H16R 7748   1.724   0.609   5.038  0.8108 -0.6472 -0.5288
    1PA    H16S 7749   1.712   0.687   5.193 -1.9345 -1.6755 -1.5754
    1PA    H16T 7750   1.873   0.672   5.119 -0.2439  0.3033  1.9641
    1PA    C115 7751   1.757   0.824   5.028 -0.3412 -0.2632 -0.4500
    1PA    H15R 7752   1.807   0.903   5.085 -0.8320 -1.1275  1.2527
    1PA    H15S 7753   1.797   0.813   4.927  0.4482  0.2026 -0.2036
    1PA    C114 7754   1.605   0.864   5.012 -0.0933 -0.1522 -0.2104
    1PA    H14R 7755   1.559   0.776   4.967  0.4834 -1.1866  1.1307
    1PA    H14S 7756   1.563   0.893   5.108 -0.9060 -0.3469 -0.4952
    1PA    C113 7757   1.589   0.990   4.927 -0.0439  0.1835 -0.1363
    1PA    H13R 7758   1.636   1.076   4.975 -1.9286  2.4882 -2.1251
    1PA    H13S 7759   1.628   0.976   4.826  0.2164 -1.9292  0.2259
    1PA    C112 7760   1.440   1.038   4.937  0.7218  1.0180 -0.2986
    1PA    H12R 7761   1.374   0.989   4.865  1.4206  0.0135 -0.2749
    1PA    H12S 7762   1.413   1.018   5.041  4.1163  2.8885  1.1056
    1PA    C111 7763   1.427   1.186   4.912 -0.3694  0.4583 -1.1772
    1PA    H11R 7764   1.321   1.200   4.891 -0.3104  0.1870 -1.6888
    1PA    H11S 7765   1.457   1.240   5.002  2.0017 -1.4631 -0.7057
    1PA    C110 7766   1.494   1.238   4.783 -0.9814 -0.3613 -0.0611
    1PA    H10R 7767   1.483   1.347   4.783 -1.0333 -0.3629 -0.7017
    1PA    H10S 7768   1.601   1.220   4.780 -1.2251 -1.8773 -0.2646
    1PA     C19 7769   1.436   1.194   4.645 -0.1537  0.5073 -0.1130
    1PA     H9R 7770   1.458   1.089   4.629 -0.5604  0.6303 -1.6026
    1PA     H9S 7771   1.328   1.207   4.644 -0.0689  2.3304  2.2849
    1PA     C18 7772   1.509   1.275   4.532  0.7465  0.0329 -0.1709
    1PA     H8R 7773   1.492   1.381   4.548 -0.7814 -0.2862  0.4642
    1PA     H8S 7774   1.616   1.253   4.535  1.0064  0.6056 -2.7082
    1PA     C17 7775   1.456   1.227   4.392  0.1816 -0.5016  0.2420
    1PA     H7R 7776   1.462   1.118   4.384  0.7590 -0.4365 -0.3605
    1PA     H7S 7777   1.353   1.259   4.380  0.3671  0.1263  0.2954
    1PA     C16 7778   1.543   1.266   4.275  0.0723 -0.0036 -0.0428
    1PA     H6R 7779   1.582   1.368   4.283  1.3253 -0.4494 -0.2421
    1PA     H6S 7780   1.629   1.200   4.266 -0.0474 -0.1027 -0.4809
    1PA     C15 7781   1.456   1.255   4.146 -0.2684  0.5330 -0.2923
    1PA     H5R 7782   1.412   1.156   4.141  1.1530 -0.1284 -0.2659
    1PA     H5S 7783   1.372   1.324   4.158  0.6232  1.6998 -0.6023
    1PA     C14 7784   1.538   1.303   4.027 -0.0426 -0.1122  0.2102
    1PA     H4R 7785   1.573   1.405   4.046  1.7299 -0.1059 -2.4766
    1PA     H4S 7786   1.629   1.243   4.025 -0.4191 -0.6783 -0.6929
    1PA     C13 7787   1.447   1.317   3.905  0.2880  0.4814  0.4656
    1PA     H3R 7788   1.352   1.364   3.931  0.0153 -0.3702  1.0749
    1PA     H3S 7789   1.504   1.377   3.835  3.4755 -0.5854  1.9405
    1PA     C12 7790   1.419   1.187   3.828 -0.2502  0.3353  1.0231
    1PA     H2R 7791   1.497   1.111   3.822  0.0123  0.6216  0.7532
    1PA     H2S 7792   1.340   1.134   3.881 -1.5516 -0.5800 -1.6763
    1PC     C11 7793   1.360   1.216   3.694 -0.1947  0.1722 -0.6817
    1PC     O12 7794   1.242   1.215   3.672  0.4226  0.2751  0.1358
    1PC     O11 7795   1.456   1.241   3.607 -0.3347 -0.3423  0.5806
    1PC      C1 7796   1.418   1.281   3.475 -0.7855 -0.2111 -0.6418
    1PC      HR 7797   1.369   1.195   3.428  0.1760 -1.8794  1.2760
    1PC      HS 7798   1.359   1.373   3.482 -3.0569 -1.5902 -0.3189
    1PC      C2 7799   1.547   1.323   3.391 -0.3838 -0.0375 -0.3715
    1PC      HX 7800   1.515   1.376   3.301 -0.4834 -1.0194 -0.9317
    1PC      C3 7801   1.629   1.198   3.348 -0.4033  0.6242  0.4703
    1PC      HA 7802   1.681   1.171   3.441  3.0093  3.7254 -0.2755
    1PC      HB 7803   1.570   1.118   3.304  0.2126 -1.2152  2.8009
    1PC     O31 7804   1.733   1.233   3.255  0.0589 -0.3783  0.0871
    1PC     P31 7805   1.697   1.249   3.089 -0.1318 -0.0971  0.0169
    1PC     O32 7806   1.626   1.393   3.084  0.0977 -0.2505  0.1887
    1PC     C31 7807   1.703   1.519   3.072  0.0779  1.1603 -0.3844
    1PC     H1A 7808   1.761   1.545   3.161 -1.9438  1.3621  0.9478
    1PC     H1B 7809   1.777   1.509   2.992 -0.4494 -2.9354 -0.5574
    1PC     C32 7810   1.600   1.625   3.045 -0.1614  0.3325 -0.8132
    1PC     H2A 7811   1.559   1.614   2.944 -3.1398  0.8243  0.2496
    1PC     H2B 7812   1.520   1.602   3.115  1.5261 -3.5394  0.0602
    1PC     N31 7813   1.643   1.768   3.071  0.5950 -0.5051  0.6205
    1PC     C33 7814   1.767   1.800   2.995  0.2991 -0.4738 -0.3804
    1PC     H3A 7815   1.797   1.905   3.003  2.3290 -0.8675 -2.1090
    1PC     H3B 7816   1.846   1.735   3.033  1.8322  1.1939 -0.5567
    1PC     H3C 7817   1.740   1.778   2.892 -0.0658 -0.3042 -0.3250
    1PC     C34 7818   1.540   1.855   3.024 -0.5525 -0.2955 -0.0614
    1PC     H4A 7819   1.582   1.956   3.024 -0.5922 -0.2544  1.3683
    1PC     H4B 7820   1.512   1.827   2.923  1.5577 -0.0271 -0.7636
    1PC     H4C 7821   1.458   1.835   3.093 -0.3914 -2.8678 -0.5244
    1PC     C35 7822   1.660   1.804   3.208  0.5453  0.2119 -0.5300
    1PC     H5A 7823   1.569   1.780   3.263  1.0133  0.6008  0.4544
    1PC     H5B 7824   1.687   1.910   3.208 -0.7345  0.5731 -1.9321
    1PC     H5C 7825   1.749   1.754   3.247 -1.1621 -1.3868  1.5860
    1PC     O33 7826   1.823   1.253   3.007  0.2743  0.2327 -0.2904
    1PC     O34 7827   1.600   1.147   3.053  0.0929 -0.0215  0.2637
    1PC     O21 7828   1.628   1.414   3.467 -0.9300 -0.2423  0.2939
    1PC     C21 7829   1.587   1.543   3.473  0.8343 -0.5166 -0.3650
    1PC     O22 7830   1.488   1.583   3.410 -0.1087  0.2691  0.0626
    1OL     C12 7831   1.665   1.616   3.578  0.6195 -0.6855 -0.4803
    1OL     H2R 7832   1.707   1.704   3.529 -3.6496  0.7479 -2.0646
    1OL     H2S 7833   1.746   1.555   3.617 -0.0864 -1.4003 -0.1057
    1OL     C13 7834   1.568   1.643   3.693 -0.3105 -0.1477 -0.4378
    1OL     H3R 7835   1.515   1.549   3.706 -0.2494 -0.3674 -1.6942
    1OL     H3S 7836   1.497   1.720   3.659 -0.8903 -0.4690  0.0214
    1OL     C14 7837   1.638   1.678   3.832 -0.1862  0.2019  0.5091
    1OL     H4R 7838   1.679   1.778   3.819  1.1150 -0.1439  1.6939
    1OL     H4S 7839   1.713   1.599   3.839 -0.8059 -1.0047 -3.5050
    1OL     C15 7840   1.536   1.668   3.949 -0.2359  0.5561 -1.2554
    1OL     H5R 7841   1.490   1.569   3.947  0.9043 -0.0586  0.8277
    1OL     H5S 7842   1.456   1.742   3.937 -0.7664 -0.0591 -1.5955
    1OL     C16 7843   1.598   1.692   4.084 -0.3180  0.7881  0.1267
    1OL     H6R 7844   1.652   1.785   4.068  0.3242  0.3791 -0.1378
    1OL     H6S 7845   1.671   1.615   4.108 -0.4812 -0.5795 -3.2498
    1OL     C17 7846   1.505   1.695   4.206 -0.6089  0.1519 -0.0981
    1OL     H7R 7847   1.460   1.597   4.226 -0.1022 -0.3349 -1.2127
    1OL     H7S 7848   1.432   1.771   4.178 -0.5988 -0.3128 -1.4605
    1OL     C18 7849   1.590   1.737   4.321 -0.2780 -0.3516 -0.5742
    1OL     H8R 7850   1.646   1.828   4.297 -0.1198 -0.8990 -2.3977
    1OL     H8S 7851   1.669   1.665   4.343 -0.8474 -0.7279  0.2805
    1OL     C19 7852   1.504   1.761   4.443 -0.0843 -0.6876 -0.2194
    1OL     H9R 7853   1.461   1.669   4.483 -0.2012 -0.0806  1.1147
    1OL    C110 7854   1.486   1.872   4.514  0.7468 -1.0702  0.1551
    1OL    H10R 7855   1.416   1.878   4.597  0.5605  2.1316 -0.1067
    1OL    C111 7856   1.550   2.008   4.478  0.0622 -0.1052  0.0311
    1OL    H11R 7857   1.597   1.990   4.381  0.0453 -1.1199  0.1978
    1OL    H11S 7858   1.630   2.027   4.550  0.1989  1.3527 -0.4690
    1OL    C112 7859   1.455   2.129   4.479  0.6398  0.4522  1.2013
    1OL    H12R 7860   1.367   2.105   4.419 -0.3213  1.3445  2.1881
    1OL    H12S 7861   1.510   2.212   4.436  0.9309  0.5963  1.8407
    1OL    C113 7862   1.411   2.176   4.622  0.9264 -0.5216 -0.0407
    1OL    H13R 7863   1.350   2.094   4.660  1.0554  0.0163  1.4015
    1OL    H13S 7864   1.341   2.259   4.609  0.8177 -0.6684 -0.3839
    1OL    C114 7865   1.507   2.222   4.724  0.6053 -0.3853 -0.2959
    1OL    H14R 7866   1.587   2.279   4.678 -0.3968  0.2420 -1.3236
    1OL    H14S 7867   1.544   2.129   4.768 -1.6070 -0.6147  1.2701
    1OL    C115 7868   1.454   2.329   4.826  0.2091  0.1317  0.2436
    1OL    H15R 7869   1.405   2.410   4.773  1.7503  2.1653  1.7729
    1OL    H15S 7870   1.534   2.370   4.888 -1.1512  1.1770  1.3596
    1OL    C116 7871   1.352   2.277   4.926 -0.4489  0.1616  0.3218
    1OL    H16R 7872   1.400   2.198   4.983  1.3830  0.7857 -0.2893
    1OL    H16S 7873   1.277   2.221   4.869  1.4723 -0.8534 -1.3371
    1OL    C117 7874   1.302   2.388   5.020  0.2461 -0.3389  0.0034
    1OL    H17R 7875   1.245   2.471   4.977  0.6749 -0.5433 -0.9983
    1OL    H17S 7876   1.390   2.437   5.062  0.1239  0.3167 -0.4898
    1OL    C118 7877   1.223   2.312   5.129  0.4073 -0.0121  0.3748
    1OL    H18R 7878   1.166   2.389   5.181  0.4152  0.8289 -0.8360
    1OL    H18S 7879   1.295   2.259   5.192  0.1554 -0.7165  0.0779
    1OL    H18T 7880   1.158   2.233   5.091  0.3148  0.3545 -0.2322
    1PA    C116 7881   2.918   0.859   4.748  0.0360 -0.0921  0.4933
    1PA    H16R 7882   2.921   0.812   4.649  2.9787 -0.1146  0.5110
    1PA    H16S 7883   3.019   0.890   4.776 -0.2729  1.5545 -0.1016
    1PA    H16T 7884   2.854   0.946   4.732  0.4046 -0.0682 -1.0195
    1PA    C115 7885   2.851   0.777   4.867 -0.5522  0.7445 -0.0190
    1PA    H15R 7886   2.919   0.693   4.883 -0.3056  1.0552  0.5954
    1PA    H15S 7887   2.857   0.845   4.952  3.0774  1.9720 -1.0868
    1PA    C114 7888   2.707   0.721   4.845  0.3284  0.1396  0.6056
    1PA    H14R 7889   2.669   0.681   4.939  1.8927  1.5701  1.9075
    1PA    H14S 7890   2.637   0.802   4.827 -1.4492 -1.5919 -0.7380
    1PA    C113 7891   2.687   0.624   4.731  0.6644  0.1947  0.3509
    1PA    H13R 7892   2.727   0.669   4.639  2.1963  0.8181  1.2725
    1PA    H13S 7893   2.734   0.528   4.754 -0.5379 -0.1603  1.3763
    1PA    C112 7894   2.539   0.597   4.695 -0.1151 -0.1238  0.0701
    1PA    H12R 7895   2.534   0.517   4.621  0.9752 -1.0687  0.9773
    1PA    H12S 7896   2.485   0.567   4.785  1.4278 -1.3435  0.6270
    1PA    C111 7897   2.459   0.713   4.628 -0.6266  0.5113  0.4501
    1PA    H11R 7898   2.352   0.693   4.638  0.0027 -3.5850  0.6151
    1PA    H11S 7899   2.487   0.809   4.672 -3.6003  1.2285  0.9842
    1PA    C110 7900   2.482   0.726   4.477 -0.3251 -0.0801  0.6737
    1PA    H10R 7901   2.453   0.827   4.449  0.2844  0.2827  1.3254
    1PA    H10S 7902   2.586   0.713   4.446 -0.8461 -0.5603 -0.9736
    1PA     C19 7903   2.403   0.624   4.398 -0.4824 -0.1834  0.5743
    1PA     H9R 7904   2.472   0.540   4.385  0.6011  0.7631 -0.1058
    1PA     H9S 7905   2.313   0.595   4.452 -1.5185  0.1515 -0.9245
    1PA     C18 7906   2.379   0.683   4.258 -0.3050 -0.0395 -0.0032
    1PA     H8R 7907   2.319   0.611   4.202 -0.5285  1.4434 -1.7819
    1PA     H8S 7908   2.325   0.776   4.276 -0.4439 -0.2728  0.8068
    1PA     C17 7909   2.502   0.719   4.167  0.4166  0.1453  0.3820
    1PA     H7R 7910   2.465   0.793   4.096 -2.5563 -0.7845  0.7945
    1PA     H7S 7911   2.580   0.775   4.219 -0.5042  1.8944 -0.0376
    1PA     C16 7912   2.557   0.596   4.090 -0.5783 -0.2227  0.3817
    1PA     H6R 7913   2.622   0.541   4.158 -0.2583  0.6451  0.7998
    1PA     H6S 7914   2.474   0.535   4.054 -0.6582 -0.0360  0.2487
    1PA     C15 7915   2.658   0.642   3.974 -0.2202  0.2419 -0.3964
    1PA     H5R 7916   2.602   0.693   3.896  0.5473  0.2310 -0.9574
    1PA     H5S 7917   2.729   0.712   4.019 -0.0255  0.9896 -1.8243
    1PA     C14 7918   2.729   0.528   3.902 -0.3348  0.2816 -0.5293
    1PA     H4R 7919   2.650   0.456   3.880  0.0508  0.2154 -1.8111
    1PA     H4S 7920   2.769   0.557   3.804  1.4018  0.4527  0.1887
    1PA     C13 7921   2.843   0.452   3.984 -0.3785  0.5053 -0.0151
    1PA     H3R 7922   2.918   0.522   4.022  0.0908 -0.0653  0.1362
    1PA     H3S 7923   2.801   0.405   4.074  0.4872  0.8627  0.5938
    1PA     C12 7924   2.906   0.334   3.916  0.5432 -0.2717 -0.3622
    1PA     H2R 7925   2.981   0.356   3.840  0.9134 -1.6897 -0.4417
    1PA     H2S 7926   2.973   0.292   3.991  1.8049  3.3379  0.7522
    1PC     C11 7927   2.802   0.231   3.861 -0.7833  0.0435 -0.5144
    1PC     O12 7928   2.716   0.180   3.923  0.3015 -0.3344  0.3518
    1PC     O11 7929   2.810   0.231   3.729  0.0500  0.2746 -0.2770
    1PC      C1 7930   2.704   0.163   3.653  0.1483 -0.6200 -0.0774
    1PC      HR 7931   2.750   0.124   3.562 -1.5869  0.2284 -1.3916
    1PC      HS 7932   2.659   0.085   3.714  1.2328 -0.4658  0.9519
    1PC      C2 7933   2.602   0.255   3.594  0.2361 -0.6048 -0.5119
    1PC      HX 7934   2.530   0.194   3.539 -0.8875  1.1477 -1.0912
    1PC      C3 7935   2.658   0.365   3.509 -0.2352 -1.1210  1.0760
    1PC      HA 7936   2.718   0.440   3.562 -1.8200  0.8820  0.1968
    1PC      HB 7937   2.735   0.333   3.438 -0.8896 -0.9694  0.2855
    1PC     O31 7938   2.547   0.431   3.434  0.1223  0.4945  0.0846
    1PC     P31 7939   2.494   0.383   3.291  0.2853  0.3491  0.1211
    1PC     O32 7940   2.563   0.492   3.195 -0.5224 -0.0852 -0.1475
    1PC     C31 7941   2.518   0.631   3.191 -0.1425 -0.3625  0.7432
    1PC     H1A 7942   2.413   0.640   3.161 -0.3744  0.1367  1.6738
    1PC     H1B 7943   2.538   0.685   3.284 -0.0774  3.4004 -1.2709
    1PC     C32 7944   2.595   0.689   3.073 -0.4657 -0.2892  1.0072
    1PC     H2A 7945   2.595   0.798   3.072  0.4366 -0.2758 -0.2916
    1PC     H2B 7946   2.696   0.651   3.089  0.4065  1.4235 -0.1268
    1PC     N31 7947   2.567   0.656   2.926 -0.0504 -0.1486  0.1554
    1PC     C33 7948   2.617   0.514   2.902 -0.1053 -0.0326 -0.4798
    1PC     H3A 7949   2.567   0.451   2.975  1.8165 -2.5005 -1.1601
    1PC     H3B 7950   2.589   0.480   2.802  1.4093 -0.6237 -0.7322
    1PC     H3C 7951   2.726   0.514   2.911 -0.0861 -0.4826 -0.7055
    1PC     C34 7952   2.431   0.668   2.887 -0.1669 -0.0541  0.5256
    1PC     H4A 7953   2.404   0.773   2.896 -0.9742 -0.2823  0.8050
    1PC     H4B 7954   2.423   0.635   2.783  1.0014  0.3988  0.2732
    1PC     H4C 7955   2.382   0.603   2.959  0.5444 -2.0197 -0.6676
    1PC     C35 7956   2.649   0.740   2.831 -0.2658  0.0688  0.0135
    1PC     H5A 7957   2.614   0.843   2.835  1.8850  0.7985  2.9382
    1PC     H5B 7958   2.638   0.694   2.732  1.3295  0.6787 -0.4781
    1PC     H5C 7959   2.753   0.735   2.864  0.4763  0.7729 -2.0556
    1PC     O33 7960   2.553   0.249   3.263 -0.0305  0.5767 -0.6353
    1PC     O34 7961   2.350   0.394   3.285  0.5304 -0.8683 -0.6770
    1PC     O21 7962   2.530   0.322   3.705 -0.3732 -0.0226 -0.2659
    1PC     C21 7963   2.447   0.236   3.769 -0.1138  0.0937 -0.4789
    1PC     O22 7964   2.420   0.126   3.721 -0.3630 -0.1061 -0.0334
    1OL     C12 7965   2.413   0.295   3.899 -0.0461 -0.8125  0.2037
    1OL     H2R 7966   2.366   0.392   3.880  0.4329 -0.6260 -0.0614
    1OL     H2S 7967   2.504   0.323   3.952  0.4719  0.6073 -1.3364
    1OL     C13 7968   2.329   0.194   3.977 -0.1776  0.0791 -0.6337
    1OL     H3R 7969   2.375   0.095   3.984 -1.1357 -0.5081 -2.2927
    1OL     H3S 7970   2.233   0.177   3.928 -1.5346 -1.0056  2.1385
    1OL     C14 7971   2.283   0.247   4.119 -0.1543 -0.0740 -0.2143
    1OL     H4R 7972   2.212   0.176   4.161  1.1803 -0.4902  1.4403
    1OL     H4S 7973   2.225   0.336   4.092  0.6148  0.4474 -0.1916
    1OL     C15 7974   2.396   0.280   4.220  0.7705 -0.2005 -0.2595
    1OL     H5R 7975   2.347   0.304   4.315 -0.6300  0.9294 -1.2208
    1OL     H5S 7976   2.442   0.373   4.187 -1.5950  1.8340  1.7999
    1OL     C16 7977   2.499   0.174   4.244  0.2503  0.1385  0.6224
    1OL     H6R 7978   2.540   0.127   4.155 -1.0804  0.1865 -0.0469
    1OL     H6S 7979   2.445   0.097   4.300  0.0351 -0.3351 -0.2252
    1OL     C17 7980   2.622   0.212   4.329 -0.1846  0.0640 -0.7131
    1OL     H7R 7981   2.575   0.235   4.425 -2.1705  0.1244 -1.6527
    1OL     H7S 7982   2.657   0.312   4.300  0.0447  0.1254 -0.2371
    1OL     C18 7983   2.745   0.115   4.344  0.5393 -0.0997 -0.7102
    1OL     H8R 7984   2.706   0.014   4.343  2.3041 -0.8246 -0.2164
    1OL     H8S 7985   2.795   0.133   4.440 -1.6057  0.2891  0.4024
    1OL     C19 7986   2.842   0.118   4.232 -0.0290  0.3952 -0.0474
    1OL     H9R 7987   2.802   0.082   4.138 -0.5500 -0.2882  0.4274
    1OL    C110 7988   2.971   0.140   4.237 -0.1774 -0.3850  0.1521
    1OL    H10R 7989   3.029   0.130   4.146 -0.5355 -1.4162  0.0305
    1OL    C111 7990   3.053   0.177   4.364  0.4195 -0.5935  0.1934
    1OL    H11R 7991   3.144   0.119   4.381  1.0740  0.4998  0.4789
    1OL    H11S 7992   2.999   0.156   4.457 -0.2546  2.5136  0.6023
    1OL    C112 7993   3.090   0.328   4.367  0.0138 -0.4311 -0.1044
    1OL    H12R 7994   3.158   0.352   4.285  0.9922  3.8844  1.7153
    1OL    H12S 7995   3.151   0.355   4.453  1.5589  4.4131 -2.3644
    1OL    C113 7996   2.967   0.422   4.349  0.3364  0.2211 -0.1542
    1OL    H13R 7997   2.902   0.438   4.436 -0.6031 -1.7346 -0.4416
    1OL    H13S 7998   2.910   0.398   4.259 -0.3631  0.8106  0.1269
    1OL    C114 7999   3.016   0.562   4.333 -0.6625 -0.1291  0.3133
    1OL    H14R 8000   3.081   0.575   4.247 -0.5714  3.9521  0.8164
    1OL    H14S 8001   3.075   0.595   4.419 -1.7188 -0.3386  1.1475
    1OL    C115 8002   2.899   0.659   4.318  0.4033  0.0147  0.1464
    1OL    H15R 8003   2.817   0.644   4.389  0.0378  0.2921 -0.2043
    1OL    H15S 8004   2.858   0.646   4.217  0.7713 -0.1440  0.0165
    1OL    C116 8005   2.945   0.807   4.337 -0.2328  1.0152  0.2529
    1OL    H16R 8006   3.030   0.827   4.271 -1.9170 -0.0847 -2.4165
    1OL    H16S 8007   2.989   0.822   4.436  0.7721  0.2394 -0.0637
    1OL    C117 8008   2.832   0.904   4.324  0.1622 -0.1232  0.1908
    1OL    H17R 8009   2.760   0.895   4.406 -1.0158  0.7017 -0.7134
    1OL    H17S 8010   2.782   0.898   4.227 -1.1710 -0.2915  0.8646
    1OL    C118 8011   2.898   1.051   4.331  0.4579 -0.5249  0.4158
    1OL    H18R 8012   2.929   1.074   4.433 -0.9824 -1.0508  0.9891
    1OL    H18S 8013   2.819   1.125   4.314  1.5766  0.7892  0.7101
    1OL    H18T 8014   2.978   1.063   4.257 -0.4284 -0.5253 -0.5635
    1PA    C116 8015   1.966   3.176   4.846 -0.0757 -0.1587 -0.2900
    1PA    H16R 8016   1.948   3.244   4.929  0.0961  0.8744 -1.0783
    1PA    H16S 8017   2.033   3.217   4.769  1.5360 -0.6635  0.7898
    1PA    H16T 8018   2.024   3.092   4.885  0.5512  1.2420  1.9223
    1PA    C115 8019   1.826   3.141   4.804 -0.1666  0.0101 -0.1596
    1PA    H15R 8020   1.823   3.047   4.748 -0.0516  0.0046 -0.1563
    1PA    H15S 8021   1.768   3.133   4.896 -0.5868 -4.2105 -0.6170
    1PA    C114 8022   1.763   3.242   4.704  0.3001 -0.1051 -0.0346
    1PA    H14R 8023   1.677   3.190   4.662 -1.0865  1.9280  0.1385
    1PA    H14S 8024   1.715   3.326   4.755 -2.8408 -1.0066 -1.3027
    1PA    C113 8025   1.858   3.282   4.595 -0.2701  0.1309  0.0952
    1PA    H13R 8026   1.935   3.350   4.634  1.0959 -1.5932  0.5240
    1PA    H13S 8027   1.911   3.190   4.572 -0.0290  0.0830  0.7908
    1PA    C112 8028   1.793   3.348   4.470  0.6441 -0.4782  0.0819
    1PA    H12R 8029   1.736   3.265   4.430  1.1916 -0.4406 -0.8156
    1PA    H12S 8030   1.726   3.429   4.499  0.5666 -0.1387 -1.0038
    1PA    C111 8031   1.896   3.399   4.365 -0.3075 -0.3320 -0.4977
    1PA    H11R 8032   1.958   3.475   4.413 -1.7057  0.0832  0.7408
    1PA    H11S 8033   1.969   3.326   4.329  0.6260 -0.1000  0.8584
    1PA    C110 8034   1.830   3.464   4.246 -0.3340  0.3351 -0.2938
    1PA    H10R 8035   1.777   3.384   4.194  0.3265 -0.1586 -0.2186
    1PA    H10S 8036   1.756   3.540   4.273 -0.9532 -0.5659  0.6249
    1PA     C19 8037   1.935   3.521   4.149  0.1662 -0.0652 -0.8441
    1PA     H9R 8038   1.871   3.579   4.082  0.0571  0.2732 -0.4549
    1PA     H9S 8039   2.005   3.587   4.202 -1.3888 -0.0860  1.3908
    1PA     C18 8040   2.013   3.419   4.063  0.0515  1.4647  0.0590
    1PA     H8R 8041   2.038   3.334   4.128 -1.4132  2.3467  1.8845
    1PA     H8S 8042   1.937   3.375   3.998  0.8493 -2.1633  1.3507
    1PA     C17 8043   2.141   3.469   3.990  0.1536  0.0991 -0.1139
    1PA     H7R 8044   2.211   3.505   4.065  1.4286 -1.4901 -0.4840
    1PA     H7S 8045   2.187   3.384   3.939 -2.1939 -0.3424 -1.6815
    1PA     C16 8046   2.111   3.582   3.893 -0.2160 -0.9393 -0.1102
    1PA     H6R 8047   2.076   3.668   3.952 -1.2213 -0.6608 -1.0700
    1PA     H6S 8048   2.203   3.622   3.851  0.4903  0.1300  2.2802
    1PA     C15 8049   2.009   3.556   3.778  0.6550 -0.0042  0.0680
    1PA     H5R 8050   1.911   3.530   3.819  1.1351 -2.4670 -0.1848
    1PA     H5S 8051   1.988   3.650   3.727 -0.0942 -0.1686  0.0632
    1PA     C14 8052   2.051   3.449   3.673 -1.3536 -0.0177 -0.7343
    1PA     H4R 8053   2.068   3.359   3.731  1.8593  0.6004 -0.4923
    1PA     H4S 8054   1.976   3.434   3.595 -1.0329  0.5794 -1.1696
    1PA     C13 8055   2.186   3.483   3.603  0.2020 -0.3527  0.2863
    1PA     H3R 8056   2.266   3.489   3.677 -0.6165 -0.1139  1.1759
    1PA     H3S 8057   2.218   3.404   3.535 -1.6787 -1.1882  0.2894
    1PA     C12 8058   2.169   3.615   3.527 -0.6422  0.2573 -0.0503
    1PA     H2R 8059   2.152   3.698   3.595 -2.7371 -1.7349  2.0280
    1PA     H2S 8060   2.263   3.633   3.475  0.2612  0.7199  1.6635
    1PC     C11 8061   2.069   3.617   3.420 -0.3070 -0.3390 -0.1742
    1PC     O12 8062   2.080   3.538   3.327 -0.0370  0.0185 -0.2073
    1PC     O11 8063   1.976   3.710   3.433  0.6209  0.1948 -0.1425
    1PC      C1 8064   1.887   3.725   3.318  0.1061 -0.7805 -0.0767
    1PC      HR 8065   1.847   3.827   3.315 -1.3256 -1.3225 -3.2022
    1PC      HS 8066   1.939   3.711   3.223  0.8032 -0.2766  0.2194
    1PC      C2 8067   1.769   3.627   3.318 -0.1630 -0.9472  0.4485
    1PC      HX 8068   1.816   3.528   3.323 -0.0399 -0.9453 -0.4316
    1PC      C3 8069   1.692   3.644   3.185 -0.6576  0.1308 -0.2802
    1PC      HA 8070   1.652   3.745   3.170  1.0203  0.6674 -1.4003
    1PC      HB 8071   1.766   3.651   3.105 -0.8774  1.9471 -0.3830
    1PC     O31 8072   1.594   3.536   3.168 -0.6218  0.4520  0.4071
    1PC     P31 8073   1.572   3.460   3.033 -0.0721 -0.3463  0.5188
    1PC     O32 8074   1.500   3.560   2.942  0.1157  0.0645  0.0799
    1PC     C31 8075   1.574   3.612   2.829  0.6746  0.5674 -0.4970
    1PC     H1A 8076   1.667   3.656   2.867  1.0660  0.7686 -1.6571
    1PC     H1B 8077   1.576   3.526   2.763  0.3945  1.6119 -1.9058
    1PC     C32 8078   1.488   3.719   2.758 -0.1402 -1.1673  0.5885
    1PC     H2A 8079   1.461   3.802   2.825  2.9176  1.6199 -1.3092
    1PC     H2B 8080   1.557   3.772   2.692  0.2359 -0.9702  1.1312
    1PC     N31 8081   1.361   3.681   2.686 -0.2477  0.2753  0.4317
    1PC     C33 8082   1.244   3.670   2.776 -0.2475  0.0118 -0.2544
    1PC     H3A 8083   1.157   3.651   2.713 -0.3093  1.4281 -0.6349
    1PC     H3B 8084   1.274   3.591   2.845  0.9293  0.8150  0.1826
    1PC     H3C 8085   1.225   3.760   2.835  0.9283  0.2548 -0.2244
    1PC     C34 8086   1.333   3.785   2.581  0.1434 -0.4662 -0.2659
    1PC     H4A 8087   1.250   3.753   2.517 -0.7163 -1.2090  1.1678
    1PC     H4B 8088   1.327   3.883   2.628  0.7360 -1.4381  1.9437
    1PC     H4C 8089   1.424   3.791   2.522  1.4875 -0.8997  1.6779
    1PC     C35 8090   1.375   3.549   2.606 -0.9774  0.6361  0.6779
    1PC     H5A 8091   1.420   3.473   2.669  2.4725  2.1804  0.3387
    1PC     H5B 8092   1.449   3.561   2.526 -1.4559  0.0140  0.1284
    1PC     H5C 8093   1.278   3.513   2.572 -0.6143 -0.8743  1.1677
    1PC     O33 8094   1.712   3.446   2.979 -0.1182 -0.0309  1.1871
    1PC     O34 8095   1.488   3.343   3.054  0.6527  0.9507  0.1662
    1PC     O21 8096   1.678   3.660   3.429 -0.4171  0.4513  0.4344
    1PC     C21 8097   1.681   3.576   3.532 -0.5809 -0.3892  0.5171
    1PC     O22 8098   1.759   3.481   3.551 -0.0787 -0.3097 -0.1514
    1OL     C12 8099   1.559   3.595   3.616 -0.6173  0.0202  0.1761
    1OL     H2R 8100   1.466   3.570   3.565 -1.1665  1.7255  0.2928
    1OL     H2S 8101   1.535   3.701   3.622 -0.1625  0.2197 -1.1343
    1OL     C13 8102   1.570   3.526   3.756 -0.0666  0.0699  0.5939
    1OL     H3R 8103   1.659   3.560   3.810 -0.3012 -0.0516  1.0605
    1OL     H3S 8104   1.579   3.418   3.742  1.9076  0.0147  1.9057
    1OL     C14 8105   1.449   3.559   3.841 -0.2543  0.0683 -0.1645
    1OL     H4R 8106   1.425   3.478   3.911  0.2802 -0.0223 -0.0862
    1OL     H4S 8107   1.359   3.570   3.781 -1.3179 -1.0691  1.1305
    1OL     C15 8108   1.465   3.689   3.922  0.4634 -0.4584 -0.4782
    1OL     H5R 8109   1.450   3.765   3.845 -0.5581 -1.3759 -1.2038
    1OL     H5S 8110   1.566   3.711   3.958 -0.1278  2.8352 -0.5313
    1OL     C16 8111   1.363   3.729   4.024  0.0733 -0.0439 -0.0963
    1OL     H6R 8112   1.266   3.700   3.983 -0.4234  0.8224  0.4268
    1OL     H6S 8113   1.366   3.838   4.031  0.8723  0.0603 -1.6613
    1OL     C17 8114   1.368   3.661   4.165 -0.0924  0.1593  0.8067
    1OL     H7R 8115   1.361   3.554   4.145  0.4626  0.0721  1.0637
    1OL     H7S 8116   1.285   3.694   4.228 -0.6788  1.7746 -0.7116
    1OL     C18 8117   1.494   3.690   4.249  0.6206  0.1221  0.2030
    1OL     H8R 8118   1.587   3.685   4.192 -0.9921  0.1867 -2.5905
    1OL     H8S 8119   1.500   3.615   4.329 -1.2564  0.4638  0.7141
    1OL     C19 8120   1.500   3.834   4.299 -0.4708 -0.2512  0.0313
    1OL     H9R 8121   1.480   3.912   4.226 -3.0552 -0.2858  0.5958
    1OL    C110 8122   1.540   3.871   4.420  0.4964  0.1078 -0.4412
    1OL    H10R 8123   1.546   3.979   4.435 -1.6043  0.1850  0.2494
    1OL    C111 8124   1.562   3.787   4.540  0.3253 -0.4093 -0.2901
    1OL    H11R 8125   1.545   3.683   4.514  0.7957 -0.2726 -1.1625
    1OL    H11S 8126   1.490   3.820   4.615 -1.5918 -0.8372 -1.8466
    1OL    C112 8127   1.706   3.806   4.594  0.7465  0.5181 -0.4068
    1OL    H12R 8128   1.715   3.908   4.633 -1.4403  1.0964 -1.2735
    1OL    H12S 8129   1.780   3.791   4.514  0.8942  1.1342 -0.3888
    1OL    C113 8130   1.737   3.717   4.711 -1.1038  0.3398 -0.1397
    1OL    H13R 8131   1.712   3.615   4.679 -1.1915  0.0100  0.9559
    1OL    H13S 8132   1.668   3.740   4.792 -0.9040 -1.5727  0.6259
    1OL    C114 8133   1.886   3.725   4.751 -0.1828 -0.5231  0.3571
    1OL    H14R 8134   1.906   3.826   4.787  2.4064 -0.2870 -1.4513
    1OL    H14S 8135   1.927   3.720   4.649 -2.0159  2.3148 -0.6501
    1OL    C115 8136   1.938   3.613   4.837 -0.5294 -0.4239 -0.3957
    1OL    H15R 8137   2.041   3.630   4.868 -0.5274 -1.1769  0.0615
    1OL    H15S 8138   1.954   3.525   4.774  2.7301 -0.9517  0.9427
    1OL    C116 8139   1.862   3.587   4.969 -0.1424 -0.3727 -0.1840
    1OL    H16R 8140   1.772   3.526   4.952  0.2249 -1.6470  2.0736
    1OL    H16S 8141   1.832   3.684   5.007 -1.4470 -0.9075  0.2030
    1OL    C117 8142   1.940   3.519   5.084 -0.1844 -0.6279 -0.2777
    1OL    H17R 8143   1.998   3.604   5.121 -0.7122 -0.5482  0.3811
    1OL    H17S 8144   2.002   3.436   5.050  0.1548 -0.4211 -0.1743
    1OL    C118 8145   1.847   3.459   5.186  0.4219 -0.1519 -0.3962
    1OL    H18R 8146   1.794   3.377   5.137  0.4887 -0.0884 -0.5748
    1OL    H18S 8147   1.776   3.539   5.208  2.1362  0.7475  2.4307
    1OL    H18T 8148   1.891   3.443   5.285  1.1988  2.4991 -0.2536
    1PA    C116 8149   4.493   0.866   5.181  0.3193  0.3235 -0.2188
    1PA    H16R 8150   4.559   0.779   5.176  0.5892  0.4570  0.8407
    1PA    H16S 8151   4.403   0.814   5.213  0.6754  0.2434  0.6763
    1PA    H16T 8152   4.534   0.929   5.259  2.2442 -2.2339  0.9778
    1PA    C115 8153   4.489   0.939   5.038  0.2335  0.0454 -0.3485
    1PA    H15R 8154   4.582   0.995   5.030 -0.4428  1.4807  1.0401
    1PA    H15S 8155   4.502   0.865   4.959  2.3097  0.5070 -0.5041
    1PA    C114 8156   4.364   1.024   5.020 -0.2529 -0.1524  0.6691
    1PA    H14R 8157   4.280   0.955   5.029  1.3492 -1.9806  2.4594
    1PA    H14S 8158   4.352   1.088   5.108 -0.4503  0.0347  0.5056
    1PA    C113 8159   4.353   1.109   4.896 -0.4879  0.6454 -0.2744
    1PA    H13R 8160   4.269   1.177   4.913 -0.1180  1.5745 -1.9498
    1PA    H13S 8161   4.446   1.166   4.884 -0.5338  0.8259  0.1880
    1PA    C112 8162   4.325   1.028   4.765  0.6889 -0.7029  0.6158
    1PA    H12R 8163   4.405   0.954   4.768 -1.0478 -2.6841  0.1931
    1PA    H12S 8164   4.232   0.972   4.765  0.7117 -0.7520 -0.5684
    1PA    C111 8165   4.329   1.112   4.635  0.0137 -0.1196  0.2471
    1PA    H11R 8166   4.423   1.168   4.639 -0.2811  0.3316  0.9209
    1PA    H11S 8167   4.339   1.037   4.556  1.6281 -0.1456  0.4364
    1PA    C110 8168   4.214   1.202   4.591 -0.2404 -0.0945  0.2807
    1PA    H10R 8169   4.120   1.149   4.603  0.1117 -0.9892 -0.6909
    1PA    H10S 8170   4.203   1.292   4.652  0.7103  0.3355 -0.1464
    1PA     C19 8171   4.218   1.233   4.440 -0.0900  1.0178 -0.6939
    1PA     H9R 8172   4.314   1.272   4.405  0.1318  0.3210 -0.8681
    1PA     H9S 8173   4.194   1.140   4.387  0.0488  0.0505  0.8890
    1PA     C18 8174   4.110   1.329   4.389  0.4750 -0.1945 -0.7664
    1PA     H8R 8175   4.023   1.325   4.453  0.6317 -0.1452 -0.5493
    1PA     H8S 8176   4.152   1.430   4.394  0.0246 -0.0641  2.2952
    1PA     C17 8177   4.062   1.301   4.240  0.0665 -0.3151 -0.0546
    1PA     H7R 8178   4.011   1.205   4.225 -2.7402  1.1839 -1.0259
    1PA     H7S 8179   3.976   1.367   4.225 -0.4696 -1.1911 -1.0926
    1PA     C16 8180   4.177   1.330   4.140 -0.3614 -0.1998  0.6379
    1PA     H6R 8181   4.226   1.427   4.155 -0.4288 -0.0611  0.0135
    1PA     H6S 8182   4.256   1.255   4.143  0.5411  0.6294 -0.7437
    1PA     C15 8183   4.123   1.325   3.994  1.0649  0.4561 -0.5094
    1PA     H5R 8184   4.100   1.223   3.963  2.7795 -0.1916  0.2230
    1PA     H5S 8185   4.026   1.375   3.999  0.3935 -0.8423  3.9778
    1PA     C14 8186   4.212   1.393   3.889  0.2464  0.6305 -0.6115
    1PA     H4R 8187   4.241   1.490   3.929  3.1123 -0.3467 -0.0914
    1PA     H4S 8188   4.303   1.336   3.869 -0.3304 -0.8775  0.8563
    1PA     C13 8189   4.130   1.399   3.758 -0.7254  0.0991  0.1433
    1PA     H3R 8190   4.128   1.300   3.712 -0.3146 -0.1528  0.6552
    1PA     H3S 8191   4.028   1.434   3.774 -1.0701  0.0245 -1.6339
    1PA     C12 8192   4.200   1.499   3.664 -0.5668 -0.2258 -0.5308
    1PA     H2R 8193   4.220   1.592   3.717  0.8230 -1.0437  0.4675
    1PA     H2S 8194   4.297   1.455   3.638  0.0532  0.0286  1.2039
    1PC     C11 8195   4.127   1.536   3.536  0.2583 -0.2130 -0.0503
    1PC     O12 8196   4.179   1.500   3.431  0.2199 -0.2717 -0.4901
    1PC     O11 8197   4.001   1.581   3.546 -0.0250  0.1096  0.0810
    1PC      C1 8198   3.927   1.633   3.429 -0.4647 -0.4123  0.4081
    1PC      HR 8199   3.950   1.574   3.340 -0.8374  3.3132 -2.4173
    1PC      HS 8200   3.823   1.627   3.459 -0.4752  1.4859  0.8862
    1PC      C2 8201   3.963   1.784   3.397 -0.5660  0.6067 -0.3017
    1PC      HX 8202   3.885   1.821   3.331 -0.0434 -0.7966 -1.7646
    1PC      C3 8203   4.092   1.800   3.319  0.4930  0.0725 -0.3211
    1PC      HA 8204   4.177   1.762   3.377 -0.8660 -1.8469  0.5303
    1PC      HB 8205   4.103   1.739   3.229  1.9795 -0.5634  0.2659
    1PC     O31 8206   4.121   1.935   3.288  0.4100  0.0686  0.4320
    1PC     P31 8207   4.154   1.971   3.139 -0.0215 -0.1527 -0.2861
    1PC     O32 8208   4.303   1.924   3.139  0.1593  0.0086  0.0212
    1PC     C31 8209   4.397   1.987   3.228 -0.3816  0.3802 -0.3736
    1PC     H1A 8210   4.421   2.086   3.191  0.0392  0.2349 -0.4908
    1PC     H1B 8211   4.362   1.991   3.332 -0.1000 -2.1491 -0.1168
    1PC     C32 8212   4.519   1.889   3.234 -0.0870 -0.3454 -0.5388
    1PC     H2A 8213   4.592   1.943   3.295  0.1250 -0.8115 -0.3763
    1PC     H2B 8214   4.489   1.800   3.289 -1.6893 -0.7294 -1.9660
    1PC     N31 8215   4.584   1.837   3.101  0.6441  0.3379  0.3751
    1PC     C33 8216   4.497   1.726   3.057  0.1832 -0.3283  0.4661
    1PC     H3A 8217   4.537   1.687   2.964  0.9553 -1.3816  1.2140
    1PC     H3B 8218   4.509   1.647   3.131  1.5131  0.6377  1.3234
    1PC     H3C 8219   4.395   1.761   3.038 -0.1091 -1.1225  0.5476
    1PC     C34 8220   4.573   1.940   2.995 -0.8535 -0.2067  0.1685
    1PC     H4A 8221   4.469   1.971   2.985 -0.0192  3.2723  1.0602
    1PC     H4B 8222   4.641   2.020   3.024 -0.2895 -0.9389  0.9231
    1PC     H4C 8223   4.611   1.891   2.905 -1.1841  0.2628 -0.2265
    1PC     C35 8224   4.728   1.793   3.118 -0.7504 -0.7144 -0.0169
    1PC     H5A 8225   4.790   1.875   3.155  1.8560 -2.6312  0.1488
    1PC     H5B 8226   4.766   1.754   3.023 -0.1173  1.3020 -0.6512
    1PC     H5C 8227   4.732   1.716   3.194 -1.2594 -1.2446 -0.5206
    1PC     O33 8228   4.078   1.877   3.054  1.0450  0.4581  0.1387
    1PC     O34 8229   4.133   2.113   3.115 -0.2280  0.1106  0.9391
    1PC     O21 8230   3.969   1.860   3.518 -0.1751 -0.4886 -0.1499
    1PC     C21 8231   3.854   1.913   3.569 -0.0355  0.3031 -1.0778
    1PC     O22 8232   3.751   1.914   3.504  0.2961 -0.4259 -0.0265
    1OL     C12 8233   3.874   1.959   3.715  0.3253 -1.3019 -0.1804
    1OL     H2R 8234   3.831   2.059   3.730  1.0558 -0.7340 -1.6362
    1OL     H2S 8235   3.981   1.978   3.730 -0.0271  0.1660  0.7554
    1OL     C13 8236   3.824   1.860   3.814  0.6645  0.4356  0.1718
    1OL     H3R 8237   3.760   1.784   3.768  0.7097  0.4463  0.0921
    1OL     H3S 8238   3.748   1.909   3.876 -0.6237  0.0482 -1.0569
    1OL     C14 8239   3.927   1.783   3.908 -0.7298 -0.1393  0.4473
    1OL     H4R 8240   3.975   1.862   3.966 -0.8334  0.0876  0.2273
    1OL     H4S 8241   3.995   1.722   3.849  0.6673 -0.7096  2.5354
    1OL     C15 8242   3.860   1.696   4.021 -0.0399 -0.3445 -0.5561
    1OL     H5R 8243   3.806   1.613   3.975 -1.1276  0.5127 -0.8804
    1OL     H5S 8244   3.777   1.751   4.067  1.0380 -0.0091  1.0870
    1OL     C16 8245   3.948   1.639   4.130  0.2919 -0.2839  0.0620
    1OL     H6R 8246   4.028   1.594   4.072  0.2177 -0.1677 -0.1313
    1OL     H6S 8247   3.903   1.555   4.184  1.3961 -0.7147  0.3260
    1OL     C17 8248   3.997   1.752   4.218  0.1351  0.0499  0.0785
    1OL     H7R 8249   3.909   1.813   4.239 -0.9023 -1.0816 -0.8071
    1OL     H7S 8250   4.072   1.822   4.178 -0.5326  0.1872 -0.9770
    1OL     C18 8251   4.062   1.699   4.346 -0.1720 -0.1223 -0.5303
    1OL     H8R 8252   4.137   1.771   4.381 -0.9978  0.0204  1.0392
    1OL     H8S 8253   4.121   1.612   4.315  0.3834  0.0459  0.0343
    1OL     C19 8254   3.958   1.658   4.451 -0.3320  0.0752  1.0898
    1OL     H9R 8255   3.873   1.620   4.395  0.1911  1.3868 -0.7082
    1OL    C110 8256   3.964   1.649   4.585  0.0427 -0.1011 -0.1188
    1OL    H10R 8257   3.884   1.615   4.650 -1.1967  0.4117 -1.3427
    1OL    C111 8258   4.087   1.705   4.661  0.3935  0.0777  0.0350
    1OL    H11R 8259   4.045   1.752   4.750  0.3762  1.5349 -0.7053
    1OL    H11S 8260   4.132   1.796   4.621 -1.7129  1.3115  0.3393
    1OL    C112 8261   4.189   1.595   4.687 -0.2629 -0.5108 -0.0349
    1OL    H12R 8262   4.210   1.550   4.590 -3.0029 -1.6278 -0.1978
    1OL    H12S 8263   4.134   1.512   4.733  1.7674 -1.6122  0.5114
    1OL    C113 8264   4.306   1.646   4.772 -0.0682 -0.4260  0.6231
    1OL    H13R 8265   4.268   1.719   4.844  0.0709  0.0897  0.1801
    1OL    H13S 8266   4.376   1.696   4.705  0.8628 -1.4900  0.7766
    1OL    C114 8267   4.370   1.527   4.844 -0.4859  0.0497 -0.3605
    1OL    H14R 8268   4.407   1.457   4.769 -0.6179 -0.6211  0.1915
    1OL    H14S 8269   4.289   1.481   4.901  1.0043 -1.4674  0.6173
    1OL    C115 8270   4.480   1.565   4.939 -0.2122  0.5456  0.1461
    1OL    H15R 8271   4.425   1.624   5.013 -2.0554  1.2299 -1.6752
    1OL    H15S 8272   4.556   1.632   4.897  0.9145 -0.3193  0.7416
    1OL    C116 8273   4.551   1.443   5.007 -0.9044  0.2781 -0.3469
    1OL    H16R 8274   4.593   1.376   4.932  1.2359  1.4370 -0.2552
    1OL    H16S 8275   4.472   1.380   5.047  1.1305 -2.1103  0.0910
    1OL    C117 8276   4.656   1.475   5.111  0.0884  1.1304  0.2715
    1OL    H17R 8277   4.729   1.547   5.073  1.1389 -0.0815 -0.0968
    1OL    H17S 8278   4.710   1.383   5.134  0.3553  1.4752  1.0718
    1OL    C118 8279   4.610   1.526   5.249  0.3277  0.2324  0.4527
    1OL    H18R 8280   4.532   1.601   5.241 -1.3920 -1.3896  1.3479
    1OL    H18S 8281   4.699   1.556   5.305  0.0933  0.7708  0.5395
    1OL    H18T 8282   4.569   1.439   5.300  2.4825  0.4788  2.8323
    1PA    C116 8283   3.642   0.133   5.218 -0.4230 -0.7492  0.0128
    1PA    H16R 8284   3.552   0.082   5.253  1.6522 -3.1143  2.3701
    1PA    H16S 8285   3.668   0.202   5.299  1.0192  0.0464 -1.0754
    1PA    H16T 8286   3.721   0.058   5.211  1.2217  0.8942  0.2918
    1PA    C115 8287   3.629   0.200   5.080 -0.2294  0.0247  0.2108
    1PA    H15R 8288   3.591   0.302   5.095  0.5801  0.3874 -0.1666
    1PA    H15S 8289   3.725   0.211   5.029 -0.3017 -3.1836 -0.8058
    1PA    C114 8290   3.547   0.117   4.979 -0.0061 -0.2891  0.2321
    1PA    H14R 8291   3.440   0.120   5.004 -0.0323 -0.1315  0.1011
    1PA    H14S 8292   3.556   0.167   4.883  1.7383 -2.0712 -0.5863
    1PA    C113 8293   3.598  -0.029   4.957 -0.0334  0.1072  0.7882
    1PA    H13R 8294   3.706  -0.014   4.945 -0.3141  1.5822 -0.1454
    1PA    H13S 8295   3.578  -0.090   5.045 -0.5974 -1.1797 -0.1996
    1PA    C112 8296   3.542  -0.110   4.835  0.0894  0.5653  0.0823
    1PA    H12R 8297   3.586  -0.209   4.838  1.9842  1.3856  1.4296
    1PA    H12S 8298   3.436  -0.133   4.847  0.1346 -1.9334 -3.0350
    1PA    C111 8299   3.571  -0.053   4.695  0.0967  0.1394  0.4068
    1PA    H11R 8300   3.535   0.050   4.691  0.3164  0.2546  1.1786
    1PA    H11S 8301   3.679  -0.042   4.681  0.2668 -0.8465  0.8538
    1PA    C110 8302   3.511  -0.147   4.584 -0.0072 -1.3239 -0.0974
    1PA    H10R 8303   3.555  -0.245   4.607 -3.2122 -2.4955  1.7836
    1PA    H10S 8304   3.403  -0.143   4.600 -0.0710  1.2730 -0.8516
    1PA     C19 8305   3.546  -0.106   4.440  0.8645 -0.0121 -0.0599
    1PA     H9R 8306   3.648  -0.126   4.407  0.3501 -2.0633 -0.5831
    1PA     H9S 8307   3.490  -0.168   4.369  1.7533 -0.1208 -0.6802
    1PA     C18 8308   3.523   0.049   4.422  0.6561  0.1280 -0.3722
    1PA     H8R 8309   3.434   0.077   4.478 -0.3692 -0.7838 -1.5045
    1PA     H8S 8310   3.604   0.109   4.465  1.7069  0.2387 -2.3814
    1PA     C17 8311   3.493   0.083   4.276  0.4461 -0.0601  0.4618
    1PA     H7R 8312   3.462   0.188   4.267 -4.5014 -1.1745  1.8349
    1PA     H7S 8313   3.584   0.071   4.216 -0.3209  0.7932 -0.9333
    1PA     C16 8314   3.376  -0.000   4.211  0.6343 -0.4087  0.1193
    1PA     H6R 8315   3.412  -0.101   4.192  2.0424  0.4338 -2.0493
    1PA     H6S 8316   3.292  -0.008   4.280  0.1467  1.4704 -0.2130
    1PA     C15 8317   3.334   0.075   4.084  0.4640  0.4906 -0.0495
    1PA     H5R 8318   3.296   0.173   4.112 -0.7692  0.5891 -1.9330
    1PA     H5S 8319   3.426   0.091   4.028 -0.3327 -0.9527 -1.8849
    1PA     C14 8320   3.249  -0.021   3.991 -0.0880 -0.3499 -0.3744
    1PA     H4R 8321   3.296  -0.119   3.983 -0.1247 -0.4134  0.1563
    1PA     H4S 8322   3.156  -0.034   4.047  1.6835  0.0460  2.8912
    1PA     C13 8323   3.231   0.040   3.852  0.3084 -0.1960 -0.0590
    1PA     H3R 8324   3.177   0.134   3.863  0.9556  0.3604 -1.3283
    1PA     H3S 8325   3.334   0.056   3.817 -0.3356  2.1547 -1.0384
    1PA     C12 8326   3.148  -0.050   3.763 -0.1097  0.1445  0.4661
    1PA     H2R 8327   3.166  -0.155   3.784 -1.6651  0.0730  1.6565
    1PA     H2S 8328   3.042  -0.027   3.781 -0.3549  0.0446 -0.7641
    1PC     C11 8329   3.174  -0.031   3.612 -0.9896 -0.1547 -0.0976
    1PC     O12 8330   3.081  -0.014   3.537 -0.9161  0.1159 -0.1862
    1PC     O11 8331   3.310  -0.030   3.588 -0.1862  0.0144  0.2786
    1PC      C1 8332   3.346   0.017   3.452 -0.1689 -0.0997  0.3826
    1PC      HR 8333   3.454   0.004   3.443 -0.0480  1.2227 -0.2835
    1PC      HS 8334   3.290  -0.027   3.370 -0.9257  1.7979 -0.1832
    1PC      C2 8335   3.328   0.171   3.443  0.0723  0.1077  0.7756
    1PC      HX 8336   3.221   0.190   3.452  0.0949  0.0971  1.1056
    1PC      C3 8337   3.379   0.222   3.304  0.2960 -0.1932  0.1035
    1PC      HA 8338   3.306   0.203   3.226 -0.2228  1.1007  0.2492
    1PC      HB 8339   3.394   0.330   3.297  0.1511 -0.2263 -0.8542
    1PC     O31 8340   3.507   0.175   3.270 -0.1342 -0.0387  0.2302
    1PC     P31 8341   3.516   0.075   3.141 -0.4562 -0.0023  0.1621
    1PC     O32 8342   3.489  -0.068   3.198 -0.4217  0.4063 -0.2124
    1PC     C31 8343   3.586  -0.148   3.278  0.1614 -0.0733  0.2975
    1PC     H1A 8344   3.659  -0.081   3.323 -1.4558  1.3261  0.9319
    1PC     H1B 8345   3.532  -0.198   3.358 -0.9606  1.0831  0.3032
    1PC     C32 8346   3.666  -0.243   3.186 -0.5020 -0.1743 -0.0108
    1PC     H2A 8347   3.748  -0.189   3.139 -0.5307 -0.6095 -0.5870
    1PC     H2B 8348   3.714  -0.319   3.248 -0.5212 -0.8068 -0.7512
    1PC     N31 8349   3.602  -0.330   3.080  0.2183  0.0039  0.0617
    1PC     C33 8350   3.547  -0.250   2.973  0.0513  0.1277  0.3967
    1PC     H3A 8351   3.619  -0.172   2.950  1.8482 -1.5616  0.0396
    1PC     H3B 8352   3.534  -0.315   2.886  3.3944  1.1617 -1.0586
    1PC     H3C 8353   3.453  -0.206   3.006  0.5569  1.5295  0.0483
    1PC     C34 8354   3.709  -0.415   3.020  0.3368 -0.4288 -0.4579
    1PC     H4A 8355   3.676  -0.469   2.931 -0.0127  0.8180 -1.1134
    1PC     H4B 8356   3.800  -0.357   3.003 -0.1414  0.0463 -1.4468
    1PC     H4C 8357   3.739  -0.491   3.093  2.2785 -0.5647 -1.3189
    1PC     C35 8358   3.494  -0.417   3.141 -0.0281 -0.0132  0.5212
    1PC     H5A 8359   3.523  -0.443   3.243 -0.5958 -1.5746  0.3124
    1PC     H5B 8360   3.488  -0.506   3.078  1.4027 -0.7536  1.3724
    1PC     H5C 8361   3.399  -0.364   3.140 -0.3258 -0.5472 -0.3322
    1PC     O33 8362   3.407   0.099   3.045  0.3672 -0.2680 -0.0192
    1PC     O34 8363   3.657   0.078   3.086  0.3657 -0.3065 -0.7854
    1PC     O21 8364   3.405   0.230   3.556  0.3111  0.2872 -0.1815
    1PC     C21 8365   3.338   0.301   3.651  0.4502  0.2144  0.1760
    1PC     O22 8366   3.219   0.338   3.648 -0.3352  0.0788 -0.3123
    1OL     C12 8367   3.421   0.321   3.771 -1.0944 -0.0857 -0.5374
    1OL     H2R 8368   3.521   0.358   3.747 -0.5499  0.4981  2.2525
    1OL     H2S 8369   3.434   0.227   3.825 -1.3722 -0.1333 -0.5541
    1OL     C13 8370   3.357   0.430   3.868 -0.1025  0.6365 -0.1461
    1OL     H3R 8371   3.265   0.390   3.913  0.8433 -1.6446 -0.0976
    1OL     H3S 8372   3.327   0.518   3.811  1.1583  0.8329 -0.5302
    1OL     C14 8373   3.446   0.475   3.986 -1.4388 -0.0474  0.3607
    1OL     H4R 8374   3.523   0.542   3.949 -2.4364  0.8570 -0.1239
    1OL     H4S 8375   3.484   0.378   4.020  0.4583  1.2904  2.3307
    1OL     C15 8376   3.371   0.549   4.106 -0.0116  0.4371  0.0839
    1OL     H5R 8377   3.339   0.476   4.181  1.0619  0.7298  0.8524
    1OL     H5S 8378   3.280   0.593   4.065 -0.6746  0.5338  1.5723
    1OL     C16 8379   3.445   0.668   4.168 -0.1678  0.0724 -0.2638
    1OL     H6R 8380   3.492   0.736   4.097 -1.5220  1.4235  0.0849
    1OL     H6S 8381   3.533   0.640   4.226  0.6209  1.4897 -0.7401
    1OL     C17 8382   3.342   0.753   4.244 -0.3490  0.1284  0.4253
    1OL     H7R 8383   3.304   0.689   4.323  0.9875 -1.1143  0.1085
    1OL     H7S 8384   3.257   0.778   4.180  0.9129  3.6405 -0.1280
    1OL     C18 8385   3.395   0.882   4.312  0.1662  0.3994  0.0701
    1OL     H8R 8386   3.430   0.946   4.230  0.6735 -1.2083 -1.0193
    1OL     H8S 8387   3.489   0.856   4.361 -0.1703 -1.5452 -0.2206
    1OL     C19 8388   3.300   0.950   4.407 -0.2447  0.1861  0.4172
    1OL     H9R 8389   3.213   0.989   4.354 -1.1605 -0.1239  1.6401
    1OL    C110 8390   3.306   0.959   4.539  0.5136 -0.2078 -0.1819
    1OL    H10R 8391   3.230   1.009   4.598  0.8716  1.0867 -0.7854
    1OL    C111 8392   3.400   0.878   4.617 -0.1815  0.1858  0.3950
    1OL    H11R 8393   3.496   0.929   4.605 -0.4314  1.0598  1.9866
    1OL    H11S 8394   3.404   0.776   4.578 -1.2248  0.4435 -0.4310
    1OL    C112 8395   3.375   0.870   4.771 -0.4229 -0.3734  0.0289
    1OL    H12R 8396   3.269   0.849   4.785 -0.4042 -0.1770  0.4745
    1OL    H12S 8397   3.396   0.969   4.811 -1.3911  1.2484 -3.1269
    1OL    C113 8398   3.462   0.758   4.844 -0.1424 -1.4165 -0.1430
    1OL    H13R 8399   3.562   0.801   4.840 -0.9636  0.5726 -0.2282
    1OL    H13S 8400   3.460   0.674   4.774  0.1343  0.2955 -2.2894
    1OL    C114 8401   3.414   0.720   4.982  1.1544  0.2890  0.1570
    1OL    H14R 8402   3.319   0.668   4.968  1.1012  0.8804 -2.1267
    1OL    H14S 8403   3.400   0.807   5.046  2.0380  0.4494  0.1411
    1OL    C115 8404   3.503   0.616   5.049 -0.1435 -0.3216  0.0844
    1OL    H15R 8405   3.586   0.674   5.088  0.3946 -0.7474 -0.4192
    1OL    H15S 8406   3.537   0.540   4.979  1.9329  0.5577  0.0751
    1OL    C116 8407   3.442   0.563   5.182 -0.2318  0.2570  0.2628
    1OL    H16R 8408   3.388   0.645   5.229  1.6809  1.3677  0.5919
    1OL    H16S 8409   3.520   0.518   5.243 -2.1543 -1.5555  1.5513
    1OL    C117 8410   3.342   0.443   5.163  0.3365  0.2690  0.6834
    1OL    H17R 8411   3.380   0.371   5.090  0.5977  1.4549 -0.3813
    1OL    H17S 8412   3.249   0.492   5.137 -1.0934 -1.8558  1.4957
    1OL    C118 8413   3.327   0.377   5.296  0.4376  0.5566  0.0753
    1OL    H18R 8414   3.347   0.453   5.371 -0.4054  0.7671  0.1015
    1OL    H18S 8415   3.398   0.295   5.310 -1.9891 -1.2962  2.5958
    1OL    H18T 8416   3.222   0.348   5.302 -0.2856  2.4027 -2.1382
    1PA    C116 8417   3.937   4.000   4.900  0.4633 -0.6778  0.2509
    1PA    H16R 8418   3.955   4.058   4.991 -3.1877 -1.7088  1.8381
    1PA    H16S 8419   3.890   3.913   4.945  1.2905 -1.1098  0.2915
    1PA    H16T 8420   3.864   4.047   4.833 -0.4689  1.1806  2.4379
    1PA    C115 8421   4.067   3.968   4.822  0.2836 -0.1575  0.3451
    1PA    H15R 8422   4.107   4.055   4.769 -0.3391  0.5866  1.0684
    1PA    H15S 8423   4.152   3.950   4.887  0.0461  1.6825  1.2300
    1PA    C114 8424   4.043   3.863   4.715  0.1614 -0.2576 -0.0598
    1PA    H14R 8425   3.997   3.779   4.769 -2.3657  0.5881 -0.7266
    1PA    H14S 8426   3.962   3.905   4.654  0.6463  0.4936 -0.2000
    1PA    C113 8427   4.174   3.825   4.638  0.2820 -0.2242 -0.0159
    1PA    H13R 8428   4.225   3.913   4.597 -2.6518  1.3453 -0.6119
    1PA    H13S 8429   4.241   3.775   4.708  1.4240 -3.1444 -2.9257
    1PA    C112 8430   4.146   3.723   4.523 -0.2218  0.5160  1.2292
    1PA    H12R 8431   4.241   3.686   4.483 -0.8093  2.0967 -1.9410
    1PA    H12S 8432   4.082   3.640   4.553 -2.9539  1.7517 -0.7789
    1PA    C111 8433   4.081   3.797   4.408  0.6411  0.0340 -0.1602
    1PA    H11R 8434   3.985   3.834   4.445 -0.3126 -2.0403 -0.4285
    1PA    H11S 8435   4.146   3.876   4.368  1.1416 -1.6493 -2.9728
    1PA    C110 8436   4.047   3.707   4.285  0.3970 -0.8907  0.0413
    1PA    H10R 8437   3.992   3.620   4.319  0.6216 -1.4515 -1.0044
    1PA    H10S 8438   3.974   3.758   4.222 -0.5145 -0.8910  1.0637
    1PA     C19 8439   4.152   3.648   4.194  0.1062  0.2846  0.9779
    1PA     H9R 8440   4.202   3.723   4.132  0.6387  0.1848  1.2806
    1PA     H9S 8441   4.220   3.601   4.265  1.1848  3.0592  1.8872
    1PA     C18 8442   4.084   3.547   4.109 -0.4111 -1.0812 -0.2666
    1PA     H8R 8443   4.022   3.481   4.169 -1.0260  0.4924  0.9037
    1PA     H8S 8444   4.015   3.605   4.047 -0.7468 -1.7109 -0.4877
    1PA     C17 8445   4.190   3.472   4.028  0.1277  1.3153  0.3722
    1PA     H7R 8446   4.253   3.526   3.956  2.3773 -0.3731  0.9609
    1PA     H7S 8447   4.264   3.429   4.095  0.0413  0.8387  0.1645
    1PA     C16 8448   4.137   3.343   3.959 -0.0829 -0.2690 -0.4099
    1PA     H6R 8449   4.223   3.300   3.909 -0.4494 -1.5748  0.0547
    1PA     H6S 8450   4.122   3.262   4.030  1.4308  0.3888  0.7061
    1PA     C15 8451   4.021   3.359   3.866 -0.0330 -0.1338 -0.2764
    1PA     H5R 8452   3.990   3.261   3.831 -0.2447 -0.6902  1.3881
    1PA     H5S 8453   3.941   3.419   3.910 -1.3065 -0.5673 -1.9283
    1PA     C14 8454   4.069   3.437   3.745  0.5901 -0.0029  0.5548
    1PA     H4R 8455   4.100   3.541   3.761  0.8357  0.3615 -1.8621
    1PA     H4S 8456   4.145   3.373   3.700 -2.1361 -2.6786 -0.5580
    1PA     C13 8457   3.956   3.456   3.634  0.4170 -0.1970 -0.1421
    1PA     H3R 8458   3.916   3.360   3.600  1.0402 -0.5543  0.1134
    1PA     H3S 8459   3.871   3.505   3.682  2.2997  1.0742  2.1047
    1PA     C12 8460   4.005   3.540   3.513 -0.2752  0.3555 -0.7473
    1PA     H2R 8461   4.089   3.493   3.461  0.0383  1.8085 -1.6138
    1PA     H2S 8462   3.930   3.541   3.434  1.2077  0.1213 -2.2180
    1PC     C11 8463   4.048   3.678   3.550  0.6626  0.3276  0.2236
    1PC     O12 8464   3.972   3.777   3.572  0.1748  0.0260 -0.1936
    1PC     O11 8465   4.179   3.690   3.544 -0.1226  0.0290 -0.2008
    1PC      C1 8466   4.235   3.823   3.529 -0.4261  0.1121 -0.5325
    1PC      HR 8467   4.204   3.872   3.437  1.0038  0.5905 -0.7824
    1PC      HS 8468   4.193   3.884   3.610  1.5469 -0.5704  1.0964
    1PC      C2 8469   4.385   3.831   3.533  0.3930  0.6612 -0.0882
    1PC      HX 8470   4.423   3.932   3.517  0.0932  1.0800  1.6921
    1PC      C3 8471   4.443   3.737   3.423 -0.0593 -0.6490  0.9939
    1PC      HA 8472   4.515   3.666   3.463  1.0951  0.5213  1.0653
    1PC      HB 8473   4.363   3.679   3.377  1.5869 -1.1040 -1.4569
    1PC     O31 8474   4.497   3.826   3.328  0.0162  0.3792  0.0756
    1PC     P31 8475   4.448   3.817   3.176  0.2520 -0.0519  0.2589
    1PC     O32 8476   4.484   3.671   3.131  0.0166 -0.3597 -0.3554
    1PC     C31 8477   4.616   3.636   3.100  0.7774 -0.4818 -0.1994
    1PC     H1A 8478   4.692   3.688   3.158 -0.4278  1.8024 -0.5731
    1PC     H1B 8479   4.620   3.529   3.123 -2.1918 -0.5478  0.4168
    1PC     C32 8480   4.638   3.670   2.951  0.3193  0.5801 -0.1319
    1PC     H2A 8481   4.629   3.778   2.943 -0.5188  0.6560  1.5495
    1PC     H2B 8482   4.737   3.631   2.924 -1.1839 -3.6357 -0.2362
    1PC     N31 8483   4.545   3.598   2.858  0.3786 -0.1196  0.2674
    1PC     C33 8484   4.406   3.648   2.858 -0.0030  0.1407 -0.1879
    1PC     H3A 8485   4.354   3.595   2.778  1.8070  0.8923 -1.9639
    1PC     H3B 8486   4.348   3.627   2.948 -1.5867  1.6782 -0.7806
    1PC     H3C 8487   4.397   3.755   2.836 -1.0856  0.1329  0.1788
    1PC     C34 8488   4.592   3.633   2.719  0.4609 -0.4748  0.5459
    1PC     H4A 8489   4.532   3.713   2.677  0.7690 -0.2024  0.6235
    1PC     H4B 8490   4.700   3.652   2.718  0.4222 -0.1661  1.5160
    1PC     H4C 8491   4.574   3.545   2.657 -3.4858 -0.7334  1.8230
    1PC     C35 8492   4.548   3.451   2.867  0.3150  0.1274  0.3674
    1PC     H5A 8493   4.468   3.416   2.932  0.9573 -2.6603 -0.2297
    1PC     H5B 8494   4.643   3.427   2.916  0.1670  1.6832  1.5279
    1PC     H5C 8495   4.542   3.406   2.768 -0.0772  0.0243  0.4366
    1PC     O33 8496   4.298   3.832   3.173 -0.2795  0.0715 -0.4150
    1PC     O34 8497   4.535   3.909   3.106  0.3882  0.2598  0.4491
    1PC     O21 8498   4.430   3.772   3.665 -0.0995 -0.6738  0.2151
    1PC     C21 8499   4.431   3.857   3.775  0.7519 -0.1338  0.3957
    1PC     O22 8500   4.390   3.970   3.779  0.0790  0.2788 -0.0487
    1OL     C12 8501   4.496   3.779   3.886  0.2669  0.1449 -0.0127
    1OL     H2R 8502   4.597   3.818   3.898  0.3089  0.5912 -1.6916
    1OL     H2S 8503   4.500   3.673   3.861  1.8205  0.3589 -0.7431
    1OL     C13 8504   4.448   3.807   4.032  0.6852 -0.4837 -0.1507
    1OL     H3R 8505   4.339   3.819   4.037  0.5034 -1.3564 -1.5643
    1OL     H3S 8506   4.481   3.907   4.061 -0.0996 -0.1986 -0.2044
    1OL     C14 8507   4.496   3.704   4.135  0.3214  0.4775 -0.4528
    1OL     H4R 8508   4.599   3.678   4.109  0.2263  0.8071 -1.1918
    1OL     H4S 8509   4.428   3.618   4.129 -1.4847  1.8996 -1.7144
    1OL     C15 8510   4.497   3.770   4.280 -0.3242  0.5249 -1.4294
    1OL     H5R 8511   4.403   3.821   4.299  0.1013  0.9484 -0.3611
    1OL     H5S 8512   4.570   3.852   4.279 -0.1978  0.4491 -4.2682
    1OL     C16 8513   4.529   3.664   4.390 -0.6727  0.4305  0.3142
    1OL     H6R 8514   4.606   3.596   4.354 -0.6098 -0.1836  1.5357
    1OL     H6S 8515   4.443   3.598   4.404 -0.5360  0.1754 -0.0398
    1OL     C17 8516   4.581   3.728   4.526 -0.7290  0.2199  0.6101
    1OL     H7R 8517   4.497   3.785   4.565 -2.6563 -0.7053 -1.9663
    1OL     H7S 8518   4.659   3.800   4.500  0.1225 -1.6098 -2.4334
    1OL     C18 8519   4.626   3.643   4.642  0.0653 -0.1202  0.0751
    1OL     H8R 8520   4.677   3.704   4.717 -2.3344  1.4273  0.5682
    1OL     H8S 8521   4.691   3.563   4.606 -0.8978 -1.2095  0.6713
    1OL     C19 8522   4.509   3.573   4.700 -0.0091  0.0271  0.0576
    1OL     H9R 8523   4.459   3.521   4.618  0.8585  1.9802 -1.8130
    1OL    C110 8524   4.473   3.565   4.825  0.6140 -0.1130  0.5767
    1OL    H10R 8525   4.391   3.506   4.865 -0.0990 -0.0658 -0.7467
    1OL    C111 8526   4.549   3.641   4.937  0.0148  0.3353 -0.4249
    1OL    H11R 8527   4.480   3.689   5.007  0.3151 -0.8629  0.7383
    1OL    H11S 8528   4.620   3.716   4.902 -0.0411  0.6821  0.1829
    1OL    C112 8529   4.620   3.530   5.023  0.2313  0.0920  0.0135
    1OL    H12R 8530   4.687   3.473   4.959 -0.5312 -1.7140  0.7488
    1OL    H12S 8531   4.544   3.456   5.048  1.9353 -2.2650 -1.3795
    1OL    C113 8532   4.698   3.584   5.141 -0.2675 -1.0791 -0.4069
    1OL    H13R 8533   4.633   3.658   5.189 -0.7978 -0.5351 -1.9284
    1OL    H13S 8534   4.781   3.643   5.102 -3.0518  2.5793 -1.3236
    1OL    C114 8535   4.741   3.475   5.235  0.5861  0.1354 -0.1846
    1OL    H14R 8536   4.779   3.394   5.172 -1.3340 -0.9261 -0.0668
    1OL    H14S 8537   4.653   3.437   5.287  0.3327  1.3749  0.3157
    1OL    C115 8538   4.843   3.523   5.339  0.1112  0.5159 -0.1762
    1OL    H15R 8539   4.806   3.609   5.396 -0.7240 -0.1825  0.3599
    1OL    H15S 8540   4.933   3.554   5.287  1.0152  0.4494  1.2897
    1OL    C116 8541   4.873   3.399   5.434 -0.3558 -0.4488 -0.1349
    1OL    H16R 8542   4.906   3.312   5.377  0.0101  0.5799 -1.5638
    1OL    H16S 8543   4.789   3.381   5.501  1.5031  1.2905  2.9085
    1OL    C117 8544   4.993   3.439   5.521 -0.3293 -0.1863 -0.0212
    1OL    H17R 8545   5.072   3.481   5.459 -0.3755 -0.5927 -0.3605
    1OL    H17S 8546   5.034   3.353   5.574  2.0187  0.9093  0.0684
    1OL    C118 8547   4.969   3.554   5.621  0.8477 -0.2475 -0.7796
    1OL    H18R 8548   4.950   3.651   5.574  1.0662  0.9383  1.4198
    1OL    H18S 8549   5.054   3.570   5.687  0.1407  1.0233 -0.1288
    1OL    H18T 8550   4.888   3.520   5.686  0.3538  3.1297  0.6301
    1PA    C116 8551   3.074   5.166   4.660  0.5190  0.9272  0.0735
    1PA    H16R 8552   3.067   5.090   4.581 -2.2162 -1.4105  2.3024
    1PA    H16S 8553   3.132   5.251   4.623  0.4643  0.5855 -0.8399
    1PA    H16T 8554   2.980   5.222   4.657  0.8959  1.5434 -0.3593
    1PA    C115 8555   3.121   5.102   4.791  0.9833 -0.7239 -0.0329
    1PA    H15R 8556   3.227   5.075   4.792  1.1218 -0.2130 -0.1928
    1PA    H15S 8557   3.107   5.190   4.855 -0.7380 -0.3990 -0.8078
    1PA    C114 8558   3.043   4.986   4.847 -0.4754 -0.4344 -0.1929
    1PA    H14R 8559   3.071   4.957   4.948  3.4601 -1.9150 -1.4879
    1PA    H14S 8560   2.937   5.013   4.844  0.3152  3.1925 -0.5874
    1PA    C113 8561   3.065   4.857   4.771 -0.0721 -0.1605 -0.2435
    1PA    H13R 8562   3.013   4.778   4.824 -2.9200  2.2206  0.7807
    1PA    H13S 8563   3.027   4.870   4.669  0.5647  1.7908 -0.2722
    1PA    C112 8564   3.210   4.807   4.775 -0.9432  0.2898  0.2837
    1PA    H12R 8565   3.276   4.882   4.733 -1.1423  0.7053  0.7014
    1PA    H12S 8566   3.235   4.801   4.881 -0.2554  0.2229  0.1157
    1PA    C111 8567   3.210   4.667   4.713  0.2929  0.4970 -0.5729
    1PA    H11R 8568   3.165   4.597   4.783  1.1091 -0.7891 -1.2886
    1PA    H11S 8569   3.149   4.647   4.625 -1.1519 -0.8684  0.6811
    1PA    C110 8570   3.347   4.608   4.668 -0.2204 -0.2784 -0.2086
    1PA    H10R 8571   3.403   4.585   4.759 -1.0094 -0.8666  0.1364
    1PA    H10S 8572   3.335   4.511   4.620  3.0808 -0.8527 -0.1214
    1PA     C19 8573   3.422   4.705   4.570 -0.8879 -0.1369 -0.4187
    1PA     H9R 8574   3.352   4.725   4.489  0.8966 -0.1648 -2.0252
    1PA     H9S 8575   3.434   4.803   4.617  2.6292 -1.4030  1.7550
    1PA     C18 8576   3.548   4.640   4.510 -0.2635  0.6817  0.2339
    1PA     H8R 8577   3.588   4.704   4.432 -0.4993  0.7237  0.1481
    1PA     H8S 8578   3.618   4.617   4.591  0.3679 -0.3919 -0.5932
    1PA     C17 8579   3.520   4.509   4.439  0.0702  0.6378 -0.4052
    1PA     H7R 8580   3.622   4.480   4.411 -0.6844 -2.3742 -0.3953
    1PA     H7S 8581   3.496   4.431   4.511  1.9082  0.0058 -0.4205
    1PA     C16 8582   3.421   4.516   4.319  0.1810 -0.1165 -0.4525
    1PA     H6R 8583   3.409   4.415   4.280 -1.9980 -0.3519  0.6789
    1PA     H6S 8584   3.320   4.540   4.352 -0.4620 -1.3785 -1.4165
    1PA     C15 8585   3.467   4.625   4.220  0.3006 -0.4590 -0.1473
    1PA     H5R 8586   3.447   4.724   4.260 -0.8064 -1.0223  0.7406
    1PA     H5S 8587   3.572   4.619   4.190  0.4810 -0.4959  0.4812
    1PA     C14 8588   3.390   4.635   4.086  0.0576  0.0782  0.1200
    1PA     H4R 8589   3.404   4.538   4.037  0.2512 -0.5238  1.3441
    1PA     H4S 8590   3.284   4.644   4.110 -0.2584 -0.5362 -0.9490
    1PA     C13 8591   3.453   4.741   3.986 -1.2528 -0.7901 -0.2491
    1PA     H3R 8592   3.462   4.834   4.042  0.0869 -0.8414 -0.3458
    1PA     H3S 8593   3.550   4.707   3.950 -0.8071  0.6139 -0.4019
    1PA     C12 8594   3.359   4.767   3.865 -0.2642  0.4541 -0.0865
    1PA     H2R 8595   3.254   4.760   3.892 -0.2590 -1.7281 -0.4374
    1PA     H2S 8596   3.378   4.865   3.822  1.0168  0.9879  1.5682
    1PC     C11 8597   3.389   4.658   3.759 -0.5852 -0.2116  0.0222
    1PC     O12 8598   3.441   4.549   3.777  0.1499 -0.5011 -0.5277
    1PC     O11 8599   3.344   4.701   3.636  0.5038 -0.4786 -0.1187
    1PC      C1 8600   3.359   4.614   3.514  0.6800  0.0454  0.1306
    1PC      HR 8601   3.362   4.686   3.432 -0.2996 -0.0800 -0.0234
    1PC      HS 8602   3.442   4.543   3.521  1.3665  0.8061 -0.1751
    1PC      C2 8603   3.229   4.534   3.504 -0.0407 -0.1182  0.1734
    1PC      HX 8604   3.247   4.471   3.417  0.2887 -1.7945  1.4134
    1PC      C3 8605   3.108   4.617   3.489  0.4111  0.0627  0.2942
    1PC      HA 8606   3.018   4.562   3.516 -0.1223  1.1318  0.7716
    1PC      HB 8607   3.125   4.701   3.558  1.2903 -0.8019  1.1584
    1PC     O31 8608   3.096   4.670   3.353 -0.4412  0.3557  0.3892
    1PC     P31 8609   3.004   4.592   3.244  0.3028 -0.0092 -0.0172
    1PC     O32 8610   3.086   4.466   3.214 -0.4354 -0.2267 -0.0119
    1PC     C31 8611   3.208   4.475   3.136 -0.2118 -0.1432 -0.3058
    1PC     H1A 8612   3.176   4.521   3.042 -2.1418 -0.6796  0.0428
    1PC     H1B 8613   3.286   4.534   3.185 -0.1660  1.0950 -1.7630
    1PC     C32 8614   3.248   4.333   3.106  0.2946 -0.0710  0.0058
    1PC     H2A 8615   3.351   4.331   3.072  1.1347  1.3803  2.2548
    1PC     H2B 8616   3.237   4.279   3.200  0.5489  0.9224  0.6148
    1PC     N31 8617   3.167   4.258   2.995 -0.2747  0.1139 -0.3898
    1PC     C33 8618   3.216   4.305   2.866 -0.5092 -0.5901 -0.2475
    1PC     H3A 8619   3.306   4.366   2.879  0.5094 -1.8971 -0.9259
    1PC     H3B 8620   3.245   4.217   2.809  1.9543 -0.3499  0.5082
    1PC     H3C 8621   3.137   4.364   2.820 -0.5202 -1.0769 -0.8595
    1PC     C34 8622   3.203   4.112   3.003 -0.4893  0.5026  0.4988
    1PC     H4A 8623   3.306   4.103   2.970 -0.7969 -0.7708 -0.1752
    1PC     H4B 8624   3.190   4.085   3.108 -0.8334 -0.2786  0.2641
    1PC     H4C 8625   3.148   4.067   2.920 -0.9547  0.5392  0.7851
    1PC     C35 8626   3.020   4.277   3.011  0.4844 -0.1082  0.3552
    1PC     H5A 8627   2.998   4.234   3.109  0.7378  0.4857  0.6752
    1PC     H5B 8628   2.978   4.225   2.924 -1.3366 -0.8134  1.6076
    1PC     H5C 8629   3.010   4.386   3.010  3.1013  0.2066  1.5424
    1PC     O33 8630   2.875   4.553   3.303 -0.3125 -0.0699 -0.3538
    1PC     O34 8631   2.997   4.674   3.121 -0.1676  0.3184 -0.0406
    1PC     O21 8632   3.220   4.447   3.623 -0.0997  0.4885 -0.1595
    1PC     C21 8633   3.293   4.335   3.620 -0.0338 -0.8803 -0.0270
    1PC     O22 8634   3.378   4.302   3.541  0.1819 -0.9115  0.5595
    1OL     C12 8635   3.254   4.240   3.727  0.2350  0.1366  0.2387
    1OL     H2R 8636   3.282   4.140   3.693  0.4539 -0.7158  2.7277
    1OL     H2S 8637   3.145   4.228   3.731  0.2762 -1.2990 -1.5744
    1OL     C13 8638   3.324   4.257   3.861 -0.8181  0.2484 -0.6253
    1OL     H3R 8639   3.263   4.233   3.949 -0.9535  0.1074 -0.7592
    1OL     H3S 8640   3.345   4.363   3.880 -3.6651  0.4399  2.4167
    1OL     C14 8641   3.460   4.187   3.873 -0.2573 -0.3726 -0.1085
    1OL     H4R 8642   3.513   4.234   3.789  0.4671  0.5475  0.8350
    1OL     H4S 8643   3.442   4.080   3.857 -0.1104 -0.5917  1.1289
    1OL     C15 8644   3.545   4.212   4.000 -0.2229  0.2441  0.2435
    1OL     H5R 8645   3.534   4.319   4.019 -1.3204  0.0856  0.5286
    1OL     H5S 8646   3.647   4.191   3.967 -0.4629  0.0791 -0.4255
    1OL     C16 8647   3.506   4.139   4.127  0.4834  0.4426 -0.3831
    1OL     H6R 8648   3.514   4.032   4.106 -2.0346 -0.0499  0.7646
    1OL     H6S 8649   3.398   4.150   4.138  0.1489 -0.8539 -2.0570
    1OL     C17 8650   3.582   4.169   4.265  0.7046  0.3473 -0.2315
    1OL     H7R 8651   3.526   4.126   4.348 -0.0384 -1.2557 -1.5241
    1OL     H7S 8652   3.591   4.278   4.272  1.8847  0.3686 -1.5547
    1OL     C18 8653   3.722   4.093   4.269 -0.3376 -0.1340 -0.6014
    1OL     H8R 8654   3.787   4.121   4.186  2.5607  1.0761  1.8754
    1OL     H8S 8655   3.695   3.988   4.261  1.8002 -1.0096  2.3158
    1OL     C19 8656   3.788   4.130   4.405  0.1379 -0.0076 -0.3374
    1OL     H9R 8657   3.846   4.222   4.403  0.1756 -0.0362 -1.6342
    1OL    C110 8658   3.787   4.052   4.512  1.0928 -0.2593 -0.0909
    1OL    H10R 8659   3.846   4.077   4.599  0.7965  1.9119 -0.4562
    1OL    C111 8660   3.695   3.922   4.527  0.0355  0.2279  0.4185
    1OL    H11R 8661   3.756   3.835   4.551 -1.9633 -1.3362  0.1047
    1OL    H11S 8662   3.632   3.900   4.441  0.7194  0.2723 -0.1002
    1OL    C112 8663   3.592   3.931   4.643 -0.0999  0.2674 -0.2654
    1OL    H12R 8664   3.642   3.953   4.738 -2.0809 -0.3399  0.9658
    1OL    H12S 8665   3.545   3.834   4.661  0.8526  0.1227  1.6881
    1OL    C113 8666   3.478   4.030   4.619  0.5015 -0.6646  0.2283
    1OL    H13R 8667   3.406   4.007   4.539  0.9433  0.7109 -0.6053
    1OL    H13S 8668   3.521   4.126   4.592  1.8305 -1.2466  0.2138
    1OL    C114 8669   3.398   4.060   4.749 -0.2234  0.7943 -0.0843
    1OL    H14R 8670   3.471   4.070   4.830 -0.1390 -0.2010 -0.0282
    1OL    H14S 8671   3.330   3.977   4.768 -0.0637  0.8808  0.9292
    1OL    C115 8672   3.306   4.186   4.756 -0.2080 -0.1404  0.1633
    1OL    H15R 8673   3.259   4.199   4.658 -0.2816 -0.9277  0.0880
    1OL    H15S 8674   3.368   4.275   4.766 -0.6778  0.6304 -2.8047
    1OL    C116 8675   3.201   4.192   4.865  0.0595 -0.1767  0.6447
    1OL    H16R 8676   3.131   4.111   4.843  0.8507 -0.9409  0.8940
    1OL    H16S 8677   3.157   4.289   4.844  0.7600 -0.3394 -2.0249
    1OL    C117 8678   3.242   4.165   5.009  0.0247  0.0306 -0.9905
    1OL    H17R 8679   3.330   4.226   5.033  0.5130 -0.0781 -2.4039
    1OL    H17S 8680   3.266   4.059   5.019 -3.8168 -0.7302  2.9424
    1OL    C118 8681   3.141   4.203   5.123 -0.3295 -0.6062 -0.1169
    1OL    H18R 8682   3.192   4.180   5.216  0.0942 -0.0773 -0.2120
    1OL    H18S 8683   3.052   4.141   5.110  0.4053 -1.2984 -2.2838
    1OL    H18T 8684   3.113   4.309   5.124  0.0669 -0.4860  1.8784
    1PA    C116 8685   1.512   2.840   4.657 -0.0883  0.1234  0.5408
    1PA    H16R 8686   1.598   2.811   4.718  1.7591 -1.7172 -2.6631
    1PA    H16S 8687   1.418   2.803   4.698  0.8659 -0.1840  2.6485
    1PA    H16T 8688   1.511   2.949   4.653  1.8132  0.1474 -0.2816
    1PA    C115 8689   1.554   2.785   4.520  0.2533  0.6334  0.4215
    1PA    H15R 8690   1.474   2.794   4.447  1.5134 -2.1603 -1.5116
    1PA    H15S 8691   1.639   2.834   4.472 -0.2402  1.0110 -0.0713
    1PA    C114 8692   1.586   2.632   4.528 -0.0002  0.2228 -0.2346
    1PA    H14R 8693   1.663   2.599   4.597 -1.0008  0.3448  0.9762
    1PA    H14S 8694   1.489   2.583   4.542 -0.3611  0.5181 -1.5354
    1PA    C113 8695   1.658   2.581   4.402  0.0990 -0.2033  0.1203
    1PA    H13R 8696   1.617   2.630   4.314  0.5420  0.5518  0.3209
    1PA    H13S 8697   1.762   2.613   4.413 -0.0343  1.2556 -2.2472
    1PA    C112 8698   1.663   2.427   4.383  0.3137 -0.8392  0.3130
    1PA    H12R 8699   1.686   2.387   4.482 -0.0169  1.9962  1.6406
    1PA    H12S 8700   1.567   2.397   4.341 -0.0212  1.5627 -0.8266
    1PA    C111 8701   1.776   2.394   4.289 -0.1567 -0.0392  0.4779
    1PA    H11R 8702   1.771   2.438   4.189  0.9424  0.3302  0.5758
    1PA    H11S 8703   1.873   2.426   4.328  0.4463  0.3699 -1.2399
    1PA    C110 8704   1.782   2.243   4.264  0.2410 -0.0728 -0.6412
    1PA    H10R 8705   1.875   2.207   4.218  0.1328 -2.0453  0.5689
    1PA    H10S 8706   1.790   2.198   4.363 -1.5239  0.7219 -0.1087
    1PA     C19 8707   1.677   2.173   4.180  0.0881  0.1731 -0.3953
    1PA     H9R 8708   1.679   2.064   4.180 -2.3638  0.0671  0.7266
    1PA     H9S 8709   1.578   2.194   4.220 -0.5089 -1.3436 -0.9850
    1PA     C18 8710   1.675   2.216   4.034 -0.6770  0.3698  0.1566
    1PA     H8R 8711   1.650   2.322   4.026 -1.1247  0.4239  1.8957
    1PA     H8S 8712   1.777   2.209   3.994 -1.3666  0.5543 -1.7522
    1PA     C17 8713   1.580   2.136   3.950 -0.3936 -0.1758 -0.2984
    1PA     H7R 8714   1.585   2.034   3.990  0.3019  0.5722  1.5968
    1PA     H7S 8715   1.479   2.175   3.959  0.4911  2.0546  0.5215
    1PA     C16 8716   1.625   2.116   3.800  0.2775 -0.2756 -0.2005
    1PA     H6R 8717   1.635   2.218   3.761 -2.4418 -0.3269 -1.2731
    1PA     H6S 8718   1.724   2.071   3.804  0.2083 -0.3663  0.7172
    1PA     C15 8719   1.517   2.048   3.714  0.2291  0.1636 -0.6439
    1PA     H5R 8720   1.558   2.017   3.617  0.0786 -0.4776 -0.5021
    1PA     H5S 8721   1.489   1.961   3.773 -0.1426 -0.2143 -1.3638
    1PA     C14 8722   1.402   2.145   3.671 -0.3778  0.0732 -0.0429
    1PA     H4R 8723   1.350   2.190   3.755  1.3410  1.4447  0.3330
    1PA     H4S 8724   1.450   2.226   3.615 -0.3350  0.3399  0.3799
    1PA     C13 8725   1.298   2.079   3.591  1.0278  0.0162  0.0167
    1PA     H3R 8726   1.345   2.067   3.493  2.2042 -0.5347  0.6348
    1PA     H3S 8727   1.245   1.991   3.629  0.3733  0.9838  1.4047
    1PA     C12 8728   1.174   2.178   3.581 -0.9884  0.2054 -0.3662
    1PA     H2R 8729   1.133   2.196   3.680  1.3993 -0.4368  0.8020
    1PA     H2S 8730   1.215   2.271   3.540 -1.3101 -0.1798 -1.6169
    1PC     C11 8731   1.064   2.146   3.483  0.5354 -0.7072  0.2772
    1PC     O12 8732   1.081   2.162   3.361 -0.3043  0.4284 -0.1403
    1PC     O11 8733   0.951   2.117   3.546 -0.0480 -0.1142 -0.1590
    1PC      C1 8734   0.836   2.078   3.459 -0.7335 -0.6216 -0.1352
    1PC      HR 8735   0.780   2.166   3.426  0.3582  0.3183  0.4399
    1PC      HS 8736   0.873   2.013   3.380  1.1286  0.5788 -0.3043
    1PC      C2 8737   0.740   1.986   3.545 -0.5621 -0.6456  0.6514
    1PC      HX 8738   0.787   1.894   3.579 -1.0009 -0.7907  0.8720
    1PC      C3 8739   0.602   1.955   3.470 -0.1632 -0.1413 -0.1814
    1PC      HA 8740   0.639   1.895   3.387 -0.6729 -3.0675  1.5519
    1PC      HB 8741   0.544   1.885   3.532  1.1263 -1.7642 -0.7323
    1PC     O31 8742   0.528   2.067   3.422 -0.1791 -0.0210  0.3973
    1PC     P31 8743   0.408   2.127   3.499  0.0208  0.1535 -0.2695
    1PC     O32 8744   0.479   2.232   3.597 -0.3017 -0.0769  0.4003
    1PC     C31 8745   0.511   2.368   3.552 -0.2394  0.6562 -0.1636
    1PC     H1A 8746   0.607   2.397   3.595  0.2757  1.3989 -1.7368
    1PC     H1B 8747   0.518   2.374   3.443 -0.4807 -1.5168 -0.3424
    1PC     C32 8748   0.401   2.461   3.606 -0.1745  0.3944 -0.9828
    1PC     H2A 8749   0.309   2.427   3.559  1.4101 -1.7254 -2.7555
    1PC     H2B 8750   0.387   2.456   3.715  2.0036 -1.5011 -0.7244
    1PC     N31 8751   0.411   2.603   3.563 -0.5423  0.0450 -0.2643
    1PC     C33 8752   0.394   2.613   3.415  0.0774 -1.2849 -0.2961
    1PC     H3A 8753   0.474   2.551   3.374  1.6958  0.6042 -0.1692
    1PC     H3B 8754   0.294   2.574   3.401 -1.3500  1.4271  1.4365
    1PC     H3C 8755   0.412   2.716   3.383  1.3591 -1.5832 -0.5989
    1PC     C34 8756   0.296   2.688   3.613 -0.1322 -0.1126  0.9541
    1PC     H4A 8757   0.203   2.633   3.597 -0.7487  1.3023 -0.6340
    1PC     H4B 8758   0.307   2.711   3.719  2.1174  0.2363  0.6894
    1PC     H4C 8759   0.287   2.785   3.564 -1.7830 -0.7094 -0.0395
    1PC     C35 8760   0.528   2.682   3.606 -0.2296  0.0268 -0.0374
    1PC     H5A 8761   0.619   2.624   3.587 -0.7656 -0.8937  0.1514
    1PC     H5B 8762   0.528   2.724   3.706  0.1779  0.8281 -0.3581
    1PC     H5C 8763   0.544   2.767   3.538  3.0895 -0.0125  0.5178
    1PC     O33 8764   0.320   2.214   3.410 -0.0718 -0.4296  0.4890
    1PC     O34 8765   0.355   2.014   3.580  0.1761 -0.1403  0.4589
    1PC     O21 8766   0.701   2.065   3.658 -0.7238  0.4446 -0.4819
    1PC     C21 8767   0.676   2.009   3.771 -0.5097 -0.1937 -0.1891
    1PC     O22 8768   0.698   1.893   3.793 -0.3006  0.5589  0.3153
    1OL     C12 8769   0.622   2.093   3.879 -0.0052  0.3728  0.3850
    1OL     H2R 8770   0.635   2.197   3.847  1.8045  1.1395  3.2391
    1OL     H2S 8771   0.686   2.076   3.966 -1.7865 -1.1294  1.4553
    1OL     C13 8772   0.476   2.062   3.920 -0.0808  0.0287  0.1959
    1OL     H3R 8773   0.422   2.059   3.825 -0.8329  0.8460  0.5773
    1OL     H3S 8774   0.437   2.160   3.952 -0.1360 -0.0966  0.5201
    1OL     C14 8775   0.447   1.936   4.012 -1.5095  0.0272  0.7069
    1OL     H4R 8776   0.487   1.959   4.111  3.1718 -0.2874 -0.8560
    1OL     H4S 8777   0.519   1.863   3.973  0.1241  0.9591  1.8508
    1OL     C15 8778   0.303   1.878   4.014  0.1447  0.5369  0.3121
    1OL     H5R 8779   0.276   1.853   3.911  3.2212  1.1915 -0.7451
    1OL     H5S 8780   0.242   1.961   4.051 -0.6442  0.3779 -0.5844
    1OL     C16 8781   0.284   1.765   4.110  0.3078  0.2852 -0.1914
    1OL     H6R 8782   0.337   1.780   4.204  0.3237  0.6736 -0.2590
    1OL     H6S 8783   0.323   1.671   4.071  0.5271  0.5647 -0.6487
    1OL     C17 8784   0.131   1.749   4.129  0.1822  0.3898 -0.3539
    1OL     H7R 8785   0.090   1.750   4.028  0.8789 -1.9092 -0.7139
    1OL     H7S 8786   0.091   1.834   4.185  0.9836  0.2309  0.4862
    1OL     C18 8787   0.090   1.616   4.197  0.1395 -0.7701  0.1459
    1OL     H8R 8788   0.140   1.535   4.142 -1.1051 -0.2826 -1.7972
    1OL     H8S 8789  -0.017   1.601   4.182  0.2769 -0.4354 -1.3896
    1OL     C19 8790   0.131   1.606   4.340  0.1122  0.4880  0.4524
    1OL     H9R 8791   0.216   1.538   4.351 -0.0673 -0.3343 -2.4550
    1OL    C110 8792   0.071   1.645   4.450 -0.8240  0.2878  0.2401
    1OL    H10R 8793   0.111   1.612   4.546  1.5729  0.1645 -0.7255
    1OL    C111 8794  -0.029   1.750   4.450  0.7655 -0.9585 -0.2604
    1OL    H11R 8795  -0.053   1.794   4.353 -1.6089 -0.1761  0.6206
    1OL    H11S 8796   0.000   1.834   4.513 -0.5017 -0.5389 -0.2112
    1OL    C112 8797  -0.167   1.695   4.495 -0.2655  0.4380 -0.3461
    1OL    H12R 8798  -0.159   1.639   4.588  1.6990 -1.0406 -1.3180
    1OL    H12S 8799  -0.211   1.624   4.425  0.2808 -0.2639  0.0169
    1OL    C113 8800  -0.268   1.810   4.498 -0.2235  0.0234 -0.3519
    1OL    H13R 8801  -0.226   1.870   4.578 -0.8083  1.7528 -1.2778
    1OL    H13S 8802  -0.364   1.770   4.533 -1.2401 -1.1489 -3.9681
    1OL    C114 8803  -0.284   1.903   4.373  0.6912  0.1461  0.6101
    1OL    H14R 8804  -0.324   1.831   4.301  1.1916  0.8507 -0.3901
    1OL    H14S 8805  -0.191   1.939   4.331 -0.5971  2.6183 -0.3284
    1OL    C115 8806  -0.384   2.020   4.392 -0.7666  0.0539  0.3487
    1OL    H15R 8807  -0.404   2.069   4.297  1.4697 -0.5597 -0.4776
    1OL    H15S 8808  -0.324   2.100   4.437  0.5532  0.1410 -1.4896
    1OL    C116 8809  -0.511   2.009   4.479  0.7651  0.2625  0.4484
    1OL    H16R 8810  -0.547   2.111   4.492  0.2092  0.0616  0.5124
    1OL    H16S 8811  -0.480   1.957   4.569 -0.0683 -2.9624 -0.9690
    1OL    C117 8812  -0.619   1.915   4.422  0.1504 -0.5230 -0.1594
    1OL    H17R 8813  -0.584   1.811   4.417  0.7208 -0.4339  1.5958
    1OL    H17S 8814  -0.642   1.942   4.318  1.7873 -0.3723 -0.5166
    1OL    C118 8815  -0.741   1.938   4.502  0.4987  0.3564 -0.1404
    1OL    H18R 8816  -0.816   2.000   4.452 -2.1038 -1.7155  0.9276
    1OL    H18S 8817  -0.720   1.979   4.601 -3.8488  2.5068  0.1660
    1OL    H18T 8818  -0.792   1.842   4.514 -0.2694  0.6137 -1.2274
    1PA    C116 8819   4.192   2.025   4.813 -0.7418 -0.1261 -0.4428
    1PA    H16R 8820   4.296   1.994   4.802 -0.2562  1.4095 -0.5545
    1PA    H16S 8821   4.153   2.030   4.711  0.9983  2.0242 -1.0963
    1PA    H16T 8822   4.145   1.946   4.872 -1.4589  1.7336  1.6688
    1PA    C115 8823   4.186   2.154   4.894 -0.1551 -0.4288  0.5796
    1PA    H15R 8824   4.079   2.174   4.902 -0.5774 -2.2334 -0.1537
    1PA    H15S 8825   4.230   2.144   4.994 -0.0109 -1.1298  0.4481
    1PA    C114 8826   4.248   2.272   4.817 -1.1485 -0.2280 -0.1352
    1PA    H14R 8827   4.348   2.238   4.790 -2.1136 -2.7723 -0.7611
    1PA    H14S 8828   4.200   2.296   4.722 -0.9814  0.5191 -0.0418
    1PA    C113 8829   4.245   2.396   4.910  0.7875 -1.4596  0.4921
    1PA    H13R 8830   4.294   2.374   5.005  3.1229  0.1683 -0.2630
    1PA    H13S 8831   4.298   2.477   4.861  0.6770 -0.9731  1.1632
    1PA    C112 8832   4.106   2.450   4.938  0.3705  0.0210 -0.0753
    1PA    H12R 8833   4.063   2.361   4.984  2.1872 -0.3328  1.0472
    1PA    H12S 8834   4.117   2.529   5.013 -0.5030 -1.1369  1.2983
    1PA    C111 8835   4.018   2.497   4.821 -0.5411  0.0926 -0.8328
    1PA    H11R 8836   4.004   2.406   4.762 -0.7212 -0.6135  0.2757
    1PA    H11S 8837   3.926   2.536   4.867  0.6375  2.2919 -0.1816
    1PA    C110 8838   4.076   2.610   4.738 -0.1004  0.4161  0.2569
    1PA    H10R 8839   4.080   2.707   4.787  0.9936  1.1455 -1.1657
    1PA    H10S 8840   4.175   2.576   4.705 -0.2077  2.5926 -2.7145
    1PA     C19 8841   4.003   2.631   4.612 -1.1965 -0.5708  0.3944
    1PA     H9R 8842   4.017   2.552   4.538 -0.0012 -2.4242  2.5069
    1PA     H9S 8843   3.896   2.628   4.630 -1.6890  0.3658 -1.9064
    1PA     C18 8844   4.032   2.776   4.551  0.0373  0.7954 -0.4794
    1PA     H8R 8845   4.003   2.848   4.628 -3.4964  0.3234 -1.1607
    1PA     H8S 8846   4.140   2.791   4.546  0.1988 -0.1045  0.1810
    1PA     C17 8847   3.982   2.830   4.420  0.2066 -1.1233  0.4974
    1PA     H7R 8848   3.873   2.826   4.420  0.1986 -0.9810 -0.0711
    1PA     H7S 8849   4.013   2.934   4.414 -2.8490 -0.1624 -0.1483
    1PA     C16 8850   4.035   2.759   4.291 -0.4217 -0.4183  0.1473
    1PA     H6R 8851   4.140   2.788   4.281 -0.1273 -1.4309  0.1891
    1PA     H6S 8852   4.032   2.651   4.308 -0.9220 -0.3613  0.4465
    1PA     C15 8853   3.958   2.809   4.167  0.1373  0.8883  0.4608
    1PA     H5R 8854   3.850   2.810   4.182  0.4184  1.2807  2.7796
    1PA     H5S 8855   3.985   2.913   4.147  3.0562 -0.2986 -2.7763
    1PA     C14 8856   3.991   2.726   4.038 -0.1979 -0.2043  0.5492
    1PA     H4R 8857   4.093   2.686   4.035 -1.2845 -3.2276 -0.2862
    1PA     H4S 8858   3.923   2.642   4.019 -0.2131 -0.0049 -0.3217
    1PA     C13 8859   3.978   2.826   3.915  0.4248 -0.0644 -0.0308
    1PA     H3R 8860   4.003   2.779   3.820  0.3775  0.9753 -0.5735
    1PA     H3S 8861   3.871   2.834   3.896  0.2707 -3.4090 -1.2721
    1PA     C12 8862   4.052   2.960   3.919  0.2549  0.8062 -0.2874
    1PA     H2R 8863   3.983   3.040   3.949 -0.8718  1.0930 -3.2652
    1PA     H2S 8864   4.139   2.941   3.981  2.1178 -0.4413 -3.0647
    1PC     C11 8865   4.107   2.991   3.780  0.0404 -0.1738 -0.1199
    1PC     O12 8866   4.040   2.973   3.680  0.3560 -0.3174  0.2685
    1PC     O11 8867   4.231   3.040   3.789  0.3511 -0.2277 -0.5084
    1PC      C1 8868   4.323   3.061   3.672  0.5139 -0.1131  0.1699
    1PC      HR 8869   4.356   2.959   3.651  0.2422 -0.1809  0.0601
    1PC      HS 8870   4.275   3.102   3.582 -0.0946 -0.5831  0.2758
    1PC      C2 8871   4.427   3.159   3.722  0.2107  0.0763  0.4303
    1PC      HX 8872   4.393   3.261   3.740  3.3216  1.1464  0.9353
    1PC      C3 8873   4.533   3.175   3.607  0.1422 -0.0976 -0.4911
    1PC      HA 8874   4.495   3.254   3.542 -1.4398  1.0359  1.6876
    1PC      HB 8875   4.626   3.214   3.649  0.2285 -0.3171 -0.4747
    1PC     O31 8876   4.555   3.060   3.523 -0.3908  0.2092  0.0435
    1PC     P31 8877   4.602   3.064   3.370  0.4435 -0.4007 -0.4503
    1PC     O32 8878   4.744   3.003   3.383 -0.5163 -0.2039 -0.7147
    1PC     C31 8879   4.857   3.077   3.419 -0.1007  0.4059  0.1835
    1PC     H1A 8880   4.844   3.179   3.384  0.4053  0.0069 -1.2143
    1PC     H1B 8881   4.848   3.084   3.528  2.2404  0.5800  0.4014
    1PC     C32 8882   4.990   3.003   3.375 -0.3958  0.1033  0.1944
    1PC     H2A 8883   5.070   3.054   3.430 -1.2699  1.6146  0.1337
    1PC     H2B 8884   4.989   2.897   3.401 -0.1250 -0.4092 -1.7527
    1PC     N31 8885   5.021   2.999   3.222 -0.3533  0.2705 -0.0491
    1PC     C33 8886   4.914   2.925   3.154  0.2145 -0.3147  0.7728
    1PC     H3A 8887   4.925   2.929   3.046  0.8954  2.3844  0.8739
    1PC     H3B 8888   4.908   2.826   3.199  2.2653 -1.4340 -1.2477
    1PC     H3C 8889   4.826   2.987   3.174 -0.1986  0.0754 -1.9600
    1PC     C34 8890   5.025   3.136   3.178  0.3121  0.0933  0.4632
    1PC     H4A 8891   5.126   3.160   3.211  0.4951  0.2105 -0.1675
    1PC     H4B 8892   5.022   3.135   3.069  0.0651 -0.1214  0.4726
    1PC     H4C 8893   4.946   3.186   3.234  0.7206 -0.3251  1.4469
    1PC     C35 8894   5.154   2.933   3.207  0.1716  1.1918  0.2431
    1PC     H5A 8895   5.239   2.985   3.250  1.4501 -0.4084 -0.2643
    1PC     H5B 8896   5.167   2.935   3.099 -2.2205 -2.7991 -0.3366
    1PC     H5C 8897   5.131   2.832   3.240  0.9225  1.1691  0.7002
    1PC     O33 8898   4.530   2.967   3.287  0.4201  0.8034 -0.4306
    1PC     O34 8899   4.613   3.204   3.321  0.5176  0.0392  0.2471
    1PC     O21 8900   4.509   3.111   3.825 -0.1993  0.6560  0.2374
    1PC     C21 8901   4.573   3.193   3.906 -0.8108 -0.0261 -0.0635
    1PC     O22 8902   4.588   3.312   3.875  0.2785 -0.1440  0.1689
    1OL     C12 8903   4.609   3.134   4.043  0.1433  1.1652 -0.0276
    1OL     H2R 8904   4.717   3.141   4.058  0.4054 -0.4956 -0.9230
    1OL     H2S 8905   4.593   3.027   4.033 -0.2540  1.1823  0.4097
    1OL     C13 8906   4.539   3.197   4.166 -0.6807  0.2763 -0.7249
    1OL     H3R 8907   4.542   3.306   4.157 -3.1529  0.6601  1.6303
    1OL     H3S 8908   4.587   3.158   4.256 -0.9576 -1.4705 -1.3043
    1OL     C14 8909   4.392   3.145   4.175 -0.4287 -0.0894  0.0716
    1OL     H4R 8910   4.387   3.053   4.117 -0.9512 -0.6075  0.9217
    1OL     H4S 8911   4.327   3.215   4.123  2.6387  1.3905 -2.1153
    1OL     C15 8912   4.342   3.118   4.322 -0.4166  0.0251  0.0801
    1OL     H5R 8913   4.406   3.042   4.368  2.2274  3.4646  2.6303
    1OL     H5S 8914   4.241   3.078   4.313 -0.3071 -0.1661 -0.3571
    1OL     C16 8915   4.334   3.234   4.418  0.0967 -0.0620 -0.2706
    1OL     H6R 8916   4.268   3.314   4.385  1.0445  1.0333  0.4072
    1OL     H6S 8917   4.434   3.278   4.423 -0.2728  1.0405 -1.7821
    1OL     C17 8918   4.266   3.182   4.545  0.1112 -0.1166  0.3017
    1OL     H7R 8919   4.317   3.102   4.600 -2.5873 -0.9163  1.8040
    1OL     H7S 8920   4.179   3.121   4.520  0.6014 -0.9411  0.5783
    1OL     C18 8921   4.216   3.289   4.639  0.4948 -0.4848 -0.4037
    1OL     H8R 8922   4.195   3.384   4.589  1.7145  0.0832  0.1230
    1OL     H8S 8923   4.290   3.320   4.713 -1.0095  0.9826  0.5549
    1OL     C19 8924   4.116   3.225   4.733  0.4463  0.2785 -0.3320
    1OL     H9R 8925   4.081   3.125   4.711  2.7499 -0.7620  0.3939
    1OL    C110 8926   4.057   3.283   4.839  0.3305  0.1997 -0.1482
    1OL    H10R 8927   4.001   3.219   4.906  0.5913  0.0258 -0.0980
    1OL    C111 8928   4.085   3.429   4.890 -0.2000  0.3359  0.0585
    1OL    H11R 8929   3.992   3.483   4.872 -2.5392 -3.0165  1.1125
    1OL    H11S 8930   4.172   3.469   4.837  0.7182 -0.7920  0.6706
    1OL    C112 8931   4.125   3.430   5.036 -0.7664  0.4711 -0.6796
    1OL    H12R 8932   4.213   3.370   5.061 -1.1888  0.1359  0.0337
    1OL    H12S 8933   4.051   3.375   5.095  1.2269 -0.9811  0.5973
    1OL    C113 8934   4.138   3.572   5.095 -0.0747 -0.1135  0.2924
    1OL    H13R 8935   4.041   3.615   5.068  0.3454  0.0257 -1.0903
    1OL    H13S 8936   4.226   3.617   5.050 -1.6395  1.6713 -1.1445
    1OL    C114 8937   4.147   3.573   5.256  0.4007 -0.4251 -0.0336
    1OL    H14R 8938   4.047   3.547   5.292 -0.2693  2.0548  0.1035
    1OL    H14S 8939   4.168   3.675   5.289 -0.4917 -0.3075  0.2055
    1OL    C115 8940   4.245   3.472   5.314 -0.5260 -1.2422 -0.1943
    1OL    H15R 8941   4.347   3.490   5.277 -0.4065 -0.2375  0.5822
    1OL    H15S 8942   4.226   3.370   5.282  0.6015 -0.8555 -2.3408
    1OL    C116 8943   4.261   3.489   5.463 -0.1331 -0.4656  0.7241
    1OL    H16R 8944   4.186   3.438   5.523  0.2955 -0.5544  1.1979
    1OL    H16S 8945   4.260   3.595   5.490 -0.0172  0.5478 -2.7996
    1OL    C117 8946   4.386   3.423   5.512 -0.3529 -0.0676  0.0836
    1OL    H17R 8947   4.400   3.450   5.617 -1.9469 -0.5388  0.4427
    1OL    H17S 8948   4.471   3.456   5.451 -0.4408  1.3868  0.6990
    1OL    C118 8949   4.382   3.269   5.510  0.5946 -0.0256  0.3420
    1OL    H18R 8950   4.362   3.245   5.406  0.3471  0.7391  0.2042
    1OL    H18S 8951   4.297   3.233   5.568  0.3172 -1.0520 -0.6637
    1OL    H18T 8952   4.476   3.228   5.548  0.8773 -1.7498 -2.0392
    1PA    C116 8953   2.571   5.100   4.479 -0.1269  0.5942 -0.2631
    1PA    H16R 8954   2.661   5.130   4.532 -0.0803 -0.2008  0.1246
    1PA    H16S 8955   2.487   5.102   4.548 -1.2269  1.7230 -1.5730
    1PA    H16T 8956   2.546   5.159   4.391 -1.0182  0.2563 -0.2460
    1PA    C115 8957   2.600   4.955   4.432 -0.4217 -0.3639  0.1539
    1PA    H15R 8958   2.670   4.951   4.348 -1.5163 -1.3031 -0.7429
    1PA    H15S 8959   2.655   4.904   4.511  1.1449 -1.6892 -1.6936
    1PA    C114 8960   2.485   4.872   4.391 -0.2545  0.5981 -0.0933
    1PA    H14R 8961   2.423   4.861   4.480  0.6049  0.1633  0.4730
    1PA    H14S 8962   2.431   4.932   4.318  0.0370 -0.6672 -1.3936
    1PA    C113 8963   2.528   4.738   4.330  0.4148  0.5544  0.1348
    1PA    H13R 8964   2.608   4.756   4.258 -0.1824  0.0344 -0.6746
    1PA    H13S 8965   2.571   4.667   4.401 -0.3341  1.8509  1.9649
    1PA    C112 8966   2.410   4.677   4.250 -0.2239  0.5368  0.4916
    1PA    H12R 8967   2.321   4.671   4.314  0.2782  2.6204  1.4946
    1PA    H12S 8968   2.391   4.739   4.162 -1.2776  0.2915  0.5335
    1PA    C111 8969   2.450   4.535   4.188 -0.3438 -0.4627 -0.5866
    1PA    H11R 8970   2.547   4.546   4.139 -1.2390  1.1418 -2.1031
    1PA    H11S 8971   2.461   4.455   4.262  0.5432  0.4680  0.3067
    1PA    C110 8972   2.353   4.484   4.085 -0.1591  0.2185 -0.0003
    1PA    H10R 8973   2.312   4.562   4.022 -2.0775 -0.2380  0.6121
    1PA    H10S 8974   2.420   4.419   4.028 -0.5900 -2.2610  2.1256
    1PA     C19 8975   2.238   4.403   4.137  1.0038  0.6365  0.1426
    1PA     H9R 8976   2.178   4.364   4.054  0.2739 -2.6849  2.0354
    1PA     H9S 8977   2.274   4.313   4.187 -0.5980 -2.1452 -3.2929
    1PA     C18 8978   2.144   4.484   4.225 -0.1635 -0.2741 -0.6799
    1PA     H8R 8979   2.069   4.408   4.247  1.9159 -2.2235  0.1379
    1PA     H8S 8980   2.186   4.505   4.324 -2.8320  1.5869  0.1607
    1PA     C17 8981   2.083   4.608   4.161  0.8675 -0.2037  0.5205
    1PA     H7R 8982   2.158   4.683   4.136 -0.4454  0.4016 -1.9995
    1PA     H7S 8983   2.013   4.646   4.236  0.0672 -0.4120 -0.1073
    1PA     C16 8984   1.994   4.589   4.021 -0.0612 -0.3509 -0.4092
    1PA     H6R 8985   1.931   4.676   4.000 -0.3160 -0.7221 -1.2503
    1PA     H6S 8986   2.053   4.578   3.930  0.5802  2.3841 -0.4136
    1PA     C15 8987   1.895   4.468   4.039 -0.1279 -0.1048  0.3006
    1PA     H5R 8988   1.945   4.372   4.052  0.3309  0.3758  2.4795
    1PA     H5S 8989   1.842   4.475   4.134  0.3067  1.5850  0.4506
    1PA     C14 8990   1.799   4.463   3.913  1.3312 -0.1440 -0.0754
    1PA     H4R 8991   1.724   4.388   3.938 -0.3326  1.7447  0.9780
    1PA     H4S 8992   1.756   4.563   3.897 -0.6924 -1.0399 -0.5970
    1PA     C13 8993   1.867   4.423   3.784  0.0098  0.7323 -0.5699
    1PA     H3R 8994   1.939   4.503   3.764 -0.3614  1.4324  0.7656
    1PA     H3S 8995   1.932   4.340   3.812 -2.8946 -1.6980 -0.5233
    1PA     C12 8996   1.774   4.395   3.666 -0.0940  0.2924 -0.2166
    1PA     H2R 8997   1.700   4.320   3.695 -1.1140  1.0789 -0.7291
    1PA     H2S 8998   1.716   4.481   3.633 -0.5268 -0.1669 -0.6726
    1PC     C11 8999   1.855   4.334   3.553 -0.1828 -0.5309  0.2523
    1PC     O12 9000   1.857   4.382   3.442  0.1998  0.6236  0.3449
    1PC     O11 9001   1.922   4.217   3.572 -0.2417 -0.3908  0.0750
    1PC      C1 9002   1.973   4.144   3.462 -0.1465 -0.0449  0.2335
    1PC      HR 9003   1.982   4.040   3.492 -0.1387 -0.0306  0.2801
    1PC      HS 9004   1.905   4.145   3.377  2.1807 -0.5646 -1.7323
    1PC      C2 9005   2.109   4.185   3.412 -0.2182  0.0351 -0.0332
    1PC      HX 9006   2.093   4.288   3.379 -0.9197  0.1949  0.7756
    1PC      C3 9007   2.151   4.090   3.296 -0.1063 -0.4598  0.5083
    1PC      HA 9008   2.245   4.124   3.252 -0.2873  0.5668  0.8939
    1PC      HB 9009   2.158   3.991   3.343 -0.0988 -1.3677 -1.2966
    1PC     O31 9010   2.046   4.063   3.201  0.8021  1.1477 -0.1188
    1PC     P31 9011   2.051   4.122   3.054 -0.1958 -0.3657  0.0051
    1PC     O32 9012   2.043   4.281   3.072  0.5072  0.0625 -0.4847
    1PC     C31 9013   1.912   4.343   3.092 -0.1589  0.2281 -0.0811
    1PC     H1A 9014   1.841   4.292   3.026  3.1141 -0.6168 -3.2778
    1PC     H1B 9015   1.905   4.319   3.199  2.1785 -0.6716 -0.0641
    1PC     C32 9016   1.931   4.488   3.053 -0.4280  0.3287 -0.3508
    1PC     H2A 9017   2.010   4.537   3.110  0.1851  0.9244 -1.6833
    1PC     H2B 9018   1.955   4.486   2.947 -0.1876  2.2771 -0.3711
    1PC     N31 9019   1.811   4.575   3.060  0.2979  0.0469  0.2677
    1PC     C33 9020   1.733   4.544   3.172  0.7039  0.6196 -0.4290
    1PC     H3A 9021   1.700   4.440   3.166  1.4549  0.1291  2.5415
    1PC     H3B 9022   1.790   4.557   3.264 -1.1812 -3.1712  1.5304
    1PC     H3C 9023   1.640   4.600   3.166  0.6958  0.4864 -1.8800
    1PC     C34 9024   1.856   4.718   3.072  0.0365  0.2002  0.8049
    1PC     H4A 9025   1.947   4.736   3.013  0.8594 -0.0912  1.9421
    1PC     H4B 9026   1.777   4.788   3.044 -1.0616 -1.1441  0.4244
    1PC     H4C 9027   1.889   4.733   3.175 -1.3697  0.9601  1.1598
    1PC     C35 9028   1.728   4.559   2.937  0.6283 -0.4442  0.6634
    1PC     H5A 9029   1.656   4.479   2.958 -1.3431  1.1714  0.3276
    1PC     H5B 9030   1.792   4.545   2.851 -0.3391  1.3616 -0.4201
    1PC     H5C 9031   1.670   4.648   2.912  1.9314 -0.0197 -1.0524
    1PC     O33 9032   2.180   4.088   2.994 -0.2714  0.0916  0.2344
    1PC     O34 9033   1.934   4.079   2.982  0.3859 -0.5944 -0.3518
    1PC     O21 9034   2.212   4.179   3.507 -0.4939 -0.1013 -0.0066
    1PC     C21 9035   2.317   4.265   3.496  1.4671  1.0335  0.1445
    1PC     O22 9036   2.331   4.347   3.412  0.1679 -0.4530  0.2642
    1OL     C12 9037   2.410   4.241   3.611 -0.5399 -0.1482 -0.2022
    1OL     H2R 9038   2.354   4.202   3.696 -0.1434 -0.5005 -0.1002
    1OL     H2S 9039   2.445   4.339   3.643  1.4365 -0.4186 -1.3978
    1OL     C13 9040   2.531   4.155   3.574 -0.3181 -1.1445 -0.2244
    1OL     H3R 9041   2.581   4.137   3.669 -0.0949 -1.8143 -0.4601
    1OL     H3S 9042   2.603   4.203   3.507  1.1884  0.6497  2.5132
    1OL     C14 9043   2.497   4.025   3.504 -0.0069 -0.0856 -0.3970
    1OL     H4R 9044   2.590   3.972   3.480  0.1067 -0.0622 -0.0161
    1OL     H4S 9045   2.439   4.044   3.414 -1.4959 -1.0003  0.3345
    1OL     C15 9046   2.414   3.924   3.583  0.5032  0.0523  0.2337
    1OL     H5R 9047   2.382   3.842   3.518 -2.0824 -0.1629  1.6378
    1OL     H5S 9048   2.321   3.978   3.600  0.3288 -0.3734  0.6637
    1OL     C16 9049   2.470   3.873   3.717 -0.3936  0.0701  0.1379
    1OL     H6R 9050   2.579   3.874   3.711 -0.2143 -1.3223  2.1343
    1OL     H6S 9051   2.457   3.764   3.722 -0.2505  0.0889  1.0273
    1OL     C17 9052   2.430   3.941   3.854 -0.2679  0.0113  0.4369
    1OL     H7R 9053   2.486   4.034   3.866  0.9914 -0.1993 -2.7095
    1OL     H7S 9054   2.469   3.873   3.929  0.9035  0.8191  0.5800
    1OL     C18 9055   2.280   3.958   3.886 -0.4635  0.8469 -0.5861
    1OL     H8R 9056   2.226   3.864   3.886  1.5928 -0.4278  0.7118
    1OL     H8S 9057   2.235   4.032   3.819  0.3144  1.1889 -0.7507
    1OL     C19 9058   2.264   4.010   4.027 -0.8393 -0.2517 -0.1932
    1OL     H9R 9059   2.264   4.119   4.027  0.2700 -0.2457 -0.8554
    1OL    C110 9060   2.282   3.944   4.145  1.5412 -0.7319  0.3049
    1OL    H10R 9061   2.284   3.996   4.241  0.4765  0.7316 -0.4311
    1OL    C111 9062   2.306   3.798   4.159 -0.4087  0.4275  0.1192
    1OL    H11R 9063   2.413   3.786   4.179  0.0688  1.4810 -1.6175
    1OL    H11S 9064   2.289   3.749   4.064 -0.9398 -1.5794  1.1955
    1OL    C112 9065   2.219   3.740   4.272  0.5307  0.5763 -0.3284
    1OL    H12R 9066   2.220   3.632   4.256 -0.8260  0.3737  0.7743
    1OL    H12S 9067   2.115   3.775   4.278  0.5617  0.4182  2.2251
    1OL    C113 9068   2.281   3.742   4.412 -0.4847 -0.3433  0.8408
    1OL    H13R 9069   2.328   3.839   4.429  1.2221 -0.9961  0.0505
    1OL    H13S 9070   2.363   3.670   4.414  0.9880  1.2130 -0.5048
    1OL    C114 9071   2.178   3.723   4.520 -0.1740 -0.0116 -0.1329
    1OL    H14R 9072   2.118   3.635   4.497 -1.3213  0.2402  1.6805
    1OL    H14S 9073   2.105   3.804   4.518 -1.8250 -1.4395 -0.7424
    1OL    C115 9074   2.242   3.709   4.659 -0.7336  0.5753 -0.2095
    1OL    H15R 9075   2.170   3.744   4.734 -0.4796 -0.5386  0.5892
    1OL    H15S 9076   2.319   3.785   4.656 -0.5597  0.8201  4.2324
    1OL    C116 9077   2.307   3.568   4.700 -0.2970  1.2254  0.2011
    1OL    H16R 9078   2.386   3.545   4.629 -0.9009 -0.4717  0.0192
    1OL    H16S 9079   2.243   3.480   4.709  0.7701  0.4091 -0.0287
    1OL    C117 9080   2.365   3.566   4.845 -0.4021 -0.3172 -0.1130
    1OL    H17R 9081   2.412   3.469   4.864  1.3615  0.6261  0.5566
    1OL    H17S 9082   2.269   3.571   4.897 -0.2461 -1.2447  0.2869
    1OL    C118 9083   2.450   3.688   4.878 -0.2773 -0.5051  0.0703
    1OL    H18R 9084   2.512   3.676   4.967  0.9491 -2.2921 -0.9711
    1OL    H18S 9085   2.393   3.782   4.884 -0.4133 -0.4618 -1.4233
    1OL    H18T 9086   2.531   3.712   4.809 -0.1595  1.3186  0.7707
    1PA    C116 9087   2.462   0.818   5.100  0.1060 -0.9719  0.2644
    1PA    H16R 9088   2.531   0.735   5.085  1.8421  0.0634  1.9961
    1PA    H16S 9089   2.422   0.811   5.201 -0.9534 -1.5079 -0.1749
    1PA    H16T 9090   2.514   0.914   5.095 -1.2531 -0.2586 -0.6247
    1PA    C115 9091   2.336   0.810   5.014  0.6684 -0.5346  0.0609
    1PA    H15R 9092   2.254   0.866   5.058  0.0740 -0.9573 -0.4933
    1PA    H15S 9093   2.350   0.854   4.915 -2.5947  0.7534  0.0628
    1PA    C114 9094   2.276   0.671   4.993  0.2780  0.3386 -0.1276
    1PA    H14R 9095   2.350   0.626   4.926 -0.1409  1.7696 -1.6099
    1PA    H14S 9096   2.293   0.618   5.088  0.5273  1.4534  0.4667
    1PA    C113 9097   2.124   0.675   4.961  0.0182  0.4853  0.2709
    1PA    H13R 9098   2.070   0.741   5.030  0.5064  0.0202  1.1240
    1PA    H13S 9099   2.116   0.722   4.863 -2.4226 -2.4594 -1.0855
    1PA    C112 9100   2.063   0.533   4.953  0.1068 -0.4125  0.5630
    1PA    H12R 9101   2.085   0.474   5.042 -2.5732  3.3077  4.0976
    1PA    H12S 9102   1.954   0.541   4.959  0.0123 -0.5519 -0.7020
    1PA    C111 9103   2.100   0.465   4.819 -0.2714  0.0615 -0.3016
    1PA    H11R 9104   2.095   0.545   4.744  0.3353  2.5657  2.1763
    1PA    H11S 9105   2.205   0.438   4.832  0.1633  1.0879 -1.4397
    1PA    C110 9106   2.008   0.341   4.784 -0.1169 -0.5237 -0.3743
    1PA    H10R 9107   2.025   0.256   4.850  4.0661  0.9590  0.7689
    1PA    H10S 9108   1.900   0.352   4.792 -0.1685 -2.0000  2.1517
    1PA     C19 9109   2.019   0.293   4.645  0.0441 -0.2693  0.0848
    1PA     H9R 9110   2.116   0.244   4.638 -1.0319 -2.3380 -1.6522
    1PA     H9S 9111   1.940   0.219   4.629  0.8031 -0.8671 -1.0825
    1PA     C18 9112   2.016   0.408   4.542  0.0568  0.1664 -0.5738
    1PA     H8R 9113   1.943   0.483   4.574  1.2082  1.2619 -0.4252
    1PA     H8S 9114   2.114   0.455   4.542  0.7458 -1.2254 -0.9070
    1PA     C17 9115   1.980   0.363   4.397  0.0427  0.2801 -0.1410
    1PA     H7R 9116   2.067   0.301   4.371 -0.0228 -0.2794  0.9413
    1PA     H7S 9117   1.886   0.307   4.393 -0.8409  1.7772 -1.6840
    1PA     C16 9118   1.979   0.489   4.301 -0.0685  0.5008 -0.3786
    1PA     H6R 9119   1.911   0.560   4.350  0.0628 -0.6879  1.6253
    1PA     H6S 9120   2.083   0.523   4.297 -0.0173  0.3071 -0.7270
    1PA     C15 9121   1.932   0.460   4.156  0.5852  0.1050 -0.2635
    1PA     H5R 9122   1.923   0.561   4.118 -1.6601  0.0362 -0.0595
    1PA     H5S 9123   2.007   0.395   4.111 -1.1592 -2.4957  0.3694
    1PA     C14 9124   1.797   0.395   4.142 -0.1199 -0.6592  0.3218
    1PA     H4R 9125   1.793   0.302   4.200 -0.8118 -0.7922  0.0786
    1PA     H4S 9126   1.728   0.466   4.187 -0.6409 -0.3024 -0.9934
    1PA     C13 9127   1.757   0.361   3.999 -0.1135  0.3809 -0.9033
    1PA     H3R 9128   1.776   0.438   3.925  0.9262 -0.2118 -1.2685
    1PA     H3S 9129   1.807   0.268   3.972  0.8331 -0.0877  2.0763
    1PA     C12 9130   1.604   0.340   4.010 -0.7953 -0.2220  0.0707
    1PA     H2R 9131   1.586   0.261   4.083  0.7856 -1.4604 -0.7969
    1PA     H2S 9132   1.547   0.427   4.042 -2.3472 -0.6268 -1.4213
    1PC     C11 9133   1.539   0.298   3.879 -0.2150 -0.0739 -0.0411
    1PC     O12 9134   1.602   0.277   3.777 -0.2680  0.5469  0.2124
    1PC     O11 9135   1.404   0.283   3.892 -0.0380  0.1503 -0.0963
    1PC      C1 9136   1.340   0.255   3.761 -0.4490  0.2509  0.5344
    1PC      HR 9137   1.399   0.193   3.693 -1.4126 -0.9466  0.7552
    1PC      HS 9138   1.252   0.191   3.775 -0.8910  0.6562 -0.3103
    1PC      C2 9139   1.288   0.384   3.698  0.0498 -0.1753  0.4173
    1PC      HX 9140   1.234   0.358   3.606  0.3259  0.2030  0.1441
    1PC      C3 9141   1.396   0.489   3.663 -0.6896  0.2071  0.0036
    1PC      HA 9142   1.423   0.526   3.762  0.8690 -1.5561  0.2962
    1PC      HB 9143   1.481   0.443   3.612 -1.1592  1.4416 -2.0179
    1PC     O31 9144   1.346   0.602   3.585 -0.5967 -0.1959  0.5193
    1PC     P31 9145   1.331   0.602   3.431 -0.0831  0.0988  0.6500
    1PC     O32 9146   1.471   0.671   3.389 -0.1007 -0.0174 -0.1397
    1PC     C31 9147   1.587   0.590   3.358  0.4482 -0.0622 -0.0649
    1PC     H1A 9148   1.621   0.526   3.440  0.4657 -0.6582 -0.5371
    1PC     H1B 9149   1.562   0.534   3.268  0.5830 -0.2173 -0.0053
    1PC     C32 9150   1.703   0.681   3.319  0.2882 -0.4809  0.1875
    1PC     H2A 9151   1.706   0.764   3.389 -1.3572 -0.1518 -0.1011
    1PC     H2B 9152   1.792   0.618   3.321  0.9117  0.3606 -0.2687
    1PC     N31 9153   1.696   0.736   3.178  0.4285  0.3447  0.4394
    1PC     C33 9154   1.715   0.632   3.062  0.6757 -0.1113  0.2809
    1PC     H3A 9155   1.822   0.621   3.041  0.8514  2.1750 -0.2529
    1PC     H3B 9156   1.663   0.540   3.088 -0.7886  1.4238  3.3183
    1PC     H3C 9157   1.668   0.681   2.977  0.6983 -0.3150  0.1502
    1PC     C34 9158   1.564   0.801   3.152 -0.0032 -0.7999 -0.8608
    1PC     H4A 9159   1.496   0.724   3.114 -1.4837 -0.0676  0.2119
    1PC     H4B 9160   1.524   0.849   3.241  2.1323 -1.0550  0.3039
    1PC     H4C 9161   1.590   0.867   3.069  1.4597 -1.0124 -0.6089
    1PC     C35 9162   1.796   0.840   3.162 -0.4328 -0.8469  0.1873
    1PC     H5A 9163   1.779   0.888   3.065  1.2023  2.0183  1.2069
    1PC     H5B 9164   1.893   0.791   3.154 -0.6268 -1.0390 -1.3996
    1PC     H5C 9165   1.795   0.909   3.247 -1.0979  1.5532 -1.6402
    1PC     O33 9166   1.327   0.467   3.373  0.0313  0.6955 -0.2298
    1PC     O34 9167   1.229   0.694   3.377  0.3504 -0.1787 -0.2002
    1PC     O21 9168   1.187   0.449   3.784 -0.6469  0.4555  0.4667
    1PC     C21 9169   1.087   0.516   3.735 -0.7311  0.5652 -0.2017
    1PC     O22 9170   1.051   0.515   3.620 -0.2418  0.5115 -0.8075
    1OL     C12 9171   1.025   0.598   3.838 -0.5092  0.0113 -0.0825
    1OL     H2R 9172   1.002   0.545   3.931  0.5957  0.6296  0.5605
    1OL     H2S 9173   0.932   0.628   3.790 -1.0712 -2.2131 -0.4840
    1OL     C13 9174   1.095   0.730   3.870  0.1738  0.6464 -0.2954
    1OL     H3R 9175   1.042   0.778   3.953 -2.3511 -1.6379 -0.4477
    1OL     H3S 9176   1.078   0.787   3.779 -0.8817 -1.5338 -1.5382
    1OL     C14 9177   1.248   0.712   3.902  0.1986 -0.4994  0.0928
    1OL     H4R 9178   1.304   0.699   3.809 -0.8752 -0.5048 -0.5714
    1OL     H4S 9179   1.276   0.628   3.966  1.2344  0.3572  0.8004
    1OL     C15 9180   1.304   0.849   3.961  0.4285 -0.1446  0.2997
    1OL     H5R 9181   1.257   0.861   4.058  0.6988 -1.8693  0.6808
    1OL     H5S 9182   1.278   0.920   3.883 -1.0666 -1.3777 -0.3814
    1OL     C16 9183   1.459   0.853   3.976 -0.3358  0.2139  0.0839
    1OL     H6R 9184   1.484   0.933   4.046 -0.3675 -0.2062  0.5838
    1OL     H6S 9185   1.507   0.866   3.879 -1.3006 -2.5225 -0.8363
    1OL     C17 9186   1.523   0.736   4.046  0.0086  0.3626 -0.0730
    1OL     H7R 9187   1.523   0.644   3.987  0.9622  0.7201 -0.6625
    1OL     H7S 9188   1.474   0.720   4.142 -0.9879 -0.6406 -0.7186
    1OL     C18 9189   1.670   0.777   4.077  0.4750  0.5775  0.4161
    1OL     H8R 9190   1.723   0.807   3.986  2.4159 -2.2321  0.4985
    1OL     H8S 9191   1.720   0.685   4.109 -0.1736 -0.5525 -1.6558
    1OL     C19 9192   1.684   0.879   4.190 -0.3133  0.4096  0.2779
    1OL     H9R 9193   1.708   0.977   4.151  0.0771  0.1777 -0.0836
    1OL    C110 9194   1.670   0.860   4.321  0.6307  0.5636  0.7153
    1OL    H10R 9195   1.687   0.945   4.387  1.0149  1.8910 -1.0313
    1OL    C111 9196   1.638   0.730   4.390 -0.6392 -0.2230  0.3050
    1OL    H11R 9197   1.731   0.674   4.395 -0.0041  0.8667  1.1154
    1OL    H11S 9198   1.568   0.663   4.339 -0.4273 -0.5930  0.4969
    1OL    C112 9199   1.574   0.759   4.525  0.5271  0.1624 -0.2007
    1OL    H12R 9200   1.487   0.825   4.515  0.2759  0.3142  2.3256
    1OL    H12S 9201   1.636   0.828   4.584  1.3647  0.4193 -1.3562
    1OL    C113 9202   1.535   0.641   4.615  0.4825  0.2182  0.1763
    1OL    H13R 9203   1.444   0.595   4.575  0.9904  0.3105 -1.1533
    1OL    H13S 9204   1.503   0.688   4.708  0.3856  1.0019 -0.2454
    1OL    C114 9205   1.631   0.526   4.644  0.4419 -0.0614  0.0551
    1OL    H14R 9206   1.721   0.563   4.694  0.0438  0.8149  0.1425
    1OL    H14S 9207   1.667   0.494   4.546  2.6407  1.4666  0.2868
    1OL    C115 9208   1.579   0.413   4.735 -0.0643  0.4258 -0.0559
    1OL    H15R 9209   1.526   0.459   4.818 -0.7759  0.9852 -0.7936
    1OL    H15S 9210   1.665   0.359   4.775  0.3057  0.0337 -1.3278
    1OL    C116 9211   1.491   0.316   4.647  0.1277 -0.4694 -0.4559
    1OL    H16R 9212   1.564   0.258   4.590  0.5401 -1.7166  1.2608
    1OL    H16S 9213   1.438   0.365   4.565  0.9501 -0.1630 -0.8156
    1OL    C117 9214   1.396   0.229   4.731 -0.4446  0.3416 -0.8517
    1OL    H17R 9215   1.334   0.300   4.786  0.1226  0.4417 -0.3299
    1OL    H17S 9216   1.465   0.175   4.797 -0.8780  1.5664  0.6813
    1OL    C118 9217   1.313   0.128   4.656  0.5501 -0.0454  0.4286
    1OL    H18R 9218   1.249   0.192   4.594  2.0501  0.6472 -0.4592
    1OL    H18S 9219   1.247   0.069   4.721  2.0332 -2.6097 -0.2590
    1OL    H18T 9220   1.379   0.067   4.595  1.0621 -1.2123  2.0729
    1PA    C116 9221   4.548   5.224   5.143  1.1483  0.1805 -0.5097
    1PA    H16R 9222   4.510   5.313   5.192 -0.7044 -0.7398 -0.2081
    1PA    H16S 9223   4.648   5.236   5.101  1.1605  0.7487 -0.3356
    1PA    H16T 9224   4.540   5.151   5.224 -1.1886  3.0097  2.0345
    1PA    C115 9225   4.460   5.175   5.024  0.1493  1.4378  0.1699
    1PA    H15R 9226   4.462   5.247   4.943 -1.6259  1.5242  0.1722
    1PA    H15S 9227   4.482   5.076   4.983  0.3351  1.1894  0.8450
    1PA    C114 9228   4.307   5.168   5.052  0.3623  0.1580 -0.6188
    1PA    H14R 9229   4.277   5.103   5.135  1.0444 -0.8989 -1.1713
    1PA    H14S 9230   4.275   5.269   5.075  1.2815  0.0440  1.3806
    1PA    C113 9231   4.222   5.126   4.936  0.1075 -0.3867 -0.5514
    1PA    H13R 9232   4.119   5.159   4.950 -0.2998 -1.8141 -0.0365
    1PA    H13S 9233   4.249   5.186   4.848 -0.2302  0.2807 -0.2078
    1PA    C112 9234   4.217   4.978   4.903  0.3073 -0.1773  0.2284
    1PA    H12R 9235   4.319   4.943   4.916  0.1749 -0.6796 -0.0144
    1PA    H12S 9236   4.153   4.933   4.979  0.2286 -1.6391 -0.6667
    1PA    C111 9237   4.173   4.948   4.755  0.2749 -0.2863 -0.2194
    1PA    H11R 9238   4.243   4.995   4.686  1.7004 -2.0570 -0.0504
    1PA    H11S 9239   4.200   4.844   4.738  1.8376  0.2138 -0.9774
    1PA    C110 9240   4.027   4.980   4.716 -0.7690 -0.5011  0.1510
    1PA    H10R 9241   4.002   5.071   4.770  2.4846  1.1675 -0.8641
    1PA    H10S 9242   4.011   4.995   4.609 -0.3056 -1.6504 -0.0991
    1PA     C19 9243   3.927   4.872   4.753 -0.6798  0.0556  0.1193
    1PA     H9R 9244   3.934   4.842   4.857 -0.5574  0.6445  0.2856
    1PA     H9S 9245   3.825   4.909   4.737 -0.7397 -0.7258 -1.5891
    1PA     C18 9246   3.934   4.746   4.667  0.4210 -0.7419 -0.7286
    1PA     H8R 9247   4.030   4.699   4.690 -0.2166 -1.8048 -0.1838
    1PA     H8S 9248   3.862   4.674   4.706 -0.9075  2.1883  2.8098
    1PA     C17 9249   3.923   4.781   4.516  0.1144 -0.0968 -0.0280
    1PA     H7R 9250   3.819   4.806   4.499 -0.0788 -1.8329 -1.8849
    1PA     H7S 9251   3.979   4.859   4.464  2.1233 -2.5381 -1.7721
    1PA     C16 9252   3.936   4.642   4.446  0.4615 -0.0800 -0.0214
    1PA     H6R 9253   4.033   4.604   4.478  0.3300  0.4828  1.0697
    1PA     H6S 9254   3.863   4.567   4.478  2.2236 -2.5848 -1.4829
    1PA     C15 9255   3.932   4.667   4.288 -0.0834  0.3280 -0.1209
    1PA     H5R 9256   3.844   4.721   4.255  0.7431  1.6132 -0.2969
    1PA     H5S 9257   4.020   4.728   4.265  0.2635 -0.8022 -1.9962
    1PA     C14 9258   3.958   4.540   4.205  0.0274  0.0862  0.1299
    1PA     H4R 9259   4.051   4.488   4.228 -0.1115  0.0197  0.5700
    1PA     H4S 9260   3.876   4.471   4.229  0.5129  0.2438  2.5006
    1PA     C13 9261   3.954   4.582   4.059 -0.7952 -0.0061  0.1503
    1PA     H3R 9262   3.998   4.681   4.042 -0.4841 -0.1355  0.2018
    1PA     H3S 9263   4.015   4.514   4.000 -0.1702 -1.2533  2.1389
    1PA     C12 9264   3.808   4.586   3.999 -0.7065 -1.0103 -0.5149
    1PA     H2R 9265   3.747   4.506   4.042 -0.9369 -0.6937 -0.2457
    1PA     H2S 9266   3.761   4.683   4.016  0.9886 -0.0326 -1.2173
    1PC     C11 9267   3.821   4.571   3.849 -0.8958 -0.4076  0.9472
    1PC     O12 9268   3.887   4.652   3.784  0.4367  0.5191  0.2739
    1PC     O11 9269   3.759   4.466   3.800 -0.6958  1.0698 -0.4691
    1PC      C1 9270   3.732   4.462   3.661  0.0316 -1.0078 -0.5885
    1PC      HR 9271   3.654   4.388   3.642 -1.4360  0.4439 -0.5462
    1PC      HS 9272   3.678   4.551   3.628 -1.8437 -1.1675  1.7616
    1PC      C2 9273   3.859   4.429   3.581 -0.1375 -0.0852  0.0869
    1PC      HX 9274   3.934   4.508   3.583  0.9710 -1.1218  0.4241
    1PC      C3 9275   3.836   4.421   3.429 -0.5614  0.2364 -0.3975
    1PC      HA 9276   3.773   4.336   3.403  1.1588 -0.7227 -1.6521
    1PC      HB 9277   3.787   4.510   3.389  1.4443 -0.0937 -3.9561
    1PC     O31 9278   3.964   4.396   3.363 -0.5317 -0.3482  0.3473
    1PC     P31 9279   4.066   4.502   3.294 -0.1951 -0.0110  0.0596
    1PC     O32 9280   4.148   4.547   3.423 -0.1533 -0.4122  0.0491
    1PC     C31 9281   4.242   4.461   3.482 -0.2455  0.1263 -0.1580
    1PC     H1A 9282   4.245   4.479   3.589  1.7289 -2.0777  0.2425
    1PC     H1B 9283   4.209   4.357   3.474 -2.0505  0.6179  0.4196
    1PC     C32 9284   4.384   4.482   3.420  0.0851 -0.5498 -0.3640
    1PC     H2A 9285   4.444   4.401   3.461  3.0807  1.4247 -0.4608
    1PC     H2B 9286   4.374   4.449   3.316 -0.3120 -1.1830 -0.1285
    1PC     N31 9287   4.458   4.614   3.428 -0.4028 -0.1920 -0.2664
    1PC     C33 9288   4.598   4.593   3.394  0.1824 -0.0787 -1.1193
    1PC     H3A 9289   4.645   4.692   3.395 -2.7527  1.4357  0.7201
    1PC     H3B 9290   4.634   4.527   3.474  2.5279  1.2462 -0.9871
    1PC     H3C 9291   4.618   4.535   3.305  3.5006  1.2543 -1.3796
    1PC     C34 9292   4.401   4.714   3.330 -0.7594  0.2174 -0.4520
    1PC     H4A 9293   4.367   4.659   3.242 -0.5909  1.0575 -1.0613
    1PC     H4B 9294   4.318   4.765   3.377 -0.2923 -0.6479  1.3844
    1PC     H4C 9295   4.480   4.787   3.308  0.4810 -0.5226  1.3789
    1PC     C35 9296   4.461   4.676   3.566  0.0832 -0.1717 -0.7766
    1PC     H5A 9297   4.367   4.726   3.592  0.0098 -0.8273  0.3124
    1PC     H5B 9298   4.546   4.744   3.568 -0.0086 -0.0265  1.6320
    1PC     H5C 9299   4.472   4.590   3.633 -0.3431 -0.8990 -1.6177
    1PC     O33 9300   4.153   4.439   3.193 -0.3620 -0.0233 -0.1950
    1PC     O34 9301   3.996   4.622   3.259  0.0758 -0.1526  0.1207
    1PC     O21 9302   3.916   4.304   3.625  0.0973 -0.0590 -0.1520
    1PC     C21 9303   4.017   4.314   3.723 -0.3533 -0.6355  0.5472
    1PC     O22 9304   4.072   4.421   3.756  0.1235  0.9095  0.1184
    1OL     C12 9305   4.048   4.178   3.775 -0.4461  0.3932 -0.4259
    1OL     H2R 9306   4.150   4.186   3.812  0.0560 -2.7210 -0.9113
    1OL     H2S 9307   4.046   4.094   3.707 -1.3671 -1.4703  1.7706
    1OL     C13 9308   3.973   4.145   3.909  0.3515 -0.1429  0.1549
    1OL     H3R 9309   3.871   4.113   3.886  0.6266  0.2289 -1.7979
    1OL     H3S 9310   3.965   4.240   3.962  0.0056  0.7625 -1.4334
    1OL     C14 9311   4.044   4.046   4.005  0.0842 -0.2285 -0.3631
    1OL     H4R 9312   4.058   3.955   3.948 -3.5677 -0.4324 -1.1941
    1OL     H4S 9313   3.971   4.026   4.084  0.0859  0.4252 -0.1880
    1OL     C15 9314   4.173   4.099   4.071 -0.1109  0.3311  0.1653
    1OL     H5R 9315   4.241   4.109   3.986 -0.6521 -1.3365 -0.5110
    1OL     H5S 9316   4.211   4.018   4.135 -0.0124 -1.3316 -1.8874
    1OL     C16 9317   4.163   4.232   4.137 -0.2378 -0.6881 -0.0821
    1OL     H6R 9318   4.076   4.233   4.202 -0.6423  0.2827 -0.6252
    1OL     H6S 9319   4.153   4.312   4.064 -2.8705 -0.7730  0.1154
    1OL     C17 9320   4.284   4.274   4.213  0.1978  0.2335 -0.6956
    1OL     H7R 9321   4.263   4.365   4.269  2.0692 -0.5657  1.4885
    1OL     H7S 9322   4.367   4.300   4.147  0.3631  0.9132 -0.2377
    1OL     C18 9323   4.338   4.163   4.308  0.0741  0.3426 -0.4279
    1OL     H8R 9324   4.384   4.083   4.249  1.4444  0.6173  0.2303
    1OL     H8S 9325   4.255   4.120   4.364  0.5665 -1.6138 -1.1210
    1OL     C19 9326   4.433   4.219   4.406  0.5620  0.8793  0.0943
    1OL     H9R 9327   4.538   4.203   4.385  0.3865 -1.2723  0.6511
    1OL    C110 9328   4.407   4.261   4.529 -0.8132  0.2532  0.0984
    1OL    H10R 9329   4.486   4.286   4.599 -0.9217 -2.3310  1.2298
    1OL    C111 9330   4.269   4.273   4.594  0.3816  0.4710  0.4631
    1OL    H11R 9331   4.254   4.192   4.666 -1.3679  0.7911  0.5071
    1OL    H11S 9332   4.192   4.261   4.517  0.5459 -0.5399  0.4309
    1OL    C112 9333   4.246   4.406   4.666 -0.0520  0.0956  0.0229
    1OL    H12R 9334   4.215   4.481   4.593  0.8798  0.2505 -0.2284
    1OL    H12S 9335   4.341   4.433   4.712  0.0637  0.0118 -0.1645
    1OL    C113 9336   4.140   4.408   4.775  0.5003  0.6786 -0.0447
    1OL    H13R 9337   4.132   4.508   4.819 -1.1612 -0.0069  1.3287
    1OL    H13S 9338   4.166   4.344   4.860  1.0330  1.9925  0.8140
    1OL    C114 9339   3.990   4.371   4.747  0.1755 -0.4081  0.3335
    1OL    H14R 9340   3.977   4.277   4.692 -1.5333  0.1553 -0.2843
    1OL    H14S 9341   3.959   4.442   4.669  2.8396 -0.4687 -0.8730
    1OL    C115 9342   3.894   4.391   4.867  0.0173  0.4107  0.4711
    1OL    H15R 9343   3.899   4.492   4.909  1.1051  0.5055  0.1667
    1OL    H15S 9344   3.914   4.312   4.939 -1.2119 -1.7616 -1.4347
    1OL    C116 9345   3.755   4.364   4.818  0.6239  0.7751  0.0581
    1OL    H16R 9346   3.746   4.262   4.779 -1.6891 -0.0257  2.4427
    1OL    H16S 9347   3.725   4.426   4.733 -3.0081 -0.9467 -0.1149
    1OL    C117 9348   3.655   4.378   4.937 -0.0920 -0.0714  0.0644
    1OL    H17R 9349   3.560   4.416   4.899  0.8175  2.9162  0.5299
    1OL    H17S 9350   3.694   4.453   5.006 -0.4246  0.3677 -0.2172
    1OL    C118 9351   3.620   4.250   5.015  0.3258 -0.5351 -0.4017
    1OL    H18R 9352   3.571   4.278   5.108 -0.0159 -2.0926 -0.0772
    1OL    H18S 9353   3.715   4.203   5.044 -0.6089 -2.2367  0.0086
    1OL    H18T 9354   3.565   4.177   4.956 -0.8787  0.0167  0.0109
    1PA    C116 9355   0.354   2.637   4.175  0.1996 -0.1391  0.1570
    1PA    H16R 9356   0.363   2.745   4.158  0.9405 -0.4604 -1.8100
    1PA    H16S 9357   0.405   2.586   4.093 -2.1384 -0.6961 -1.0490
    1PA    H16T 9358   0.406   2.610   4.267  1.1245 -1.0513 -0.6193
    1PA    C115 9359   0.209   2.599   4.188  0.0528 -0.0069 -0.2075
    1PA    H15R 9360   0.173   2.631   4.287 -1.9013 -2.0353 -0.1633
    1PA    H15S 9361   0.153   2.655   4.113  0.3923 -1.2093 -1.3841
    1PA    C114 9362   0.206   2.441   4.180  0.1346 -0.7369  0.4247
    1PA    H14R 9363   0.265   2.419   4.091 -0.3665  1.4260 -0.4921
    1PA    H14S 9364   0.266   2.393   4.258 -0.4660  0.1244  1.4436
    1PA    C113 9365   0.066   2.371   4.174 -0.7775 -0.3234  0.5157
    1PA    H13R 9366   0.011   2.399   4.263 -0.4476 -0.2599  0.6998
    1PA    H13S 9367   0.011   2.396   4.083 -1.0729  0.0418  0.7981
    1PA    C112 9368   0.092   2.216   4.181  0.4769 -0.5353 -0.1297
    1PA    H12R 9369   0.159   2.197   4.097  3.3337  1.0287  1.6255
    1PA    H12S 9370   0.147   2.198   4.273 -1.2399 -1.0955  0.8268
    1PA    C111 9371  -0.036   2.131   4.180  0.1676 -0.6644  0.0387
    1PA    H11R 9372  -0.011   2.027   4.203 -1.4031 -1.7476 -2.7025
    1PA    H11S 9373  -0.104   2.162   4.260  2.0418 -3.4303  2.9691
    1PA    C110 9374  -0.108   2.128   4.047 -0.1145  0.5950  0.2335
    1PA    H10R 9375  -0.150   2.226   4.025 -0.3297  1.0957  2.6380
    1PA    H10S 9376  -0.039   2.103   3.966 -2.8633 -2.8545 -1.3264
    1PA     C19 9377  -0.229   2.029   4.042  0.4659 -0.5189  0.5245
    1PA     H9R 9378  -0.209   1.939   4.101 -0.9520 -0.0868  1.7165
    1PA     H9S 9379  -0.318   2.058   4.098  1.2111  1.3943  0.7933
    1PA     C18 9380  -0.261   1.985   3.900  0.1828  0.3145  0.9814
    1PA     H8R 9381  -0.315   2.057   3.839  1.4908  0.1575 -0.3981
    1PA     H8S 9382  -0.169   1.956   3.850  1.1899  1.6014  2.0050
    1PA     C17 9383  -0.358   1.862   3.892  0.0591 -0.4002  0.3193
    1PA     H7R 9384  -0.460   1.898   3.910  0.4481 -0.0762  1.9840
    1PA     H7S 9385  -0.367   1.829   3.788 -0.5204  1.7431 -0.3735
    1PA     C16 9386  -0.337   1.736   3.971  0.7652 -0.0743 -0.1683
    1PA     H6R 9387  -0.231   1.725   3.992  0.6459  0.6196  0.8755
    1PA     H6S 9388  -0.383   1.749   4.069 -0.6744 -0.1096 -0.8157
    1PA     C15 9389  -0.414   1.611   3.915 -0.1249  0.3334  0.2659
    1PA     H5R 9390  -0.395   1.533   3.989 -2.0077  0.5171  0.9841
    1PA     H5S 9391  -0.520   1.636   3.908 -0.2892 -0.7476 -2.4541
    1PA     C14 9392  -0.354   1.565   3.779  0.9845 -0.0541  0.1966
    1PA     H4R 9393  -0.337   1.647   3.708  3.0301  0.9094  1.6832
    1PA     H4S 9394  -0.257   1.516   3.791  0.9559 -0.5362 -1.3819
    1PA     C13 9395  -0.436   1.456   3.717 -0.0529 -0.3265  0.5230
    1PA     H3R 9396  -0.372   1.400   3.649  1.6402  1.0943  0.8780
    1PA     H3S 9397  -0.464   1.379   3.789 -0.8004  0.1042  0.7092
    1PA     C12 9398  -0.562   1.509   3.643 -0.5636 -0.6576 -0.9874
    1PA     H2R 9399  -0.642   1.551   3.705  0.0293 -2.7069  1.3382
    1PA     H2S 9400  -0.523   1.586   3.576  0.0248  0.0957  0.1822
    1PC     C11 9401  -0.621   1.407   3.552 -0.0648 -0.6796 -0.3397
    1PC     O12 9402  -0.581   1.375   3.444 -0.2465  0.3938 -0.0691
    1PC     O11 9403  -0.723   1.338   3.618 -0.1330 -0.1909 -0.0944
    1PC      C1 9404  -0.764   1.207   3.556  0.0569 -0.2602 -0.1590
    1PC      HR 9405  -0.849   1.166   3.611 -0.1258 -1.4868 -1.3024
    1PC      HS 9406  -0.807   1.224   3.457 -2.6172 -0.4077  0.8971
    1PC      C2 9407  -0.657   1.094   3.565  0.1874 -0.3977 -0.3729
    1PC      HX 9408  -0.570   1.121   3.505 -1.1430  2.1274 -1.3732
    1PC      C3 9409  -0.730   0.969   3.511  0.2430 -0.5327 -0.3134
    1PC      HA 9410  -0.665   0.880   3.515 -0.6000 -1.1449  0.1641
    1PC      HB 9411  -0.811   0.945   3.582 -1.0364  2.2460 -0.7297
    1PC     O31 9412  -0.784   0.983   3.371 -0.1931  0.1812  0.5727
    1PC     P31 9413  -0.695   0.938   3.244 -0.4863 -0.2608  0.3412
    1PC     O32 9414  -0.617   1.075   3.206 -0.0116  0.1666  0.6727
    1PC     C31 9415  -0.639   1.130   3.076 -0.2499 -0.1231 -0.4964
    1PC     H1A 9416  -0.747   1.117   3.060 -0.8332 -0.6853  2.9793
    1PC     H1B 9417  -0.618   1.238   3.075 -0.1029 -0.1533 -0.8346
    1PC     C32 9418  -0.545   1.051   2.981 -0.3550 -0.2905  0.2004
    1PC     H2A 9419  -0.563   0.943   2.978 -0.9381 -0.1816 -0.9343
    1PC     H2B 9420  -0.580   1.081   2.882 -1.2761 -0.1250  0.5625
    1PC     N31 9421  -0.400   1.072   2.995  0.2724 -0.2400 -0.2319
    1PC     C33 9422  -0.367   1.217   2.967  0.2375  0.1880  0.2030
    1PC     H3A 9423  -0.258   1.224   2.964  0.4102 -0.1385  3.0842
    1PC     H3B 9424  -0.415   1.254   2.876  0.0534  0.7258  0.5134
    1PC     H3C 9425  -0.408   1.268   3.054 -0.3041 -1.0491  0.6980
    1PC     C34 9426  -0.340   1.032   3.129 -0.0887  0.4635  0.4291
    1PC     H4A 9427  -0.356   0.928   3.155  0.6741 -0.0311 -1.0118
    1PC     H4B 9428  -0.233   1.056   3.124  0.1028 -0.6505 -1.7493
    1PC     H4C 9429  -0.387   1.092   3.207 -0.7940  0.5501 -0.0624
    1PC     C35 9430  -0.327   0.997   2.891  0.3391  0.2888  0.2063
    1PC     H5A 9431  -0.220   1.017   2.900  0.2838  0.5541  0.2861
    1PC     H5B 9432  -0.368   1.029   2.795 -1.9809 -0.8035  0.7717
    1PC     H5C 9433  -0.347   0.892   2.911  0.5429 -0.1588 -1.7490
    1PC     O33 9434  -0.589   0.847   3.284  0.8311  0.3952  0.1097
    1PC     O34 9435  -0.778   0.902   3.130 -0.1367 -0.5512 -0.3713
    1PC     O21 9436  -0.615   1.066   3.701 -0.4288  0.1209 -0.2120
    1PC     C21 9437  -0.486   1.045   3.743 -0.3713 -0.8115 -0.8125
    1PC     O22 9438  -0.395   1.050   3.663  0.1804 -0.3446 -0.0744
    1OL     C12 9439  -0.472   1.027   3.889  0.0581 -0.5598 -0.5811
    1OL     H2R 9440  -0.365   1.012   3.904  0.0096  0.3943  0.8883
    1OL     H2S 9441  -0.525   0.935   3.913 -1.4248  0.9742  2.6336
    1OL     C13 9442  -0.523   1.150   3.969  0.1984 -0.0064 -0.1216
    1OL     H3R 9443  -0.621   1.185   3.934  1.5056  1.5130 -2.5946
    1OL     H3S 9444  -0.456   1.234   3.953  0.0599  0.1047 -0.1193
    1OL     C14 9445  -0.525   1.128   4.123 -0.4403 -0.0335 -0.1237
    1OL     H4R 9446  -0.424   1.141   4.164  0.2467  0.9417 -1.9968
    1OL     H4S 9447  -0.574   1.032   4.140 -2.3551  0.8402 -0.5291
    1OL     C15 9448  -0.610   1.241   4.184 -0.0339 -0.2254 -0.4682
    1OL     H5R 9449  -0.596   1.225   4.292 -3.3689 -1.9714 -0.1819
    1OL     H5S 9450  -0.718   1.232   4.184 -0.0285 -0.9461  1.5539
    1OL     C16 9451  -0.572   1.388   4.148  1.0899  0.6825 -0.2242
    1OL     H6R 9452  -0.590   1.388   4.040  1.9963 -0.2041 -0.3825
    1OL     H6S 9453  -0.466   1.400   4.172  1.4163 -2.0671 -0.0280
    1OL     C17 9454  -0.654   1.501   4.222  0.2012  0.3147  0.5678
    1OL     H7R 9455  -0.610   1.598   4.198 -0.4254  0.6586  0.7752
    1OL     H7S 9456  -0.642   1.482   4.329 -1.2793 -1.6116  0.4396
    1OL     C18 9457  -0.803   1.508   4.177  0.2846  0.0849 -0.3599
    1OL     H8R 9458  -0.839   1.405   4.181 -1.3117  0.6433  0.5640
    1OL     H8S 9459  -0.809   1.546   4.075 -0.2255  0.6237 -0.1390
    1OL     C19 9460  -0.870   1.605   4.267  0.4216  0.2360  0.1198
    1OL     H9R 9461  -0.920   1.568   4.356 -1.6380 -0.4728 -1.2768
    1OL    C110 9462  -0.885   1.735   4.235  0.7840 -0.0976 -0.4794
    1OL    H10R 9463  -0.939   1.791   4.311  1.2117 -0.9928  0.5076
    1OL    C111 9464  -0.828   1.812   4.113 -0.0069  0.3757 -0.6460
    1OL    H11R 9465  -0.818   1.742   4.030 -1.3003 -1.1399  0.4083
    1OL    H11S 9466  -0.727   1.852   4.123 -1.2451  3.5311  0.4930
    1OL    C112 9467  -0.920   1.933   4.081 -0.1115  0.4434 -0.3737
    1OL    H12R 9468  -0.935   1.985   4.175  1.7447  1.0781 -0.3950
    1OL    H12S 9469  -1.015   1.887   4.054 -0.9856  1.9253  0.0947
    1OL    C113 9470  -0.875   2.032   3.970  0.4472  0.2082  0.1202
    1OL    H13R 9471  -0.964   2.092   3.953 -0.4137 -0.9333  0.4238
    1OL    H13S 9472  -0.867   1.980   3.874 -0.8702 -1.0577  0.6510
    1OL    C114 9473  -0.764   2.121   4.007  0.2519  0.7600 -0.9509
    1OL    H14R 9474  -0.674   2.059   4.009 -0.4524 -0.2798 -0.2239
    1OL    H14S 9475  -0.780   2.169   4.104 -0.5419  1.5270 -1.4481
    1OL    C115 9476  -0.742   2.241   3.920  0.3806  0.4679  0.3264
    1OL    H15R 9477  -0.675   2.320   3.954  1.0765  0.4685 -0.9756
    1OL    H15S 9478  -0.840   2.289   3.911 -0.7267 -1.7645 -0.4550
    1OL    C116 9479  -0.690   2.204   3.775  0.0248  0.7089  0.3625
    1OL    H16R 9480  -0.764   2.137   3.730 -0.2856  0.4576  1.2214
    1OL    H16S 9481  -0.599   2.144   3.779 -0.9006 -0.8598 -0.9687
    1OL    C117 9482  -0.666   2.321   3.687 -0.0234 -0.4392  0.6288
    1OL    H17R 9483  -0.584   2.385   3.722 -0.9197  0.3783  1.3028
    1OL    H17S 9484  -0.751   2.388   3.674  1.5648  1.0143 -4.6051
    1OL    C118 9485  -0.633   2.264   3.546  0.2891  0.4052 -0.4926
    1OL    H18R 9486  -0.607   2.357   3.496 -1.6975  1.6936  0.7085
    1OL    H18S 9487  -0.717   2.206   3.507  0.7307 -0.3943 -0.2760
    1OL    H18T 9488  -0.551   2.193   3.555 -1.4350 -1.4009  3.1275
    1PA    C116 9489   4.827   1.629   4.766  0.0334  0.9200  0.4615
    1PA    H16R 9490   4.830   1.633   4.875  1.8822 -0.4291  0.5118
    1PA    H16S 9491   4.722   1.647   4.744 -0.4768 -0.0425  1.9382
    1PA    H16T 9492   4.889   1.700   4.711 -4.2599  2.2042 -3.2659
    1PA    C115 9493   4.853   1.482   4.728  0.4781  0.2979  0.1424
    1PA    H15R 9494   4.960   1.461   4.726  0.0028 -2.5717 -2.3080
    1PA    H15S 9495   4.815   1.407   4.798 -1.4834 -0.4682 -1.6498
    1PA    C114 9496   4.802   1.442   4.582 -0.4918 -0.2534  0.1029
    1PA    H14R 9497   4.692   1.441   4.580 -0.5397 -1.0468  1.6375
    1PA    H14S 9498   4.836   1.518   4.512 -0.7193  0.1208  0.3929
    1PA    C113 9499   4.839   1.295   4.549 -0.3825  0.2951 -0.0112
    1PA    H13R 9500   4.841   1.276   4.442  1.7444  0.9433 -0.1340
    1PA    H13S 9501   4.944   1.289   4.579 -0.7438  0.8145  1.4866
    1PA    C112 9502   4.752   1.185   4.623  0.4188 -0.2195  0.1293
    1PA    H12R 9503   4.736   1.221   4.724 -0.9883 -0.2977 -0.0529
    1PA    H12S 9504   4.655   1.178   4.572 -0.4465  0.1697  1.6716
    1PA    C111 9505   4.817   1.046   4.642  0.4660  0.5979 -0.6314
    1PA    H11R 9506   4.920   1.062   4.675 -0.2353  0.4330  1.8888
    1PA    H11S 9507   4.764   0.987   4.718  3.2583  0.1891  1.1510
    1PA    C110 9508   4.812   0.971   4.506 -0.2980 -0.4308 -0.2632
    1PA    H10R 9509   4.708   0.943   4.492 -0.5104  0.1334  0.1317
    1PA    H10S 9510   4.855   1.022   4.420  1.1924  1.1634  1.3245
    1PA     C19 9511   4.887   0.835   4.520  0.0568  0.3180 -0.2920
    1PA     H9R 9512   4.988   0.853   4.559 -0.6647 -1.2501  2.6295
    1PA     H9S 9513   4.861   0.772   4.605  0.6822 -1.2372 -1.2234
    1PA     C18 9514   4.887   0.753   4.393  0.4306  0.8478  0.7134
    1PA     H8R 9515   4.941   0.797   4.309 -0.2231  0.3138  0.0001
    1PA     H8S 9516   4.950   0.667   4.415 -0.2762 -0.8572 -3.0811
    1PA     C17 9517   4.749   0.702   4.350 -0.8496 -0.5463  0.0189
    1PA     H7R 9518   4.712   0.638   4.430  1.8082  0.4265  2.1800
    1PA     H7S 9519   4.678   0.785   4.340  0.0855  0.2118 -0.4892
    1PA     C16 9520   4.776   0.621   4.222  0.6266  0.3931 -0.5305
    1PA     H6R 9521   4.787   0.690   4.138  2.0898  1.3333  0.3832
    1PA     H6S 9522   4.869   0.565   4.226  1.4185  1.7197  1.0955
    1PA     C15 9523   4.660   0.527   4.198 -0.5006  0.3270  0.4529
    1PA     H5R 9524   4.636   0.471   4.289 -0.9979 -0.3035 -0.0641
    1PA     H5S 9525   4.564   0.578   4.185 -1.3164 -1.1488  0.5382
    1PA     C14 9526   4.685   0.427   4.081  0.4285 -1.1364  0.4910
    1PA     H4R 9527   4.773   0.365   4.100  0.2319 -0.9386  2.1761
    1PA     H4S 9528   4.602   0.357   4.083 -0.4077 -0.2279 -0.6403
    1PA     C13 9529   4.695   0.490   3.932  0.2534  0.3927  0.2114
    1PA     H3R 9530   4.772   0.566   3.924  0.6151 -0.0561 -0.7922
    1PA     H3S 9531   4.731   0.416   3.859 -0.8610  0.0444 -0.0079
    1PA     C12 9532   4.559   0.546   3.889 -0.4105 -0.3571  0.3391
    1PA     H2R 9533   4.475   0.480   3.909 -0.1805 -0.6292  0.3995
    1PA     H2S 9534   4.536   0.640   3.941 -0.0579  0.9162 -1.6831
    1PC     C11 9535   4.556   0.589   3.746 -0.1321  0.1901  0.0427
    1PC     O12 9536   4.608   0.690   3.704  0.3816  0.1634  0.2309
    1PC     O11 9537   4.483   0.501   3.673  0.5594 -0.0426 -0.4238
    1PC      C1 9538   4.473   0.514   3.529 -0.0585 -0.4888  0.2685
    1PC      HR 9539   4.554   0.575   3.488 -0.9891  1.2210  0.8586
    1PC      HS 9540   4.483   0.413   3.490 -0.7334 -0.5011  0.1161
    1PC      C2 9541   4.334   0.567   3.481 -0.5017  0.2472 -0.2170
    1PC      HX 9542   4.324   0.525   3.381  0.1546 -1.5039  0.4138
    1PC      C3 9543   4.311   0.721   3.479  0.2025  0.4149 -0.0261
    1PC      HA 9544   4.356   0.766   3.568  2.1280 -0.3284 -0.5564
    1PC      HB 9545   4.362   0.746   3.386 -0.3967 -1.4425 -0.9066
    1PC     O31 9546   4.166   0.744   3.462  0.4750 -0.1868 -0.4162
    1PC     P31 9547   4.102   0.742   3.322 -0.2503 -0.6828 -0.2631
    1PC     O32 9548   4.085   0.897   3.292  0.1018 -0.2130  0.0604
    1PC     C31 9549   4.191   0.982   3.243 -0.9221  0.2371 -0.2885
    1PC     H1A 9550   4.257   1.005   3.327 -0.4111 -0.8306 -0.3760
    1PC     H1B 9551   4.249   0.930   3.166 -2.1683  0.1460 -1.2116
    1PC     C32 9552   4.115   1.103   3.178  0.2193  0.3770  0.3280
    1PC     H2A 9553   4.066   1.057   3.092  0.7347  2.8587 -1.3811
    1PC     H2B 9554   4.050   1.143   3.255  0.3753  1.0102  0.1369
    1PC     N31 9555   4.200   1.213   3.127  0.5058 -0.6843  0.2049
    1PC     C33 9556   4.121   1.335   3.103 -0.1443  0.3860  0.7811
    1PC     H3A 9557   4.075   1.359   3.199 -1.5015  0.8458  0.0332
    1PC     H3B 9558   4.183   1.415   3.061 -0.2616 -0.3802 -0.9465
    1PC     H3C 9559   4.036   1.316   3.037  1.9233 -0.3650 -1.8718
    1PC     C34 9560   4.300   1.249   3.231  0.1897 -0.2072  0.0409
    1PC     H4A 9561   4.371   1.167   3.243  0.1158 -0.1875  0.6438
    1PC     H4B 9562   4.345   1.344   3.204  1.2738 -0.6558  0.2189
    1PC     H4C 9563   4.235   1.262   3.317 -0.3015  3.1096 -0.6950
    1PC     C35 9564   4.284   1.178   3.008 -0.0267 -0.0648 -0.2550
    1PC     H5A 9565   4.308   1.072   3.020 -0.5868 -0.2736 -0.8884
    1PC     H5B 9566   4.375   1.239   3.011  0.1973 -0.1804 -2.5983
    1PC     H5C 9567   4.227   1.207   2.919 -1.3412  0.0538  0.6036
    1PC     O33 9568   4.184   0.681   3.214 -0.6537 -0.3488  0.1462
    1PC     O34 9569   3.971   0.689   3.350  0.1991 -1.0536 -0.2018
    1PC     O21 9570   4.233   0.510   3.566 -0.0375 -0.5427  0.6946
    1PC     C21 9571   4.216   0.375   3.565  0.1723 -0.0811 -1.4315
    1PC     O22 9572   4.274   0.299   3.491  0.4736  0.5504  0.1645
    1OL     C12 9573   4.113   0.335   3.664 -0.1222  0.4603 -0.9611
    1OL     H2R 9574   4.019   0.331   3.608 -2.1607  0.1031  2.2468
    1OL     H2S 9575   4.099   0.415   3.737  2.1478  0.2010 -0.1709
    1OL     C13 9576   4.137   0.191   3.727 -0.8152  0.2341  0.3223
    1OL     H3R 9577   4.121   0.121   3.645 -1.5203 -0.7766  1.2902
    1OL     H3S 9578   4.062   0.190   3.807  0.5434  1.6107  1.6715
    1OL     C14 9579   4.279   0.173   3.779  0.7604 -0.0988 -0.1060
    1OL     H4R 9580   4.319   0.268   3.814 -0.2729  0.0583  0.7061
    1OL     H4S 9581   4.339   0.140   3.694 -0.7150  0.5714 -1.4650
    1OL     C15 9582   4.295   0.074   3.896 -0.1322 -0.1471  0.4722
    1OL     H5R 9583   4.242  -0.020   3.879 -2.7998  0.8658  2.4934
    1OL     H5S 9584   4.235   0.119   3.976  2.5158 -0.3225  2.6804
    1OL     C16 9585   4.437   0.073   3.954 -0.4528  0.3656  0.4641
    1OL     H6R 9586   4.470   0.176   3.970  2.6512 -0.3368 -0.7240
    1OL     H6S 9587   4.512   0.022   3.894  1.0747  0.4748  2.2097
    1OL     C17 9588   4.428  -0.000   4.084  0.2343  0.2440 -0.0977
    1OL     H7R 9589   4.386  -0.099   4.064  0.0880  0.4430 -0.7900
    1OL     H7S 9590   4.343   0.044   4.136  0.1242  0.2466 -0.2817
    1OL     C18 9591   4.558  -0.027   4.169  0.4467 -0.1555  0.9714
    1OL     H8R 9592   4.628  -0.093   4.118 -0.1813 -0.6347  0.7169
    1OL     H8S 9593   4.538  -0.079   4.263 -0.0086 -0.8001  0.5243
    1OL     C19 9594   4.621   0.100   4.205  0.0893 -0.2078 -0.0216
    1OL     H9R 9595   4.703   0.141   4.147  0.3344  0.1666  0.5730
    1OL    C110 9596   4.598   0.161   4.322 -0.1615 -0.2112 -0.0181
    1OL    H10R 9597   4.649   0.254   4.346 -1.4255  0.3307  0.6566
    1OL    C111 9598   4.496   0.118   4.426  0.2524 -0.2344 -0.1491
    1OL    H11R 9599   4.556   0.068   4.503  2.8411  3.1235  0.2266
    1OL    H11S 9600   4.415   0.054   4.389 -0.4251  1.2313 -1.2788
    1OL    C112 9601   4.434   0.238   4.508  0.5464  0.0904 -0.5436
    1OL    H12R 9602   4.507   0.308   4.547 -1.5730  1.7477  0.6715
    1OL    H12S 9603   4.406   0.197   4.605  2.8435  0.0559  0.1549
    1OL    C113 9604   4.306   0.304   4.446  0.9725 -0.4868  0.3689
    1OL    H13R 9605   4.257   0.374   4.514  1.1509 -0.7735  0.7940
    1OL    H13S 9606   4.236   0.224   4.422 -0.8011  1.9259 -3.5612
    1OL    C114 9607   4.338   0.369   4.310  0.6645 -0.0988 -0.1332
    1OL    H14R 9608   4.377   0.295   4.240  0.2808  0.3463 -0.8290
    1OL    H14S 9609   4.422   0.438   4.320  1.3135 -0.8012 -0.5896
    1OL    C115 9610   4.220   0.443   4.241 -0.3133 -0.4271 -0.8529
    1OL    H15R 9611   4.196   0.531   4.302 -0.9395 -1.0717 -0.1438
    1OL    H15S 9612   4.130   0.381   4.247 -0.5224 -0.0514  0.3271
    1OL    C116 9613   4.250   0.476   4.099 -0.2974  0.4101 -0.1527
    1OL    H16R 9614   4.294   0.381   4.069  0.0733 -0.9810  4.1508
    1OL    H16S 9615   4.327   0.554   4.094  1.7116 -1.4780 -0.1853
    1OL    C117 9616   4.129   0.519   4.008 -0.4902  0.4963 -0.1384
    1OL    H17R 9617   4.060   0.434   4.005  0.6050 -0.5190  1.6324
    1OL    H17S 9618   4.160   0.552   3.909  1.1324 -0.2333  0.0823
    1OL    C118 9619   4.049   0.643   4.065  0.8311  0.6408  0.5382
    1OL    H18R 9620   4.110   0.732   4.077 -3.2559  3.6374  1.2553
    1OL    H18S 9621   4.007   0.616   4.162  2.0838 -2.9857  0.2308
    1OL    H18T 9622   3.965   0.669   4.000 -0.4903  1.0051  2.3328
    1PA    C116 9623   0.922   2.892   4.682 -0.0779  0.0211 -0.1909
    1PA    H16R 9624   0.951   2.951   4.595  1.1931  0.3775  0.4558
    1PA    H16S 9625   0.846   2.822   4.648 -0.3942 -0.1783  0.8942
    1PA    H16T 9626   1.013   2.835   4.704  1.1669  2.8500  2.7945
    1PA    C115 9627   0.877   2.979   4.802 -0.7260  0.4148 -0.8367
    1PA    H15R 9628   0.835   2.929   4.890  1.1251  0.4033  0.1003
    1PA    H15S 9629   0.964   3.034   4.838 -0.8252  0.5717 -0.8342
    1PA    C114 9630   0.773   3.083   4.771  0.4441  0.9551  0.0675
    1PA    H14R 9631   0.680   3.030   4.750  1.1712 -0.1476 -0.5344
    1PA    H14S 9632   0.760   3.136   4.866 -0.4035  0.9845 -0.0582
    1PA    C113 9633   0.800   3.173   4.650 -0.2776 -0.2973  0.4814
    1PA    H13R 9634   0.896   3.221   4.673 -0.4549 -0.4859  1.6989
    1PA    H13S 9635   0.814   3.113   4.560 -0.7035  0.3944 -0.0542
    1PA    C112 9636   0.687   3.281   4.622 -0.9114 -0.5334  0.2399
    1PA    H12R 9637   0.588   3.236   4.615 -0.5782 -1.0474 -1.5477
    1PA    H12S 9638   0.684   3.335   4.717  1.9632  0.6870 -0.2590
    1PA    C111 9639   0.693   3.377   4.503 -0.4075  1.2580 -0.6451
    1PA    H11R 9640   0.618   3.455   4.515  0.3913  2.0319 -0.5776
    1PA    H11S 9641   0.793   3.420   4.500  0.9519 -1.6785 -0.4769
    1PA    C110 9642   0.663   3.307   4.369  0.2799 -0.0588  0.6152
    1PA    H10R 9643   0.732   3.223   4.361  0.7945  0.4231 -0.2519
    1PA    H10S 9644   0.563   3.265   4.371  0.2154 -0.0225 -0.7214
    1PA     C19 9645   0.674   3.407   4.250 -0.2762 -0.2483 -0.6443
    1PA     H9R 9646   0.623   3.364   4.163  1.7661  0.3849 -2.2349
    1PA     H9S 9647   0.610   3.490   4.280 -0.0931 -0.5810  0.7256
    1PA     C18 9648   0.813   3.471   4.213  0.5530  0.0628  0.4849
    1PA     H8R 9649   0.798   3.541   4.130  1.7581  1.6569  1.5451
    1PA     H8S 9650   0.850   3.529   4.298  0.3382  0.2948  0.4196
    1PA     C17 9651   0.924   3.358   4.193  0.0572 -0.2764  0.0836
    1PA     H7R 9652   0.923   3.313   4.292 -0.3243  1.3184  0.8360
    1PA     H7S 9653   0.890   3.284   4.119  0.4799  1.8360 -2.3938
    1PA     C16 9654   1.068   3.420   4.165 -0.0162  0.0923 -0.0245
    1PA     H6R 9655   1.096   3.491   4.244  0.9733 -1.7181  1.3246
    1PA     H6S 9656   1.147   3.346   4.175  1.5594  1.7632  0.4940
    1PA     C15 9657   1.084   3.482   4.025  0.2299 -0.2295  0.4326
    1PA     H5R 9658   1.065   3.590   4.030 -2.1532 -0.5845  0.3426
    1PA     H5S 9659   1.188   3.475   3.992 -0.1168 -0.5427 -0.6017
    1PA     C14 9660   1.016   3.410   3.909  0.1156 -0.2387 -0.2468
    1PA     H4R 9661   1.048   3.306   3.920 -0.1259 -0.4813 -1.6734
    1PA     H4S 9662   0.907   3.404   3.923  0.3680  0.6674  2.6667
    1PA     C13 9663   1.050   3.454   3.766  0.3314 -0.7287  0.6740
    1PA     H3R 9664   1.038   3.562   3.757  0.1281 -0.7643  0.5056
    1PA     H3S 9665   1.157   3.435   3.755  0.0598 -1.9792 -0.0057
    1PA     C12 9666   0.966   3.393   3.653  0.4633  0.1829  0.0392
    1PA     H2R 9667   1.007   3.436   3.562 -0.5846  0.5400 -0.2753
    1PA     H2S 9668   0.973   3.284   3.650 -0.7735  0.0284  1.5869
    1PC     C11 9669   0.811   3.430   3.646 -0.8933  0.7937  0.4579
    1PC     O12 9670   0.749   3.500   3.720  0.0866  0.4105  0.0175
    1PC     O11 9671   0.766   3.360   3.544  0.4784  0.2114  0.6470
    1PC      C1 9672   0.632   3.373   3.486 -0.1613  0.5549 -0.0650
    1PC      HR 9673   0.606   3.283   3.430  0.8705 -0.5618  1.1789
    1PC      HS 9674   0.559   3.382   3.567  0.8962  0.7382  0.9002
    1PC      C2 9675   0.601   3.500   3.407 -0.3171 -0.0876 -0.7811
    1PC      HX 9676   0.495   3.523   3.397 -0.4716  0.4819  1.5856
    1PC      C3 9677   0.651   3.491   3.260  0.8404 -0.1279 -0.1085
    1PC      HA 9678   0.760   3.497   3.270  0.9833  2.1115 -2.1765
    1PC      HB 9679   0.613   3.398   3.216  0.6685  1.0505 -2.5962
    1PC     O31 9680   0.602   3.598   3.176 -0.9474 -0.0629 -0.2455
    1PC     P31 9681   0.462   3.602   3.087 -0.2661 -0.1876 -0.0512
    1PC     O32 9682   0.374   3.717   3.141 -0.3862  0.5134 -0.6930
    1PC     C31 9683   0.417   3.847   3.113  0.4873 -0.5930  0.0121
    1PC     H1A 9684   0.387   3.912   3.196 -2.3522  0.1710 -1.4738
    1PC     H1B 9685   0.526   3.841   3.113  0.4582 -2.0178  1.9622
    1PC     C32 9686   0.356   3.905   2.978  0.2464  0.1469 -0.1422
    1PC     H2A 9687   0.391   3.839   2.899 -1.5579 -0.8837 -0.1477
    1PC     H2B 9688   0.247   3.901   2.975  0.2564  0.3531 -2.4130
    1PC     N31 9689   0.391   4.036   2.931 -0.4728  0.2290  0.4196
    1PC     C33 9690   0.351   4.042   2.791 -0.4901 -0.0635  0.3681
    1PC     H3A 9691   0.379   4.145   2.768 -1.2110 -0.2169 -1.3946
    1PC     H3B 9692   0.409   3.971   2.731  2.0840  1.3095  1.0929
    1PC     H3C 9693   0.243   4.029   2.782 -0.5923  0.5032  0.7155
    1PC     C34 9694   0.331   4.140   3.018 -0.5533  0.9959 -0.5900
    1PC     H4A 9695   0.379   4.237   3.000  0.2682  0.2824 -2.4422
    1PC     H4B 9696   0.226   4.144   2.992 -0.8338  1.2981  0.5099
    1PC     H4C 9697   0.344   4.099   3.119  0.8498 -2.5760 -2.0659
    1PC     C35 9698   0.542   4.057   2.935  0.8223  0.0560 -0.2629
    1PC     H5A 9699   0.567   4.072   3.040  0.2475 -0.8275  0.0139
    1PC     H5B 9700   0.563   4.147   2.877  3.4487  0.4737  1.1936
    1PC     H5C 9701   0.592   3.969   2.896  0.0944 -0.8371  0.7691
    1PC     O33 9702   0.505   3.638   2.952  0.2069  0.3092  0.5779
    1PC     O34 9703   0.394   3.470   3.103 -0.1389  0.5736 -0.7015
    1PC     O21 9704   0.670   3.616   3.466  0.8520  0.1237 -0.4029
    1PC     C21 9705   0.603   3.723   3.513 -0.9262 -0.0602 -0.3489
    1PC     O22 9706   0.489   3.747   3.474 -0.4455 -0.0790  0.0315
    1OL     C12 9707   0.685   3.808   3.612  0.1103  0.2905 -0.5791
    1OL     H2R 9708   0.737   3.882   3.551 -0.8796  2.5206  1.1176
    1OL     H2S 9709   0.758   3.745   3.663 -0.3732  0.5469  0.4464
    1OL     C13 9710   0.606   3.886   3.724  0.2864 -0.3431  0.4370
    1OL     H3R 9711   0.521   3.821   3.746 -0.4988 -0.0145 -1.4596
    1OL     H3S 9712   0.571   3.979   3.679 -1.4507 -0.3438  1.6596
    1OL     C14 9713   0.680   3.936   3.853 -0.0027  0.5257 -0.2650
    1OL     H4R 9714   0.626   4.024   3.887 -1.6282 -0.0744 -1.1793
    1OL     H4S 9715   0.784   3.963   3.834  0.8338 -0.4281  2.4841
    1OL     C15 9716   0.698   3.821   3.958 -0.2456 -0.1083  0.3782
    1OL     H5R 9717   0.772   3.754   3.914  0.6059  3.0737 -3.6380
    1OL     H5S 9718   0.603   3.771   3.975 -0.0121 -0.8563 -0.4655
    1OL     C16 9719   0.754   3.888   4.092  0.4454 -0.1870  0.6005
    1OL     H6R 9720   0.757   3.807   4.164  1.2641 -1.0427 -0.3678
    1OL     H6S 9721   0.689   3.971   4.121  2.1759  0.8176  1.7681
    1OL     C17 9722   0.901   3.930   4.080  0.2235 -0.5268 -0.1185
    1OL     H7R 9723   0.913   4.013   4.011 -0.0334  0.5873  1.1299
    1OL     H7S 9724   0.957   3.846   4.038 -1.4985 -1.7475 -0.0637
    1OL     C18 9725   0.959   3.958   4.219  0.1704  0.2283 -0.7158
    1OL     H8R 9726   0.944   3.873   4.285 -0.9702  0.1474 -1.0614
    1OL     H8S 9727   0.907   4.043   4.263  0.4221  1.4281 -2.6029
    1OL     C19 9728   1.104   3.994   4.207  0.0924  0.2340  0.0199
    1OL     H9R 9729   1.136   4.043   4.115 -1.6778  1.6626  0.1021
    1OL    C110 9730   1.200   3.982   4.301 -0.0361 -0.0485 -0.0207
    1OL    H10R 9731   1.297   4.026   4.276  0.5571 -1.1405  0.2878
    1OL    C111 9732   1.186   3.938   4.450 -0.2464 -1.3238 -0.4629
    1OL    H11R 9733   1.262   3.865   4.478 -2.4090 -3.7386 -0.5379
    1OL    H11S 9734   1.094   3.882   4.468  0.2643 -2.6638 -1.7932
    1OL    C112 9735   1.207   4.053   4.543 -0.4569  0.2618 -0.6240
    1OL    H12R 9736   1.132   4.129   4.520 -0.0714  1.2266  1.1024
    1OL    H12S 9737   1.308   4.093   4.531 -1.2180  3.1710  1.5845
    1OL    C113 9738   1.200   4.017   4.696  0.0380  0.0397  1.2796
    1OL    H13R 9739   1.298   3.970   4.704  0.8834  0.7978 -2.6907
    1OL    H13S 9740   1.114   3.953   4.714  0.1792 -0.9956 -1.3659
    1OL    C114 9741   1.200   4.142   4.799  0.3848 -0.0770 -0.6148
    1OL    H14R 9742   1.121   4.211   4.767 -0.4393 -1.5060 -1.8302
    1OL    H14S 9743   1.293   4.198   4.787 -0.1066  0.8642 -0.1089
    1OL    C115 9744   1.190   4.110   4.951  0.1369 -0.2356 -0.6706
    1OL    H15R 9745   1.213   4.196   5.014 -2.0314  0.3379 -0.5558
    1OL    H15S 9746   1.268   4.038   4.976 -1.9087 -2.4288 -0.2057
    1OL    C116 9747   1.052   4.043   4.993 -0.8147  0.0562 -0.5181
    1OL    H16R 9748   1.045   4.023   5.100 -1.0940 -2.4861 -0.9375
    1OL    H16S 9749   1.050   3.941   4.952 -1.9463 -0.7997  1.5015
    1OL    C117 9750   0.917   4.115   4.950 -0.0356  0.2783  0.8261
    1OL    H17R 9751   0.910   4.102   4.842  2.6218 -2.6044  0.8545
    1OL    H17S 9752   0.905   4.219   4.981  0.7822  0.5021  0.4435
    1OL    C118 9753   0.803   4.037   5.011 -0.4205  0.1644  0.5107
    1OL    H18R 9754   0.820   4.035   5.118  2.0792 -0.6281  0.1504
    1OL    H18S 9755   0.795   3.931   4.984  3.7032 -0.2745  0.4745
    1OL    H18T 9756   0.713   4.097   4.996  0.0404  0.8281  0.3376
    1PA    C116 9757   1.027   1.126   4.907  0.0813  0.1094  0.1427
    1PA    H16R 9758   1.086   1.084   4.826 -0.4588 -0.8829  0.2432
    1PA    H16S 9759   1.093   1.136   4.993  2.4667  0.0538 -1.5952
    1PA    H16T 9760   1.000   1.227   4.875  1.3064  0.5033  0.3198
    1PA    C115 9761   0.891   1.053   4.937  0.0338  0.4188  0.3589
    1PA    H15R 9762   0.901   0.962   4.997 -1.2246 -1.0021 -1.4755
    1PA    H15S 9763   0.829   1.119   4.998 -0.0236 -0.6397  1.4950
    1PA    C114 9764   0.822   1.020   4.804  0.3364 -0.1680 -0.4508
    1PA    H14R 9765   0.891   0.985   4.727  0.4972  0.8371 -0.7794
    1PA    H14S 9766   0.747   0.942   4.824  2.0588 -1.6122  0.7209
    1PA    C113 9767   0.763   1.150   4.736 -0.0490 -0.9476 -0.6603
    1PA    H13R 9768   0.696   1.202   4.805 -0.0505 -2.3611  0.4387
    1PA    H13S 9769   0.847   1.216   4.714 -0.5664 -0.5332 -1.4586
    1PA    C112 9770   0.694   1.120   4.609 -0.3177 -0.1302  1.0094
    1PA    H12R 9771   0.700   1.210   4.548 -0.3679  0.0505  1.2709
    1PA    H12S 9772   0.748   1.043   4.553 -0.0790  1.0421 -0.4215
    1PA    C111 9773   0.542   1.094   4.607  0.0994  0.2531  0.6725
    1PA    H11R 9774   0.513   1.023   4.684  2.0154 -1.7197 -0.3190
    1PA    H11S 9775   0.491   1.188   4.631  0.1095  0.2671  0.6388
    1PA    C110 9776   0.498   1.043   4.470  0.2800  0.1259  0.2339
    1PA    H10R 9777   0.551   0.949   4.452 -1.7476 -1.3455  1.5567
    1PA    H10S 9778   0.393   1.013   4.471  0.7887 -1.7426  0.4179
    1PA     C19 9779   0.526   1.142   4.355  0.3251  0.0305 -0.2839
    1PA     H9R 9780   0.507   1.245   4.387 -1.7947  0.0651 -1.4963
    1PA     H9S 9781   0.632   1.136   4.326 -0.0508  0.4777 -1.8644
    1PA     C18 9782   0.439   1.117   4.229 -0.1246  0.3152  0.2811
    1PA     H8R 9783   0.471   1.028   4.174  0.0731 -0.1655  1.1658
    1PA     H8S 9784   0.335   1.099   4.255 -0.2809  0.0314 -0.5123
    1PA     C17 9785   0.438   1.227   4.121 -0.1326 -0.0820  0.2857
    1PA     H7R 9786   0.374   1.195   4.039 -1.9633  1.0164  1.1971
    1PA     H7S 9787   0.385   1.309   4.171  1.0978 -0.2425  1.9475
    1PA     C16 9788   0.574   1.270   4.068 -0.2586 -0.1540  0.8464
    1PA     H6R 9789   0.617   1.331   4.148 -0.4675 -0.6921  1.3779
    1PA     H6S 9790   0.640   1.190   4.034  0.8109  1.1531 -0.2690
    1PA     C15 9791   0.539   1.372   3.949 -0.2520  0.0638  0.0872
    1PA     H5R 9792   0.499   1.314   3.866 -0.0231  0.2344 -0.1428
    1PA     H5S 9793   0.457   1.440   3.975 -0.6224 -0.4175  0.2102
    1PA     C14 9794   0.656   1.456   3.912 -0.1895  0.2507  0.7382
    1PA     H4R 9795   0.680   1.521   3.996 -1.0109  1.5473  0.0158
    1PA     H4S 9796   0.741   1.388   3.900  0.3377  1.2305 -1.8873
    1PA     C13 9797   0.625   1.550   3.789  0.1257  0.3572  0.3425
    1PA     H3R 9798   0.536   1.612   3.801  1.3099  2.1798  0.1784
    1PA     H3S 9799   0.710   1.618   3.774  0.6533 -0.3477  0.0690
    1PA     C12 9800   0.621   1.455   3.671  0.4887 -0.1353 -0.4126
    1PA     H2R 9801   0.713   1.397   3.683  1.8555  1.8522 -0.8697
    1PA     H2S 9802   0.537   1.385   3.669 -0.7391  1.2759  0.1171
    1PC     C11 9803   0.625   1.521   3.535  0.1106  0.4992 -0.1809
    1PC     O12 9804   0.573   1.630   3.510  0.8295  0.0584  0.7915
    1PC     O11 9805   0.686   1.446   3.445  0.2489  0.0026  0.4721
    1PC      C1 9806   0.718   1.507   3.304  0.5971  0.2199 -0.2259
    1PC      HR 9807   0.740   1.419   3.244  0.4132 -1.2307  1.7198
    1PC      HS 9808   0.632   1.556   3.258  0.4690  2.3718  2.0864
    1PC      C2 9809   0.841   1.607   3.303  0.1485  0.1328 -0.4823
    1PC      HX 9810   0.803   1.707   3.324 -0.1017  0.6298 -2.9913
    1PC      C3 9811   0.914   1.612   3.166 -0.4903  0.0054 -0.3776
    1PC      HA 9812   0.990   1.691   3.168 -0.8124  0.3180 -0.3488
    1PC      HB 9813   0.969   1.520   3.145  1.8862  1.3586 -0.4819
    1PC     O31 9814   0.831   1.639   3.051 -0.1820 -0.0359  0.2083
    1PC     P31 9815   0.877   1.610   2.899  0.2893  0.1861 -0.0917
    1PC     O32 9816   0.829   1.451   2.889  0.0424 -0.0673  0.2953
    1PC     C31 9817   0.701   1.414   2.839  0.1068 -0.3614 -0.2094
    1PC     H1A 9818   0.664   1.319   2.879  0.0819  0.5039  1.9488
    1PC     H1B 9819   0.626   1.490   2.861  0.1927 -0.6253  1.1091
    1PC     C32 9820   0.717   1.402   2.689  0.6173  0.0878 -0.1338
    1PC     H2A 9821   0.750   1.496   2.643  0.8229  0.8337  1.4830
    1PC     H2B 9822   0.799   1.335   2.660  1.6803  1.1582  0.3041
    1PC     N31 9823   0.591   1.363   2.608 -0.0273  0.1969 -0.0847
    1PC     C33 9824   0.558   1.221   2.633 -0.5602 -0.0508  0.3047
    1PC     H3A 9825   0.647   1.166   2.604  1.0561  3.0951 -1.1476
    1PC     H3B 9826   0.545   1.207   2.741  0.8715  2.0465  0.8095
    1PC     H3C 9827   0.468   1.184   2.584  0.4922 -2.2939 -0.0717
    1PC     C34 9828   0.473   1.444   2.656 -0.1703  0.7022  0.0117
    1PC     H4A 9829   0.389   1.406   2.597  1.5215 -2.1087 -0.7868
    1PC     H4B 9830   0.456   1.429   2.763  0.7603  2.1846  0.3910
    1PC     H4C 9831   0.494   1.548   2.634  1.6931  0.4145  0.2639
    1PC     C35 9832   0.613   1.396   2.465  0.5440  0.1219  0.7032
    1PC     H5A 9833   0.521   1.377   2.410  0.1457 -1.0476  1.7136
    1PC     H5B 9834   0.687   1.327   2.425 -0.2278  0.5446 -1.5805
    1PC     H5C 9835   0.642   1.498   2.438  0.3843 -0.4534 -1.8140
    1PC     O33 9836   0.805   1.699   2.808  0.4370  0.0082 -0.5139
    1PC     O34 9837   1.023   1.612   2.898 -0.6332  0.4769 -0.2400
    1PC     O21 9838   0.933   1.577   3.412 -0.0207  1.1185 -0.2672
    1PC     C21 9839   0.995   1.679   3.476  0.3628  0.3322  0.3338
    1PC     O22 9840   0.993   1.796   3.437  0.6235  0.9348 -0.3479
    1OL     C12 9841   1.086   1.627   3.591  0.5734  0.1908  0.3050
    1OL     H2R 9842   1.167   1.699   3.606  0.9697 -0.4649  1.4345
    1OL     H2S 9843   1.137   1.532   3.571  0.7341 -0.3060  2.7348
    1OL     C13 9844   1.001   1.623   3.724 -0.4328  0.3404  1.1595
    1OL     H3R 9845   0.919   1.553   3.702 -1.2617  1.1617  1.5527
    1OL     H3S 9846   0.962   1.724   3.738  2.3788  1.5952  0.5690
    1OL     C14 9847   1.079   1.586   3.852 -0.4863  0.2817  0.5861
    1OL     H4R 9848   1.122   1.486   3.839  0.4138  0.0660  4.1489
    1OL     H4S 9849   1.011   1.570   3.936 -0.8881  1.4830  0.5069
    1OL     C15 9850   1.195   1.691   3.888 -0.2772  0.8336  0.3159
    1OL     H5R 9851   1.283   1.673   3.825  2.0452  5.5646  1.6852
    1OL     H5S 9852   1.236   1.672   3.987  0.8214 -0.7024 -0.3849
    1OL     C16 9853   1.158   1.841   3.882 -0.5371  0.1581  0.2199
    1OL     H6R 9854   1.125   1.864   3.781  0.3084 -1.7984 -0.5627
    1OL     H6S 9855   1.248   1.895   3.912  0.6279 -2.0440  0.9260
    1OL     C17 9856   1.043   1.875   3.978 -0.5346 -0.1256 -0.2319
    1OL     H7R 9857   0.948   1.828   3.952 -0.4859 -0.5725  0.3742
    1OL     H7S 9858   1.016   1.980   3.977 -0.4912 -0.1099  0.1440
    1OL     C18 9859   1.071   1.848   4.134 -0.5261  0.7553  0.2846
    1OL     H8R 9860   1.165   1.897   4.161  0.0749 -0.3980  0.3252
    1OL     H8S 9861   1.084   1.740   4.142  0.5572  0.5304 -2.9051
    1OL     C19 9862   0.956   1.911   4.218 -0.9929 -0.4324  0.0208
    1OL     H9R 9863   0.995   1.993   4.279  2.3398 -0.3966 -1.9082
    1OL    C110 9864   0.832   1.880   4.224 -0.0973 -0.2093 -0.0309
    1OL    H10R 9865   0.771   1.954   4.274  1.8039  1.7125 -0.4170
    1OL    C111 9866   0.777   1.752   4.163 -0.8643  0.8592  0.1466
    1OL    H11R 9867   0.851   1.685   4.120 -0.1318  0.0095  2.5522
    1OL    H11S 9868   0.705   1.771   4.083 -0.1811 -2.0276 -1.3079
    1OL    C112 9869   0.702   1.658   4.271 -0.3298  0.0375 -0.4766
    1OL    H12R 9870   0.771   1.611   4.341  0.7427  1.8938 -0.2181
    1OL    H12S 9871   0.647   1.574   4.227  2.0451 -1.0268 -1.6234
    1OL    C113 9872   0.598   1.739   4.356 -0.1906  0.0426  0.6433
    1OL    H13R 9873   0.554   1.800   4.276  1.2284 -0.3008 -0.4465
    1OL    H13S 9874   0.652   1.807   4.422 -0.1492 -0.3973  1.0676
    1OL    C114 9875   0.496   1.655   4.447 -0.4798  0.1342 -0.2585
    1OL    H14R 9876   0.433   1.592   4.384  0.3777 -1.8484  0.7620
    1OL    H14S 9877   0.430   1.722   4.502  1.0131  0.4615  1.2017
    1OL    C115 9878   0.574   1.564   4.549 -0.4546  0.7844 -0.2523
    1OL    H15R 9879   0.651   1.620   4.601 -1.0662  2.1837 -0.8109
    1OL    H15S 9880   0.633   1.488   4.497  0.5450  1.0829  0.4325
    1OL    C116 9881   0.494   1.492   4.664  0.6207 -1.1339  0.3317
    1OL    H16R 9882   0.562   1.430   4.723  2.6029 -0.5647 -1.2162
    1OL    H16S 9883   0.423   1.424   4.616  0.9981 -1.7782  0.6607
    1OL    C117 9884   0.417   1.587   4.760 -0.5901 -0.1312  0.1351
    1OL    H17R 9885   0.356   1.654   4.699  1.3378  2.7596  1.1633
    1OL    H17S 9886   0.484   1.646   4.822 -1.7634  3.0262 -1.3764
    1OL    C118 9887   0.320   1.497   4.852 -0.4025  0.7776  0.1986
    1OL    H18R 9888   0.381   1.413   4.886  2.0330  0.8148 -3.5201
    1OL    H18S 9889   0.247   1.451   4.785  0.8448 -1.7399  0.4460
    1OL    H18T 9890   0.262   1.553   4.926  0.1678  0.2784  1.0439
    1PA    C116 9891   5.257   2.268   4.903  0.7748  0.1138 -0.1022
    1PA    H16R 9892   5.151   2.289   4.919  0.8083  0.7470 -0.6765
    1PA    H16S 9893   5.275   2.280   4.796 -3.3595  2.6976 -0.7394
    1PA    H16T 9894   5.326   2.336   4.953 -1.2103  1.8967  0.3410
    1PA    C115 9895   5.304   2.131   4.942 -0.2892  0.3384 -0.0343
    1PA    H15R 9896   5.269   2.109   5.043 -0.7564  1.4521  0.0571
    1PA    H15S 9897   5.262   2.050   4.883  0.5204 -1.6659  1.9604
    1PA    C114 9898   5.457   2.110   4.933 -0.0305 -0.7401 -0.1006
    1PA    H14R 9899   5.498   2.208   4.958  1.8651 -1.2880 -0.8993
    1PA    H14S 9900   5.498   2.038   5.004  0.2816  0.5591  1.0902
    1PA    C113 9901   5.490   2.076   4.788  0.1698  0.3632 -0.4449
    1PA    H13R 9902   5.437   1.981   4.776 -0.8642  1.1814 -2.9310
    1PA    H13S 9903   5.437   2.148   4.726 -1.2009  0.2366  0.5347
    1PA    C112 9904   5.634   2.072   4.733  0.9260  0.4404  0.1094
    1PA    H12R 9905   5.688   2.164   4.755  1.8804 -0.4227  1.5267
    1PA    H12S 9906   5.690   1.990   4.780  0.3509 -0.0405 -0.0253
    1PA    C111 9907   5.622   2.039   4.584  0.1613  0.4360  0.2759
    1PA    H11R 9908   5.581   1.940   4.560  0.3335  0.8020 -1.6974
    1PA    H11S 9909   5.543   2.100   4.540 -0.4814  0.8486  1.9281
    1PA    C110 9910   5.748   2.057   4.500  0.0083 -0.4155  0.4995
    1PA    H10R 9911   5.838   2.029   4.555 -0.4764 -2.2815  0.4085
    1PA    H10S 9912   5.752   1.982   4.420  0.8253  1.7283 -1.6051
    1PA     C19 9913   5.764   2.195   4.432  0.4789  0.4283 -0.2492
    1PA     H9R 9914   5.675   2.219   4.372  2.1300  1.5734 -2.3648
    1PA     H9S 9915   5.769   2.269   4.512  2.9871 -0.8892  0.8926
    1PA     C18 9916   5.883   2.202   4.338 -0.0572  0.2022 -0.1840
    1PA     H8R 9917   5.969   2.171   4.397  1.8886  0.9313 -2.4685
    1PA     H8S 9918   5.870   2.126   4.260  0.0444 -1.1904  1.1005
    1PA     C17 9919   5.903   2.330   4.270  0.4332  0.6884  0.1278
    1PA     H7R 9920   5.814   2.336   4.207  1.5365  0.4089 -1.5365
    1PA     H7S 9921   5.905   2.401   4.353  0.5663  1.7111 -0.7268
    1PA     C16 9922   6.024   2.342   4.177 -0.4735  0.0672 -0.7462
    1PA     H6R 9923   6.109   2.362   4.243 -0.6876 -2.9034  0.5830
    1PA     H6S 9924   6.050   2.250   4.124 -0.3995  0.1552 -0.8643
    1PA     C15 9925   6.013   2.455   4.069  0.4581 -0.3829 -0.3189
    1PA     H5R 9926   5.963   2.418   3.980  3.2188  0.4515 -2.3604
    1PA     H5S 9927   5.955   2.539   4.108  1.3250  0.2182 -0.2977
    1PA     C14 9928   6.152   2.507   4.034  0.8741 -0.1679 -0.2391
    1PA     H4R 9929   6.196   2.570   4.112 -0.8952  1.3381 -0.3840
    1PA     H4S 9930   6.207   2.414   4.017  0.2894 -0.2494 -1.8387
    1PA     C13 9931   6.139   2.578   3.901  0.0812 -0.6842  0.3784
    1PA     H3R 9932   6.100   2.514   3.821 -0.2877  0.4452 -0.3600
    1PA     H3S 9933   6.077   2.666   3.914  0.3077 -0.7307  1.8593
    1PA     C12 9934   6.276   2.627   3.851  0.1459 -0.9252 -0.0843
    1PA     H2R 9935   6.305   2.706   3.920  0.1241 -0.9485 -0.0487
    1PA     H2S 9936   6.345   2.544   3.870 -0.2898 -0.8206  2.2105
    1PC     C11 9937   6.272   2.678   3.707 -0.0856 -0.2335  0.2791
    1PC     O12 9938   6.224   2.613   3.615  0.1211 -0.2566  0.9626
    1PC     O11 9939   6.310   2.804   3.682  0.4461 -0.4167  0.1059
    1PC      C1 9940   6.297   2.865   3.548 -0.1609  0.3227  0.3545
    1PC      HR 9941   6.373   2.944   3.549 -1.3755  1.6217 -1.7306
    1PC      HS 9942   6.314   2.791   3.470  0.5674  0.4822  0.3519
    1PC      C2 9943   6.159   2.938   3.543  0.0260  0.3272 -0.0247
    1PC      HX 9944   6.091   2.854   3.561  0.3826  0.1575  0.5658
    1PC      C3 9945   6.148   2.997   3.401  0.0891  0.1671  0.2226
    1PC      HA 9946   6.215   3.084   3.399 -0.1638  0.3632 -1.3894
    1PC      HB 9947   6.179   2.936   3.316  0.7279  0.6348  0.1183
    1PC     O31 9948   6.012   3.039   3.376 -0.1805 -0.0881 -0.2968
    1PC     P31 9949   5.906   2.938   3.308 -0.3851 -0.2564  0.0826
    1PC     O32 9950   5.911   2.989   3.159  0.2274  0.0829  0.2419
    1PC     C31 9951   5.831   3.106   3.123 -0.3265  0.7471  0.3972
    1PC     H1A 9952   5.724   3.087   3.138 -0.5335  0.3819 -1.3479
    1PC     H1B 9953   5.865   3.187   3.188  0.9224  0.3768  0.2306
    1PC     C32 9954   5.852   3.148   2.980 -0.2952  1.1334  0.3072
    1PC     H2A 9955   5.803   3.244   2.964  0.9876  1.8091  0.2609
    1PC     H2B 9956   5.955   3.182   2.970 -0.2863  0.8366 -0.6648
    1PC     N31 9957   5.823   3.053   2.874 -0.5204  0.1630 -0.0896
    1PC     C33 9958   5.701   2.979   2.909  0.0651 -0.0326 -0.6056
    1PC     H3A 9959   5.665   2.924   2.821  2.4991 -1.5829 -0.7287
    1PC     H3B 9960   5.719   2.902   2.983  0.2668  0.1863 -0.4245
    1PC     H3C 9961   5.630   3.047   2.957 -0.6235 -1.9140  1.2138
    1PC     C34 9962   5.796   3.124   2.745 -0.2203 -0.2026 -0.2621
    1PC     H4A 9963   5.712   3.187   2.774 -1.0994 -1.4774  0.0091
    1PC     H4B 9964   5.883   3.183   2.716  0.4886 -1.6459 -1.2282
    1PC     H4C 9965   5.773   3.049   2.669  0.2959 -3.1356  2.3034
    1PC     C35 9966   5.927   2.944   2.848  0.0799  0.4209 -0.2188
    1PC     H5A 9967   6.028   2.984   2.842  0.2323 -0.0627 -0.9774
    1PC     H5B 9968   5.893   2.885   2.763 -0.6128 -1.7418  1.4618
    1PC     H5C 9969   5.922   2.880   2.936  0.9212 -1.5143 -1.4957
    1PC     O33 9970   5.973   2.803   3.306  0.0817 -0.1517 -0.0387
    1PC     O34 9971   5.769   2.960   3.358  0.4481  0.4474 -0.0830
    1PC     O21 9972   6.153   3.034   3.646 -0.0178 -0.3562  0.1071
    1PC     C21 9973   6.036   3.048   3.710  0.5568  0.3251 -1.1713
    1PC     O22 9974   5.933   2.981   3.691  0.0763  0.3304 -0.0698
    1OL     C12 9975   6.049   3.142   3.829  0.3002 -0.4282 -0.5925
    1OL     H2R 9976   6.127   3.214   3.800  0.4617 -0.9119 -1.3877
    1OL     H2S 9977   6.076   3.084   3.918  1.1518 -0.6752 -1.0039
    1OL     C13 9978   5.915   3.225   3.855 -1.3653 -0.0204  0.0854
    1OL     H3R 9979   5.887   3.265   3.757 -0.8649 -0.9979 -0.4788
    1OL     H3S 9980   5.941   3.310   3.918 -1.3949  1.0362 -1.2833
    1OL     C14 9981   5.798   3.157   3.925  0.2451 -0.4270  1.0381
    1OL     H4R 9982   5.828   3.121   4.024  2.6025  0.6518  0.7854
    1OL     H4S 9983   5.775   3.068   3.868  0.9521  0.2387 -0.3506
    1OL     C15 9984   5.672   3.246   3.933 -0.0129 -0.1211  0.1670
    1OL     H5R 9985   5.643   3.251   3.828 -0.7727 -2.1292  0.2381
    1OL     H5S 9986   5.695   3.343   3.977  1.6630 -1.3830  2.3061
    1OL     C16 9987   5.558   3.179   4.013 -0.0941  0.3755 -0.0737
    1OL     H6R 9988   5.467   3.239   4.017  0.2804  1.0571 -1.3134
    1OL     H6S 9989   5.586   3.168   4.118 -0.8163 -2.4839 -0.0882
    1OL     C17 9990   5.536   3.030   3.964  0.8699 -0.4184  0.0959
    1OL     H7R 9991   5.624   2.977   4.002  1.6197  0.5410 -0.2565
    1OL     H7S 9992   5.536   3.021   3.855 -0.0900  1.1449 -0.0596
    1OL     C18 9993   5.405   2.969   4.021 -0.1086  0.1875 -0.7200
    1OL     H8R 9994   5.426   2.959   4.128  0.5225  2.2285 -0.5985
    1OL     H8S 9995   5.374   2.874   3.978 -0.6479  0.6371 -1.3574
    1OL     C19 9996   5.289   3.063   3.996  0.0223  0.0771 -0.5440
    1OL     H9R 9997   5.295   3.122   3.905  0.9916 -0.8763 -1.1234
    1OL    C110 9998   5.178   3.061   4.074 -0.0451 -0.0893 -0.2178
    1OL    H10R 9999   5.093   3.126   4.056  0.2084 -0.1360 -1.7635
    1OL    C11110000   5.156   2.968   4.192 -0.4255 -0.3568 -0.5067
    1OL    H11R10001   5.203   2.875   4.159 -0.0250  0.1412 -1.3702
    1OL    H11S10002   5.048   2.955   4.200 -0.6056 -0.2754 -2.4074
    1OL    C11210003   5.198   3.026   4.327  0.3487 -0.4319 -0.3377
    1OL    H12R10004   5.149   3.121   4.342  2.1824  0.5816 -0.4254
    1OL    H12S10005   5.306   3.044   4.322  0.5891 -0.8641  2.1071
    1OL    C11310006   5.172   2.943   4.450  0.9597  0.3321 -0.2609
    1OL    H13R10007   5.066   2.916   4.452  1.0675 -0.0505  0.6960
    1OL    H13S10008   5.186   3.004   4.539 -1.8168  1.5796 -0.5695
    1OL    C11410009   5.257   2.814   4.468  0.1326 -0.6090 -0.3201
    1OL    H14R10010   5.360   2.842   4.493  0.3780 -2.2737  0.6408
    1OL    H14S10011   5.250   2.751   4.378  2.3223 -1.3893 -0.0062
    1OL    C11510012   5.204   2.727   4.579  0.3925  0.4899  0.1681
    1OL    H15R10013   5.108   2.681   4.553 -0.4810  1.2113  1.9549
    1OL    H15S10014   5.178   2.797   4.659 -1.4828  2.7697 -2.2290
    1OL    C11610015   5.302   2.618   4.636 -0.0830 -0.1383 -0.0553
    1OL    H16R10016   5.263   2.593   4.735  0.0759 -0.9337 -0.1880
    1OL    H16S10017   5.399   2.668   4.648  0.0137 -0.0638 -1.0902
    1OL    C11710018   5.324   2.502   4.544 -0.2874  0.6053 -0.1405
    1OL    H17R10019   5.337   2.541   4.442  2.7625  1.2063  0.3669
    1OL    H17S10020   5.232   2.445   4.554 -1.5558  2.3913 -1.0648
    1OL    C11810021   5.458   2.426   4.567  1.2663  0.5104 -0.7109
    1OL    H18R10022   5.543   2.493   4.577 -0.0372  2.0365  0.9674
    1OL    H18S10023   5.471   2.352   4.488 -1.3151 -1.1331  0.2893
    1OL    H18T10024   5.453   2.364   4.657 -0.9700 -0.5970 -1.5319
    1PA    C11610025   2.526   4.585   4.664 -0.3983  0.2605 -1.1604
    1PA    H16R10026   2.634   4.591   4.681 -0.5781 -1.7598  1.1598
    1PA    H16S10027   2.484   4.585   4.765  1.0518 -2.7587 -0.4436
    1PA    H16T10028   2.491   4.674   4.612  1.0719  0.0567 -2.5844
    1PA    C11510029   2.487   4.454   4.596  1.1538 -0.3004 -0.3185
    1PA    H15R10030   2.509   4.450   4.489  0.5962 -0.5556 -0.4294
    1PA    H15S10031   2.548   4.380   4.648  2.3260 -0.5504 -1.9576
    1PA    C11410032   2.336   4.428   4.617 -0.1150  0.1354  0.2093
    1PA    H14R10033   2.316   4.457   4.720  1.4213  1.8244  0.0924
    1PA    H14S10034   2.290   4.504   4.553  1.3941 -0.2921 -1.4789
    1PA    C11310035   2.300   4.287   4.581  0.2949 -0.4332  0.8282
    1PA    H13R10036   2.330   4.261   4.479  2.5995 -0.4756  1.4703
    1PA    H13S10037   2.341   4.224   4.660  0.7016  0.4918  1.3634
    1PA    C11210038   2.149   4.264   4.585 -0.8323 -0.0620 -0.3309
    1PA    H12R10039   2.109   4.305   4.679  0.3625  1.5408 -0.4694
    1PA    H12S10040   2.097   4.323   4.509  0.2461  1.4465  0.0490
    1PA    C11110041   2.115   4.115   4.563  0.5628  0.7143  0.4502
    1PA    H11R10042   2.163   4.087   4.468 -0.1494  0.1503  0.2504
    1PA    H11S10043   2.153   4.057   4.647 -1.5579  0.3682  1.2407
    1PA    C11010044   1.965   4.077   4.562 -0.8158  0.1678  0.3225
    1PA    H10R10045   1.967   3.969   4.575 -1.6451  0.3671  2.5453
    1PA    H10S10046   1.915   4.118   4.650  1.0855  2.9037  0.2639
    1PA     C1910047   1.883   4.112   4.427  0.2295  0.4826 -0.4310
    1PA     H9R10048   1.777   4.105   4.451 -0.1736  3.9607 -0.7904
    1PA     H9S10049   1.905   4.211   4.386  2.1597  0.7305  1.0379
    1PA     C1810050   1.925   4.004   4.316  0.5368  0.4295 -0.3645
    1PA     H8R10051   2.028   4.013   4.278  0.8353  0.6632  0.4856
    1PA     H8S10052   1.913   3.906   4.363 -0.9750  1.3013  1.1530
    1PA     C1710053   1.833   4.018   4.193  0.2083  0.2453  0.0511
    1PA     H7R10054   1.731   3.989   4.219  0.4102 -1.0888 -0.5836
    1PA     H7S10055   1.836   4.123   4.163  0.8147  0.8373  1.9675
    1PA     C1610056   1.871   3.943   4.062 -0.2129  0.3647  0.1916
    1PA     H6R10057   1.974   3.969   4.042  0.2802 -2.8711 -2.3529
    1PA     H6S10058   1.870   3.834   4.075 -0.7704  0.5920  2.4049
    1PA     C1510059   1.788   3.978   3.941 -0.1838 -0.8703 -0.2371
    1PA     H5R10060   1.682   3.952   3.953  0.3117 -2.9223  0.0596
    1PA     H5S10061   1.805   4.078   3.901  0.8489  0.0713  2.3947
    1PA     C1410062   1.827   3.877   3.830 -0.3885  0.0188  0.2191
    1PA     H4R10063   1.936   3.875   3.831 -0.3089  2.1499  1.0386
    1PA     H4S10064   1.794   3.778   3.863  1.2717 -0.6545 -0.0467
    1PA     C1310065   1.790   3.908   3.688 -0.0448  0.0954  0.0727
    1PA     H3R10066   1.867   3.973   3.646  0.7205 -0.6476  0.3318
    1PA     H3S10067   1.792   3.816   3.630 -1.4303  0.5262 -0.7239
    1PA     C1210068   1.640   3.965   3.681 -0.2484 -0.1005  0.2055
    1PA     H2R10069   1.577   3.883   3.717 -1.7304  0.8942 -0.0815
    1PA     H2S10070   1.632   4.056   3.741 -1.7765 -0.5862  0.7807
    1PC     C1110071   1.584   3.987   3.539  1.1391 -0.3648  0.8708
    1PC     O1210072   1.623   4.072   3.467  0.0212  0.1837  1.1076
    1PC     O1110073   1.490   3.899   3.505 -0.0735  0.0571 -0.0538
    1PC      C110074   1.456   3.886   3.365 -0.2057 -0.6051  0.1760
    1PC      HR10075   1.423   3.988   3.342  0.4757  0.3089  2.8652
    1PC      HS10076   1.548   3.855   3.316 -0.0204 -1.0870  0.8193
    1PC      C210077   1.345   3.779   3.336 -0.1842 -0.0073 -0.3108
    1PC      HX10078   1.395   3.696   3.386  1.0490  0.2908 -0.9814
    1PC      C310079   1.338   3.745   3.179  0.1047 -0.6321 -0.6770
    1PC      HA10080   1.439   3.719   3.146  2.5906 -1.0175  5.8177
    1PC      HB10081   1.274   3.657   3.174 -1.6201  0.5217  0.1623
    1PC     O3110082   1.277   3.843   3.092 -0.2402 -0.2120 -0.1547
    1PC     P3110083   1.363   3.961   3.034 -0.5641  0.0639  0.2092
    1PC     O3210084   1.321   4.075   3.140 -0.2766  0.3334  0.1427
    1PC     C3110085   1.190   4.137   3.135 -0.3061 -0.0130 -0.2950
    1PC     H1A10086   1.165   4.175   3.036 -1.0455  2.1172  0.6238
    1PC     H1B10087   1.121   4.060   3.171  0.4338 -0.6659 -0.2349
    1PC     C3210088   1.197   4.260   3.235 -0.1864 -0.0317  0.0081
    1PC     H2A10089   1.226   4.224   3.334 -0.2637  0.9855  0.4111
    1PC     H2B10090   1.276   4.322   3.193 -0.5611  0.1148 -0.4835
    1PC     N3110091   1.075   4.353   3.241 -0.4430 -0.6351 -0.3708
    1PC     C3310092   0.962   4.267   3.273 -0.1678 -0.5275  0.7478
    1PC     H3A10093   0.931   4.203   3.190  0.6990  0.0449 -0.0314
    1PC     H3B10094   0.989   4.207   3.360  0.6487 -1.0189  0.1788
    1PC     H3C10095   0.876   4.326   3.305  0.7218  0.0826  2.1071
    1PC     C3410096   1.084   4.436   3.359 -1.4591 -0.4767 -0.4646
    1PC     H4A10097   1.171   4.502   3.353 -1.1892 -0.7225  0.4631
    1PC     H4B10098   0.995   4.498   3.378 -0.8291  0.5065 -0.6354
    1PC     H4C10099   1.106   4.373   3.446  0.0162 -1.3511 -1.4354
    1PC     C3510100   1.050   4.428   3.116 -0.3757 -0.3629 -0.0834
    1PC     H5A10101   0.950   4.460   3.146  0.7619  1.7107  1.8287
    1PC     H5B10102   1.034   4.360   3.033 -1.1897 -1.0943  0.6518
    1PC     H5C10103   1.128   4.503   3.101 -0.6278 -0.4562 -2.1379
    1PC     O3310104   1.508   3.935   3.051  0.2374 -0.0811 -0.1376
    1PC     O3410105   1.317   3.997   2.903 -0.3407 -0.3384  0.5658
    1PC     O2110106   1.218   3.815   3.394 -0.1292 -0.4071  0.3018
    1PC     C2110107   1.173   3.749   3.498  0.0258  0.1274 -0.1481
    1PC     O2210108   1.220   3.647   3.545  0.0126 -0.1980 -0.4602
    1OL     C1210109   1.041   3.802   3.546  0.2136  0.7294 -0.2611
    1OL     H2R10110   0.987   3.720   3.595  2.2878 -0.8526 -0.5030
    1OL     H2S10111   0.980   3.836   3.461 -0.8215 -0.9369 -0.2303
    1OL     C1310112   1.054   3.920   3.647 -0.0152  0.9792  0.8504
    1OL     H3R10113   0.962   3.949   3.698  0.0716  0.5318  1.2768
    1OL     H3S10114   1.076   4.011   3.592  0.4804  1.6207  2.0550
    1OL     C1410115   1.165   3.895   3.756 -0.9193  0.0427  0.1253
    1OL     H4R10116   1.256   3.849   3.717 -1.8351 -0.7922 -1.1313
    1OL     H4S10117   1.120   3.817   3.817  0.9866 -0.6372  0.7246
    1OL     C1510118   1.195   4.016   3.841 -0.0355 -0.3140 -0.2331
    1OL     H5R10119   1.226   3.991   3.942  0.9518  1.4415 -0.0645
    1OL     H5S10120   1.103   4.076   3.848  0.0940 -0.2621  1.1818
    1OL     C1610121   1.306   4.102   3.780  0.3438 -0.1935 -0.7594
    1OL     H6R10122   1.283   4.132   3.678  0.1201  0.7363 -0.4510
    1OL     H6S10123   1.400   4.047   3.775 -0.0931 -0.9464 -0.7669
    1OL     C1710124   1.340   4.228   3.868  0.0373 -0.6802  0.3515
    1OL     H7R10125   1.259   4.243   3.939  0.8109 -2.3125  1.6433
    1OL     H7S10126   1.327   4.314   3.802 -2.4129 -0.0910  1.4781
    1OL     C1810127   1.481   4.239   3.930  0.3402  0.2945 -0.0496
    1OL     H8R10128   1.473   4.341   3.967 -1.2277 -0.7548  2.8230
    1OL     H8S10129   1.554   4.222   3.850 -0.8762 -1.3046 -0.8860
    1OL     C1910130   1.501   4.142   4.043 -0.3099  0.6611 -0.2894
    1OL     H9R10131   1.488   4.035   4.027  1.0499 -0.1509  3.1275
    1OL    C11010132   1.513   4.185   4.170  0.3735 -0.0381 -0.0853
    1OL    H10R10133   1.518   4.105   4.244  0.4835 -0.4382 -0.5248
    1OL    C11110134   1.526   4.337   4.203  0.0093 -0.5302 -0.5899
    1OL    H11R10135   1.432   4.392   4.195 -0.3235 -0.6061  2.0625
    1OL    H11S10136   1.591   4.387   4.131 -0.6518  0.8271 -0.2700
    1OL    C11210137   1.573   4.357   4.351  0.6069  0.1366 -0.4461
    1OL    H12R10138   1.579   4.463   4.375 -1.2052  0.1445  0.1058
    1OL    H12S10139   1.668   4.307   4.370 -1.2555 -3.6665 -0.1354
    1OL    C11310140   1.470   4.318   4.454  1.2938 -0.2246 -0.2767
    1OL    H13R10141   1.428   4.220   4.430  0.7824  0.2524 -1.4314
    1OL    H13S10142   1.395   4.395   4.470  2.1880  0.5403  0.3146
    1OL    C11410143   1.535   4.301   4.597 -0.1051 -0.0407 -0.0236
    1OL    H14R10144   1.629   4.245   4.587 -0.6280 -0.5486 -3.0341
    1OL    H14S10145   1.465   4.261   4.670  0.6019 -0.7069  0.3100
    1OL    C11510146   1.586   4.437   4.649 -0.1870 -0.1317  0.0852
    1OL    H15R10147   1.648   4.487   4.575 -0.9248  1.3082  0.4080
    1OL    H15S10148   1.644   4.419   4.739  0.8538 -1.0962 -0.7487
    1OL    C11610149   1.475   4.543   4.673  0.1365 -0.1494  0.4787
    1OL    H16R10150   1.425   4.583   4.584  1.3491 -0.2750 -0.2914
    1OL    H16S10151   1.515   4.634   4.718 -0.1390 -0.6298  1.7100
    1OL    C11710152   1.374   4.499   4.781 -0.7261 -0.5909 -0.4311
    1OL    H17R10153   1.317   4.416   4.739  1.2434 -0.9006 -2.6582
    1OL    H17S10154   1.317   4.586   4.816  0.3191 -0.9386  2.4369
    1OL    C11810155   1.438   4.449   4.911  0.4402 -0.1102 -0.0626
    1OL    H18R10156   1.497   4.359   4.898 -1.1970 -1.3853  0.9468
    1OL    H18S10157   1.350   4.425   4.972 -0.2934 -0.6726 -1.2940
    1OL    H18T10158   1.497   4.529   4.956  3.1358 -1.9935 -0.0904
    1PA    C11610159   5.269   4.658   5.141 -0.1641  0.2782  0.2655
    1PA    H16R10160   5.280   4.758   5.098  0.5929 -0.1754 -0.6356
    1PA    H16S10161   5.329   4.653   5.232 -0.8775 -1.8359  0.6712
    1PA    H16T10162   5.167   4.643   5.175  0.3453  1.1563  2.3741
    1PA    C11510163   5.318   4.560   5.035 -1.1701  0.0880 -0.5399
    1PA    H15R10164   5.415   4.592   4.997 -1.0185 -1.2025 -1.2875
    1PA    H15S10165   5.349   4.467   5.083  1.9379  1.4190  0.2764
    1PA    C11410166   5.213   4.537   4.923  0.2937 -1.3432  0.1977
    1PA    H14R10167   5.125   4.506   4.979  1.2517 -1.5165  1.6711
    1PA    H14S10168   5.202   4.632   4.871  0.0208 -1.5280 -0.0838
    1PA    C11310169   5.241   4.413   4.824 -0.5137  0.0904  0.0354
    1PA    H13R10170   5.338   4.428   4.776 -0.6513 -0.6380 -0.4949
    1PA    H13S10171   5.228   4.323   4.885 -0.1366 -1.3419 -1.8869
    1PA    C11210172   5.145   4.407   4.705  0.1999 -0.3463  0.3301
    1PA    H12R10173   5.070   4.483   4.728  3.3249  3.0736 -0.0024
    1PA    H12S10174   5.215   4.432   4.625 -0.4877 -1.8492 -0.7809
    1PA    C11110175   5.092   4.261   4.671 -0.5844 -0.4763  0.1914
    1PA    H11R10176   5.058   4.219   4.766  0.8758 -2.9294 -0.2731
    1PA    H11S10177   5.008   4.262   4.602  0.7799 -4.1090 -1.7780
    1PA    C11010178   5.188   4.156   4.626 -0.2092 -0.0309 -0.2100
    1PA    H10R10179   5.267   4.145   4.700  0.0030 -1.6744 -0.6321
    1PA    H10S10180   5.127   4.065   4.622 -0.8609  0.3442  0.9203
    1PA     C1910181   5.262   4.165   4.493  0.2640 -0.9586  0.9537
    1PA     H9R10182   5.302   4.266   4.493 -1.0354 -0.4115 -0.0909
    1PA     H9S10183   5.341   4.091   4.480 -0.3250 -1.4844  0.1991
    1PA     C1810184   5.162   4.139   4.373  0.0642 -0.3329  0.3990
    1PA     H8R10185   5.125   4.036   4.375 -0.9410 -0.0574 -1.3838
    1PA     H8S10186   5.081   4.212   4.387  0.0969 -0.0219 -0.8508
    1PA     C1710187   5.212   4.166   4.223 -0.0081 -0.3149  0.2142
    1PA     H7R10188   5.125   4.172   4.157 -0.1371  0.4831  0.4533
    1PA     H7S10189   5.245   4.268   4.204 -2.0699  0.7672  1.9972
    1PA     C1610190   5.310   4.062   4.174  0.5404 -0.3465 -0.0015
    1PA     H6R10191   5.397   4.049   4.239  0.5983 -0.9707 -0.1937
    1PA     H6S10192   5.265   3.962   4.167 -0.9039  0.3727 -1.6974
    1PA     C1510193   5.374   4.090   4.034  0.5450  0.3121 -0.1943
    1PA     H5R10194   5.446   4.169   4.055  1.5348 -0.8353  0.8857
    1PA     H5S10195   5.422   3.997   4.003  1.1174 -0.3108  2.3453
    1PA     C1410196   5.278   4.129   3.918  0.1281 -0.6016  0.4265
    1PA     H4R10197   5.239   4.231   3.926 -1.1880 -0.9984 -0.4925
    1PA     H4S10198   5.343   4.125   3.831 -0.3849  1.6260 -0.1351
    1PA     C1310199   5.157   4.039   3.897  0.3166 -0.5372  0.3468
    1PA     H3R10200   5.080   4.052   3.974  0.4674 -0.2424  0.4489
    1PA     H3S10201   5.106   4.079   3.809  2.6731  0.0791 -0.8002
    1PA     C1210202   5.182   3.888   3.870  0.5771 -0.2055 -0.4329
    1PA     H2R10203   5.234   3.864   3.777 -2.9080 -3.1050 -1.8599
    1PA     H2S10204   5.237   3.847   3.955 -0.8779 -1.4641 -0.0642
    1PC     C1110205   5.044   3.835   3.865 -0.0903  0.4357  0.7098
    1PC     O1210206   4.956   3.843   3.955  0.0347 -0.4521  0.1975
    1PC     O1110207   5.023   3.770   3.749 -0.2787 -0.2414  0.0855
    1PC      C110208   4.891   3.714   3.718  0.1330  0.2251  0.5339
    1PC      HR10209   4.911   3.632   3.648 -2.7846  1.6166 -2.1899
    1PC      HS10210   4.835   3.672   3.803 -0.8300  2.1204  0.8861
    1PC      C210211   4.796   3.806   3.633  0.3031  0.9123 -0.9511
    1PC      HX10212   4.689   3.788   3.649  0.6114 -0.9483 -0.8394
    1PC      C310213   4.832   3.787   3.483 -0.3302  0.0136  0.1085
    1PC      HA10214   4.810   3.691   3.435 -4.0500  0.4193  0.7064
    1PC      HB10215   4.779   3.862   3.424 -2.6167 -1.9573 -0.5078
    1PC     O3110216   4.981   3.799   3.451  0.4012  0.1432  0.1235
    1PC     P3110217   5.032   3.834   3.298  0.4777  0.2020  0.0342
    1PC     O3210218   4.992   3.981   3.272  0.1804 -0.7915  0.0102
    1PC     C3110219   5.014   4.084   3.373 -0.1167  0.4515  0.7953
    1PC     H1A10220   4.976   4.051   3.470 -1.2823  1.3409  0.6660
    1PC     H1B10221   5.121   4.104   3.384 -0.0024  0.6218 -0.4883
    1PC     C3210222   4.939   4.206   3.320  0.3619  0.1430 -0.3071
    1PC     H2A10223   4.833   4.180   3.312  0.6279 -1.4408  0.7950
    1PC     H2B10224   4.941   4.283   3.397  2.1846  0.4734 -0.6402
    1PC     N3110225   4.970   4.272   3.188  0.7112 -0.1850  0.0945
    1PC     C3310226   4.878   4.390   3.178  0.2557  0.4344 -0.6847
    1PC     H3A10227   4.783   4.344   3.203  0.5520  0.1768  0.0112
    1PC     H3B10228   4.910   4.458   3.257 -0.0915  0.1045 -0.2544
    1PC     H3C10229   4.883   4.428   3.076  2.8192 -3.3050 -2.1534
    1PC     C3410230   5.115   4.320   3.194  0.0186 -0.6556  0.6972
    1PC     H4A10231   5.134   4.385   3.109  0.1174 -2.1361 -0.4539
    1PC     H4B10232   5.118   4.390   3.277 -1.0238 -2.3570  2.2660
    1PC     H4C10233   5.183   4.234   3.199  0.9003 -0.0543 -0.4033
    1PC     C3510234   4.937   4.177   3.079 -0.0966  1.1540  0.0498
    1PC     H5A10235   5.016   4.103   3.067 -0.3485  1.1662 -1.9025
    1PC     H5B10236   4.908   4.227   2.987 -2.7361  2.3232  1.3760
    1PC     H5C10237   4.845   4.130   3.113  0.3354 -0.6102 -1.1225
    1PC     O3310238   5.175   3.837   3.293  0.6246  0.0010  0.0064
    1PC     O3410239   4.963   3.743   3.202 -0.6546  0.0129  0.4446
    1PC     O2110240   4.827   3.942   3.677  0.1639  0.2529 -0.0783
    1PC     C2110241   4.733   4.036   3.673 -0.2611  0.1791 -0.7139
    1PC     O2210242   4.640   4.037   3.593  0.0075  0.4274 -0.5712
    1OL     C1210243   4.753   4.142   3.776 -0.5105 -0.0113 -0.9881
    1OL     H2R10244   4.687   4.228   3.763  0.8521  1.3014  0.3729
    1OL     H2S10245   4.855   4.180   3.769 -0.4088 -0.5670 -3.0838
    1OL     C1310246   4.717   4.083   3.921 -0.1376  0.1041  0.1628
    1OL     H3R10247   4.797   4.010   3.931  1.4844  1.7557 -0.1778
    1OL     H3S10248   4.617   4.042   3.939  1.1335 -2.1516  2.9986
    1OL     C1410249   4.744   4.190   4.032 -0.5854 -0.4487  0.6519
    1OL     H4R10250   4.678   4.276   4.021 -0.8494 -0.8381 -1.2133
    1OL     H4S10251   4.838   4.238   4.005 -0.6952 -1.1105 -1.0711
    1OL     C1510252   4.740   4.119   4.172 -0.0527  0.1948  0.1563
    1OL     H5R10253   4.639   4.099   4.209  1.3793 -0.4408  4.1803
    1OL     H5S10254   4.777   4.183   4.253  2.0379 -1.2899  0.4689
    1OL     C1610255   4.821   3.986   4.182  0.2090 -0.0631  0.1074
    1OL     H6R10256   4.919   3.997   4.135 -0.7864  0.9585 -1.8248
    1OL     H6S10257   4.771   3.896   4.147  1.8762 -0.5495 -1.1680
    1OL     C1710258   4.857   3.958   4.330  0.4520  0.4298 -0.1901
    1OL     H7R10259   4.767   3.972   4.391  0.1764 -0.1620 -0.4500
    1OL     H7S10260   4.925   4.035   4.367 -0.0243  0.9942 -0.4561
    1OL     C1810261   4.909   3.813   4.353 -0.0182  0.0055  0.0557
    1OL     H8R10262   4.836   3.750   4.301  0.2551  1.2199 -1.9054
    1OL     H8S10263   4.907   3.791   4.460 -0.1999  1.7697  0.4502
    1OL     C1910264   5.046   3.787   4.296  0.1958  0.0105 -0.3849
    1OL     H9R10265   5.055   3.780   4.188 -1.3928  1.0760 -0.6169
    1OL    C11010266   5.160   3.771   4.365  0.0040  0.3511  0.3701
    1OL    H10R10267   5.252   3.751   4.311 -1.6337  0.9325 -2.8987
    1OL    C11110268   5.171   3.777   4.517  0.2685  0.3760  0.1102
    1OL    H11R10269   5.134   3.684   4.561  1.4873 -0.1675  0.0309
    1OL    H11S10270   5.111   3.863   4.547  0.7914  0.3320  1.3480
    1OL    C11210271   5.316   3.809   4.567  0.0602 -0.3366 -0.0636
    1OL    H12R10272   5.355   3.906   4.536 -1.6835  0.2885 -0.3942
    1OL    H12S10273   5.383   3.733   4.525 -2.1162 -1.4975 -1.6870
    1OL    C11310274   5.328   3.814   4.720 -0.1952  0.1766 -0.1204
    1OL    H13R10275   5.297   3.721   4.768  1.0271  1.6777  4.0053
    1OL    H13S10276   5.252   3.885   4.754  0.9048  0.4465  1.9060
    1OL    C11410277   5.455   3.871   4.791 -0.1557  0.2262  0.2818
    1OL    H14R10278   5.433   3.890   4.897 -0.6476  1.5795 -0.0363
    1OL    H14S10279   5.478   3.968   4.746 -1.3345  1.2063  1.6909
    1OL    C11510280   5.574   3.774   4.789  0.0672 -0.1046 -0.1144
    1OL    H15R10281   5.606   3.755   4.686  1.5878  0.9829  0.1185
    1OL    H15S10282   5.543   3.677   4.827 -2.7662 -0.0826 -2.0384
    1OL    C11610283   5.689   3.828   4.878  0.0853  0.0419  0.2726
    1OL    H16R10284   5.729   3.916   4.829 -0.0231 -0.5284 -0.8678
    1OL    H16S10285   5.757   3.742   4.872  1.9508  1.4545  0.3749
    1OL    C11710286   5.653   3.861   5.025  0.1906 -0.1979  0.4051
    1OL    H17R10287   5.602   3.775   5.069 -2.0030  1.1383  0.6371
    1OL    H17S10288   5.580   3.942   5.031 -0.7536 -1.0819  1.1182
    1OL    C11810289   5.776   3.887   5.109 -0.2762 -0.1112 -0.7984
    1OL    H18R10290   5.856   3.824   5.071  1.9056  0.5659  2.3161
    1OL    H18S10291   5.763   3.864   5.215 -0.6913  1.7351 -0.4136
    1OL    H18T10292   5.807   3.991   5.101 -1.6914  0.3168 -1.0881
    1PA    C11610293   2.689   4.044   4.631 -0.4729  0.0399  0.3243
    1PA    H16R10294   2.711   4.064   4.737 -0.5316 -0.5233  0.4443
    1PA    H16S10295   2.710   3.940   4.606  0.4711  0.1149  0.7356
    1PA    H16T10296   2.582   4.049   4.610 -0.1403 -1.4485 -2.0203
    1PA    C11510297   2.764   4.153   4.552  0.5662  0.5451  0.4036
    1PA    H15R10298   2.721   4.246   4.588 -0.9601 -1.0892  3.1707
    1PA    H15S10299   2.872   4.160   4.571  1.2048  0.9398 -2.7638
    1PA    C11410300   2.749   4.140   4.398 -0.0962 -0.1063  0.6900
    1PA    H14R10301   2.819   4.215   4.361  0.6507 -1.5140 -0.8495
    1PA    H14S10302   2.785   4.049   4.351 -1.8682 -0.8793  0.7369
    1PA    C11310303   2.605   4.179   4.343 -0.0162 -0.0753 -0.7373
    1PA    H13R10304   2.530   4.118   4.393  0.8837 -1.0237 -0.5233
    1PA    H13S10305   2.584   4.286   4.356 -0.5561 -0.4750  2.2159
    1PA    C11210306   2.600   4.147   4.195 -0.1383  0.3629  0.2889
    1PA    H12R10307   2.660   4.060   4.166  0.9652  2.0690 -3.1293
    1PA    H12S10308   2.497   4.120   4.168 -0.9649  0.7096  2.8807
    1PA    C11110309   2.653   4.266   4.112  0.5936 -0.3678  0.4562
    1PA    H11R10310   2.573   4.341   4.123 -1.0510 -1.7818 -1.2585
    1PA    H11S10311   2.746   4.298   4.159  1.6405 -2.3763 -0.1601
    1PA    C11010312   2.678   4.237   3.965  0.3858  0.5098  0.2902
    1PA    H10R10313   2.744   4.151   3.956  0.5290  0.5828  0.5965
    1PA    H10S10314   2.584   4.227   3.910 -0.0401 -0.5809  1.1860
    1PA     C1910315   2.751   4.346   3.882 -0.4531  0.2912  0.6917
    1PA     H9R10316   2.761   4.308   3.780  2.4182  0.4125  0.8437
    1PA     H9S10317   2.687   4.435   3.878 -0.1332  0.5891  1.8686
    1PA     C1810318   2.882   4.395   3.942  0.1949  0.1296 -0.5984
    1PA     H8R10319   2.860   4.434   4.041 -0.2901 -0.3911 -0.4933
    1PA     H8S10320   2.947   4.307   3.947  1.2020  0.8973  0.1837
    1PA     C1710321   2.963   4.505   3.867  0.6989  0.4486  0.4223
    1PA     H7R10322   3.056   4.537   3.915  0.9366  0.6322 -0.1496
    1PA     H7S10323   2.980   4.463   3.767  0.6220  0.7104  0.2983
    1PA     C1610324   2.878   4.630   3.841 -0.1589 -0.3832 -0.3374
    1PA     H6R10325   2.812   4.603   3.759 -0.3417  0.5866 -0.5233
    1PA     H6S10326   2.811   4.651   3.925 -1.5245 -0.5259 -1.3432
    1PA     C1510327   2.955   4.757   3.803  0.0378  0.4870  0.0157
    1PA     H5R10328   2.960   4.824   3.889  1.8565  1.1447 -0.5472
    1PA     H5S10329   3.062   4.743   3.785  0.8564  1.3432  3.5157
    1PA     C1410330   2.885   4.824   3.686 -0.0129  0.3857  0.1254
    1PA     H4R10331   2.912   4.776   3.592  2.6718  2.3409 -0.2316
    1PA     H4S10332   2.777   4.823   3.704 -0.5690  0.6476 -2.8206
    1PA     C1310333   2.931   4.968   3.675 -0.8187 -0.6179 -0.6323
    1PA     H3R10334   2.932   5.005   3.777 -1.5920 -1.5235 -0.2861
    1PA     H3S10335   3.030   4.985   3.630  0.1144  1.3671  1.8925
    1PA     C1210336   2.825   5.049   3.598  0.1951 -0.2498 -0.2354
    1PA     H2R10337   2.728   5.034   3.648 -0.5607 -1.3242 -1.9180
    1PA     H2S10338   2.849   5.154   3.608 -2.6558  0.4857 -0.1062
    1PC     C1110339   2.809   5.005   3.454 -0.4310 -0.2773 -0.0107
    1PC     O1210340   2.878   5.048   3.364 -0.0646 -0.0007  0.2312
    1PC     O1110341   2.722   4.902   3.438 -0.1589  0.3848  0.0887
    1PC      C110342   2.681   4.847   3.306  0.3996  0.4528 -0.6678
    1PC      HR10343   2.613   4.915   3.255 -0.1395  0.8396  0.5291
    1PC      HS10344   2.762   4.822   3.237  0.0223 -0.2657 -0.8602
    1PC      C210345   2.617   4.712   3.338  0.1270  1.0163 -0.1100
    1PC      HX10346   2.693   4.657   3.394 -1.1093 -0.9294 -0.2702
    1PC      C310347   2.562   4.624   3.219  0.1682 -0.0173 -0.0630
    1PC      HA10348   2.639   4.633   3.142  0.7393 -1.4467  0.3080
    1PC      HB10349   2.564   4.522   3.259  3.4532  0.3428  0.9928
    1PC     O3110350   2.434   4.670   3.177  0.7349  0.8160  0.0992
    1PC     P3110351   2.400   4.693   3.024  0.0109 -0.0295  0.0400
    1PC     O3210352   2.405   4.548   2.968 -0.2999 -0.2897 -0.3747
    1PC     C3110353   2.304   4.445   2.981 -0.2785  0.0821 -0.4102
    1PC     H1A10354   2.308   4.405   3.083 -0.9704  0.1951 -0.3359
    1PC     H1B10355   2.203   4.485   2.981 -0.5064 -0.4900  0.0230
    1PC     C3210356   2.341   4.331   2.882 -0.3570 -0.2888  0.7035
    1PC     H2A10357   2.439   4.291   2.906 -1.5032 -2.9625  1.3165
    1PC     H2B10358   2.280   4.243   2.902 -2.8622  1.2825  0.4585
    1PC     N3110359   2.310   4.343   2.735 -1.0023 -0.4140  0.1170
    1PC     C3310360   2.163   4.328   2.731 -0.0451 -0.5324  0.3655
    1PC     H3A10361   2.112   4.408   2.785  0.4511  1.9768 -2.5654
    1PC     H3B10362   2.135   4.331   2.625 -1.8755  1.8491  0.8240
    1PC     H3C10363   2.131   4.234   2.777 -1.3395 -0.4153 -0.2376
    1PC     C3410364   2.359   4.472   2.678  0.4283 -0.5981  0.0344
    1PC     H4A10365   2.460   4.503   2.706 -0.1034  0.7042  0.5699
    1PC     H4B10366   2.354   4.482   2.570 -0.1422  0.8911  0.1721
    1PC     H4C10367   2.288   4.545   2.716 -0.2563 -0.6793 -1.0488
    1PC     C3510368   2.376   4.230   2.656 -0.3433  0.3078 -0.2927
    1PC     H5A10369   2.373   4.267   2.554  0.7579  1.5584  0.0946
    1PC     H5B10370   2.336   4.129   2.670 -0.5092  0.1921 -1.5204
    1PC     H5C10371   2.482   4.223   2.680 -0.6914 -0.6177  1.0867
    1PC     O3310372   2.265   4.752   3.014 -0.0639 -0.5363 -0.1161
    1PC     O3410373   2.505   4.774   2.970  0.2377  0.1414 -0.3126
    1PC     O2110374   2.501   4.728   3.424 -0.0665 -0.6640 -0.0184
    1PC     C2110375   2.484   4.647   3.528 -0.1767 -0.1925  0.2395
    1PC     O2210376   2.568   4.572   3.566 -0.3094  0.7798 -0.7571
    1OL     C1210377   2.360   4.672   3.602  0.3242 -0.6799  0.5300
    1OL     H2R10378   2.301   4.580   3.609 -1.4673  0.1090 -2.2642
    1OL     H2S10379   2.287   4.740   3.558 -1.3926 -1.7597  1.5899
    1OL     C1310380   2.387   4.734   3.741 -0.4644 -1.0104  0.2279
    1OL     H3R10381   2.445   4.666   3.804 -0.6594  0.3460  1.9650
    1OL     H3S10382   2.290   4.745   3.791 -0.6263  0.6627 -0.3997
    1OL     C1410383   2.455   4.872   3.748  0.0735  0.4870 -0.0474
    1OL     H4R10384   2.383   4.938   3.699 -0.6605 -0.1432  0.1621
    1OL     H4S10385   2.549   4.864   3.693  1.4999 -0.6175  2.3733
    1OL     C1510386   2.480   4.922   3.896 -0.2255  0.6433  0.1688
    1OL     H5R10387   2.572   4.883   3.939 -0.1336  0.6307 -0.0358
    1OL     H5S10388   2.391   4.903   3.956  0.6600  1.5646  1.8615
    1OL     C1610389   2.488   5.066   3.879 -1.4059  0.0961 -0.1640
    1OL     H6R10390   2.403   5.108   3.824 -0.3845  1.1724 -0.9952
    1OL     H6S10391   2.576   5.089   3.819 -0.8350 -0.4238  0.4672
    1OL     C1710392   2.506   5.138   4.014 -0.1397  0.3393  0.4601
    1OL     H7R10393   2.411   5.126   4.067  0.1794 -0.7133  0.8217
    1OL     H7S10394   2.514   5.242   3.983 -1.7718  0.4530  0.3353
    1OL     C1810395   2.634   5.105   4.092  0.4078 -0.2216 -1.0232
    1OL     H8R10396   2.631   5.003   4.133 -0.5311  0.4872  0.7889
    1OL     H8S10397   2.618   5.170   4.178 -1.9431 -1.5184 -0.3845
    1OL     C1910398   2.763   5.139   4.025  0.7430  0.0818  0.1404
    1OL     H9R10399   2.752   5.205   3.939 -2.9104  0.6505  0.8875
    1OL    C11010400   2.880   5.083   4.045  0.1692  1.1063 -0.9068
    1OL    H10R10401   2.964   5.114   3.984  1.3004  0.5469  0.3094
    1OL    C11110402   2.927   4.977   4.154 -0.1076 -0.2066  0.1817
    1OL    H11R10403   2.859   4.893   4.167 -1.9203  1.0634 -0.7246
    1OL    H11S10404   2.920   5.037   4.245 -0.0692  0.2498 -0.1116
    1OL    C11210405   3.069   4.921   4.134  0.0549  0.6878  0.4115
    1OL    H12R10406   3.139   4.990   4.086 -1.3512 -0.3449 -3.5582
    1OL    H12S10407   3.061   4.846   4.055  2.1634  2.4558 -1.6287
    1OL    C11310408   3.136   4.858   4.267 -0.4356 -0.7592 -0.3762
    1OL    H13R10409   3.151   4.929   4.349  0.5056 -1.4012  0.0233
    1OL    H13S10410   3.236   4.822   4.244  0.2694  1.1928 -0.5086
    1OL    C11410411   3.053   4.751   4.333  0.3006  0.0391 -0.3605
    1OL    H14R10412   2.968   4.803   4.377  0.9692  0.1142  0.9008
    1OL    H14S10413   3.097   4.699   4.419  1.6428 -0.6681 -1.4424
    1OL    C11510414   3.017   4.635   4.238 -0.2476 -1.2940 -0.2419
    1OL    H15R10415   3.114   4.605   4.198  1.3912  1.9641  0.9564
    1OL    H15S10416   2.955   4.683   4.162  0.4811 -0.0257 -0.0512
    1OL    C11610417   2.941   4.525   4.318 -0.3088 -0.5015 -0.3198
    1OL    H16R10418   2.895   4.460   4.243 -1.7214 -0.0031  0.0932
    1OL    H16S10419   2.866   4.568   4.384 -0.0331  1.1108 -1.0089
    1OL    C11710420   3.041   4.437   4.402 -0.0253 -0.7602 -0.1029
    1OL    H17R10421   2.982   4.390   4.481  3.4578 -2.7563  1.5648
    1OL    H17S10422   3.109   4.509   4.448 -0.7901 -1.1759  1.7375
    1OL    C11810423   3.117   4.344   4.314  0.3913 -0.4224  0.2167
    1OL    H18R10424   3.155   4.395   4.224 -1.1488 -1.0891 -0.8537
    1OL    H18S10425   3.053   4.265   4.276 -0.3351 -1.0653  2.6201
    1OL    H18T10426   3.193   4.299   4.378 -1.3626 -1.2974  1.7505
    1PA    C11610427   4.369   0.293   5.342  0.3922  0.0208  0.0883
    1PA    H16R10428   4.343   0.289   5.448  1.4495  0.8518  0.3944
    1PA    H16S10429   4.385   0.396   5.311  1.3414 -0.7548 -2.2080
    1PA    H16T10430   4.465   0.246   5.321  0.0076 -0.5132 -0.5403
    1PA    C11510431   4.256   0.215   5.258 -0.3127  0.1097 -0.0915
    1PA    H15R10432   4.259   0.107   5.267 -1.9699  0.0212 -0.2732
    1PA    H15S10433   4.160   0.236   5.307 -0.3884  0.3137 -0.3203
    1PA    C11410434   4.255   0.258   5.116 -0.0328  0.0902  0.1572
    1PA    H14R10435   4.268   0.366   5.107  2.2115 -0.1422 -0.0205
    1PA    H14S10436   4.335   0.220   5.052  0.6401  0.9428  0.4614
    1PA    C11310437   4.121   0.215   5.057  0.0595  0.2617  0.8079
    1PA    H13R10438   4.090   0.111   5.072 -0.7364  0.7042  2.4369
    1PA    H13S10439   4.047   0.281   5.102 -0.9471 -1.2231  1.4046
    1PA    C11210440   4.121   0.235   4.898  0.4508  0.0390  0.3773
    1PA    H12R10441   4.161   0.333   4.871 -0.2396  0.6928  1.6622
    1PA    H12S10442   4.181   0.162   4.843 -2.4095 -1.2324 -1.2664
    1PA    C11110443   3.973   0.234   4.838  0.0501  0.6562 -0.2950
    1PA    H11R10444   3.926   0.145   4.882  0.1272  0.4200 -0.6807
    1PA    H11S10445   3.927   0.326   4.872 -0.2804  0.5264 -0.3838
    1PA    C11010446   3.964   0.228   4.685  0.3730  0.5330 -0.1465
    1PA    H10R10447   3.860   0.229   4.649  0.1377 -3.6145 -0.1254
    1PA    H10S10448   4.005   0.317   4.637 -2.1621  1.4425 -0.7959
    1PA     C1910449   4.024   0.101   4.631 -0.4079 -0.4663 -0.2453
    1PA     H9R10450   4.133   0.106   4.641 -0.3299  1.4128 -1.5191
    1PA     H9S10451   3.989   0.017   4.691 -2.3500  0.6623  0.2754
    1PA     C1810452   3.980   0.080   4.478  0.2171  0.1443 -0.2219
    1PA     H8R10453   3.876   0.047   4.474  0.1227  0.4331 -0.1983
    1PA     H8S10454   3.990   0.176   4.427  1.6941 -0.4244 -1.0875
    1PA     C1710455   4.080  -0.021   4.417 -0.6379  0.0273  0.2012
    1PA     H7R10456   4.180   0.019   4.436  0.4470 -1.8035 -1.2559
    1PA     H7S10457   4.075  -0.115   4.471  0.6905  0.9743  2.1024
    1PA     C1610458   4.063  -0.051   4.259 -0.3633  0.2382 -0.2294
    1PA     H6R10459   4.094   0.032   4.196 -1.0344 -1.3829 -2.8340
    1PA     H6S10460   4.135  -0.131   4.238  0.8746  1.3681 -0.3864
    1PA     C1510461   3.929  -0.106   4.205 -0.6200  0.0583 -0.5139
    1PA     H5R10462   3.909  -0.204   4.248  2.4760  0.1907  1.5287
    1PA     H5S10463   3.844  -0.040   4.228 -1.6217 -1.2349 -0.3849
    1PA     C1410464   3.945  -0.132   4.050  0.4174 -0.4035 -1.1610
    1PA     H4R10465   3.843  -0.139   4.011 -0.1450 -1.7184  0.4363
    1PA     H4S10466   3.998  -0.048   4.005  1.8029  0.4261  1.7802
    1PA     C1310467   4.021  -0.260   4.013  0.1332 -0.6830  0.5988
    1PA     H3R10468   4.102  -0.270   4.086 -0.1809 -2.0039  0.7833
    1PA     H3S10469   3.963  -0.352   4.022 -0.1729 -0.3649  2.2010
    1PA     C1210470   4.074  -0.266   3.863  0.2900 -1.0467  0.4289
    1PA     H2R10471   4.099  -0.165   3.830  1.0704 -1.2732  0.3227
    1PA     H2S10472   4.157  -0.336   3.852 -1.6971 -3.1468 -2.5021
    1PC     C1110473   3.967  -0.313   3.773  0.5300 -0.1308  0.1178
    1PC     O1210474   3.846  -0.290   3.778 -0.3100 -0.0921  0.3328
    1PC     O1110475   4.018  -0.392   3.673  0.4345 -0.1721 -0.9214
    1PC      C110476   3.943  -0.423   3.556  0.0489  0.1011 -0.4870
    1PC      HR10477   3.982  -0.516   3.514 -2.6773 -1.3267 -0.1150
    1PC      HS10478   3.839  -0.441   3.584  0.4983 -0.3899  0.9359
    1PC      C210479   3.951  -0.307   3.457  0.7211 -0.7198  0.0350
    1PC      HX10480   3.875  -0.320   3.379  1.2101 -1.1214 -0.3819
    1PC      C310481   4.084  -0.314   3.368  0.2071  0.4096 -0.2933
    1PC      HA10482   4.171  -0.347   3.425  0.5281 -0.1723 -1.1022
    1PC      HB10483   4.062  -0.395   3.298 -0.7981 -1.2002  1.7517
    1PC     O3110484   4.118  -0.193   3.301  0.1905 -0.1882  0.7389
    1PC     P3110485   4.028  -0.129   3.188 -0.2155  0.1514 -0.2154
    1PC     O3210486   4.118  -0.031   3.104  0.7373 -0.4706 -0.3250
    1PC     C3110487   4.165   0.097   3.159  0.2996  0.0982  0.2749
    1PC     H1A10488   4.127   0.095   3.261 -2.2098  0.4277 -0.5869
    1PC     H1B10489   4.275   0.090   3.161  0.2636 -2.5041 -1.2814
    1PC     C3210490   4.100   0.205   3.069 -0.4701 -0.5655  0.1255
    1PC     H2A10491   4.145   0.195   2.970 -2.7679 -1.0117 -0.9245
    1PC     H2B10492   3.992   0.193   3.064 -0.1860 -3.5669 -0.5250
    1PC     N3110493   4.121   0.343   3.106  0.6025  0.1227  0.4481
    1PC     C3310494   4.058   0.382   3.232  0.0101  0.0399  0.3347
    1PC     H3A10495   4.062   0.489   3.254  0.5297  0.0468  0.2165
    1PC     H3B10496   3.955   0.350   3.215  0.6415 -1.1024 -1.7667
    1PC     H3C10497   4.100   0.316   3.308 -1.3193 -1.4406 -0.1520
    1PC     C3410498   4.263   0.368   3.128 -0.6995 -0.3754  0.3261
    1PC     H4A10499   4.307   0.319   3.215  1.0977  1.7662  0.7331
    1PC     H4B10500   4.322   0.341   3.040  0.9447 -1.9025  1.8044
    1PC     H4C10501   4.270   0.474   3.153 -1.0972 -0.7928  2.4274
    1PC     C3510502   4.067   0.441   3.008 -0.4366 -0.3775  0.3743
    1PC     H5A10503   4.107   0.412   2.911  0.1234  0.7243  0.2641
    1PC     H5B10504   4.093   0.543   3.036 -0.3105  0.2868 -1.9723
    1PC     H5C10505   3.958   0.441   3.001 -0.3999 -2.0923 -1.0750
    1PC     O3310506   3.997  -0.232   3.088 -0.1311  0.3292 -0.3348
    1PC     O3410507   3.908  -0.063   3.246  0.2961 -0.2100  0.5489
    1PC     O2110508   3.939  -0.180   3.523 -0.1611 -0.3837 -0.3526
    1PC     C2110509   3.819  -0.127   3.533  0.3517 -1.0526 -0.2530
    1PC     O2210510   3.716  -0.191   3.525  0.3123 -0.1240  0.6584
    1OL     C1210511   3.823   0.023   3.560  0.0926 -0.3921  0.3080
    1OL     H2R10512   3.739   0.073   3.511 -0.5413 -0.6232  1.1407
    1OL     H2S10513   3.909   0.075   3.516 -1.6183  0.2262 -2.5294
    1OL     C1310514   3.810   0.039   3.717 -0.0935 -0.2459  0.0966
    1OL     H3R10515   3.900  -0.003   3.762  0.5018  1.3476  0.4576
    1OL     H3S10516   3.727  -0.029   3.738  1.5611 -2.2032  0.5228
    1OL     C1410517   3.776   0.178   3.777 -0.0369 -0.3997 -0.1991
    1OL     H4R10518   3.674   0.211   3.760 -0.1217 -0.2452  0.6040
    1OL     H4S10519   3.842   0.255   3.735 -0.6261 -0.0127 -0.4262
    1OL     C1510520   3.799   0.169   3.933 -0.7885 -0.2387 -0.0864
    1OL     H5R10521   3.897   0.130   3.961 -1.3055 -0.1978  1.9537
    1OL     H5S10522   3.721   0.104   3.974 -1.6682  0.6787 -0.2781
    1OL     C1610523   3.781   0.311   3.986 -0.4839 -0.2472 -0.7887
    1OL     H6R10524   3.682   0.357   3.972 -1.2934 -0.8390  2.2786
    1OL     H6S10525   3.852   0.385   3.948  1.1730 -1.9447 -1.1311
    1OL     C1710526   3.808   0.310   4.140  0.2178  0.2098 -0.2813
    1OL     H7R10527   3.911   0.280   4.164  0.2090 -0.3051 -0.8724
    1OL     H7S10528   3.747   0.227   4.175  2.4209 -0.7422  1.5505
    1OL     C1810529   3.788   0.439   4.229  0.6521  0.3688  0.3280
    1OL     H8R10530   3.685   0.474   4.228  0.6871  0.4882  0.6851
    1OL     H8S10531   3.841   0.521   4.180  0.7729 -0.1680 -0.4514
    1OL     C1910532   3.846   0.431   4.368 -0.0748  0.5885 -0.5247
    1OL     H9R10533   3.950   0.401   4.374 -0.4317 -0.5344  0.5692
    1OL    C11010534   3.768   0.443   4.478 -0.3723  0.1701  0.1047
    1OL    H10R10535   3.809   0.424   4.577 -0.8029 -0.1015  0.2320
    1OL    C11110536   3.619   0.459   4.480  0.0478 -0.0137 -0.4779
    1OL    H11R10537   3.573   0.378   4.424  0.7778 -0.6346 -0.1991
    1OL    H11S10538   3.598   0.554   4.430 -1.4413  0.2285  0.5535
    1OL    C11210539   3.560   0.456   4.626  0.0563 -0.6148 -0.9582
    1OL    H12R10540   3.579   0.549   4.680  0.2453  0.2194 -2.4031
    1OL    H12S10541   3.617   0.378   4.676 -1.1922 -0.6953  0.3879
    1OL    C11310542   3.409   0.423   4.631 -0.6888 -0.1089 -0.3458
    1OL    H13R10543   3.392   0.340   4.562  1.7417 -0.3384 -0.7497
    1OL    H13S10544   3.354   0.510   4.594 -0.3622  0.1296 -0.2773
    1OL    C11410545   3.338   0.389   4.761 -0.0448  0.4104 -0.0775
    1OL    H14R10546   3.337   0.467   4.838  0.3878 -0.4106  0.7961
    1OL    H14S10547   3.390   0.306   4.811 -0.9286 -0.3326 -0.3703
    1OL    C11510548   3.193   0.346   4.729  0.2498 -0.0565 -1.0836
    1OL    H15R10549   3.197   0.280   4.643  1.5888 -2.8411  0.9697
    1OL    H15S10550   3.133   0.431   4.695  0.3008  0.5792  0.3042
    1OL    C11610551   3.138   0.271   4.848  0.6652 -0.6469 -0.4365
    1OL    H16R10552   3.138   0.342   4.931  0.7860 -2.2951  1.0371
    1OL    H16S10553   3.183   0.176   4.876 -1.3832 -0.9410  2.3062
    1OL    C11710554   2.985   0.235   4.821  0.2477 -0.2545 -0.1699
    1OL    H17R10555   2.976   0.177   4.728 -0.8205 -1.6296  0.7468
    1OL    H17S10556   2.932   0.328   4.803 -1.2844 -1.2006 -0.7263
    1OL    C11810557   2.920   0.177   4.948  1.0318  0.5803 -0.2827
    1OL    H18R10558   2.952   0.219   5.044  1.1295  0.7280 -0.3796
    1OL    H18S10559   2.940   0.070   4.951 -1.1633  0.1189  1.1994
    1OL    H18T10560   2.811   0.182   4.945  0.9660 -0.6038 -0.1841
    1PA    C11610561   4.628   2.367   4.688  0.0505 -0.7822  0.0406
    1PA    H16R10562   4.712   2.298   4.679  0.6462 -0.0715  0.0277
    1PA    H16S10563   4.567   2.356   4.778 -0.7258  0.3990 -0.3119
    1PA    H16T10564   4.666   2.470   4.696 -0.3979 -0.5202 -1.0619
    1PA    C11510565   4.528   2.364   4.575  0.1929  0.4175  0.5584
    1PA    H15R10566   4.467   2.274   4.576 -0.3370  0.6359 -2.2769
    1PA    H15S10567   4.454   2.444   4.586  0.3916  0.6812 -0.0008
    1PA    C11410568   4.593   2.382   4.428  0.0361 -0.0490 -0.2962
    1PA    H14R10569   4.647   2.477   4.427  0.2825 -0.1197  1.7189
    1PA    H14S10570   4.672   2.314   4.398 -2.3716 -2.7322 -0.9930
    1PA    C11310571   4.493   2.382   4.316 -0.3773  0.2430  0.1923
    1PA    H13R10572   4.537   2.394   4.217 -0.5146  0.3928  0.1482
    1PA    H13S10573   4.453   2.280   4.320  0.0706  0.0867  0.7413
    1PA    C11210574   4.385   2.485   4.320 -0.2291  0.4864 -0.1163
    1PA    H12R10575   4.308   2.455   4.393 -1.1536  1.0227 -0.8488
    1PA    H12S10576   4.431   2.574   4.363  2.1083 -1.6907  2.2175
    1PA    C11110577   4.321   2.527   4.186 -0.3281  0.5903  0.1929
    1PA    H11R10578   4.266   2.445   4.139 -0.4362  0.9768 -0.3675
    1PA    H11S10579   4.238   2.593   4.214 -0.9510  1.0309 -2.4166
    1PA    C11010580   4.422   2.592   4.087 -0.6125 -0.2659  0.5101
    1PA    H10R10581   4.487   2.662   4.140  3.2981 -2.2774 -1.2486
    1PA    H10S10582   4.498   2.519   4.059  0.0013  0.5976 -0.1405
    1PA     C1910583   4.367   2.680   3.971 -0.2918  0.4424  0.1108
    1PA     H9R10584   4.323   2.620   3.890 -0.4863  3.4802 -2.1987
    1PA     H9S10585   4.290   2.751   4.001 -0.9998 -0.4847  0.5714
    1PA     C1810586   4.473   2.761   3.892  0.4177 -0.0045  0.1863
    1PA     H8R10587   4.423   2.838   3.833 -1.1416  0.8128  2.4368
    1PA     H8S10588   4.538   2.818   3.958 -1.3317  1.8560  0.3959
    1PA     C1710589   4.553   2.680   3.793 -0.5992 -0.2188  0.4040
    1PA     H7R10590   4.613   2.610   3.852 -0.2972  0.8336  1.3766
    1PA     H7S10591   4.489   2.622   3.726 -0.3116 -0.2448  0.1485
    1PA     C1610592   4.658   2.766   3.712  0.1584 -0.2433  0.1794
    1PA     H6R10593   4.686   2.713   3.621  1.2403 -0.4133  0.6027
    1PA     H6S10594   4.607   2.858   3.681 -0.5128 -0.7009 -0.1170
    1PA     C1510595   4.779   2.811   3.801  0.3912  0.2895 -0.4220
    1PA     H5R10596   4.745   2.882   3.876  1.4756  0.8102 -0.4064
    1PA     H5S10597   4.818   2.724   3.855 -1.5081 -1.1758 -1.2835
    1PA     C1410598   4.891   2.875   3.727 -0.6760 -0.5026 -0.1967
    1PA     H4R10599   4.917   2.815   3.640 -1.3538  0.8453 -1.3714
    1PA     H4S10600   4.855   2.974   3.698 -1.3100 -0.4820  0.6280
    1PA     C1310601   5.026   2.905   3.805 -0.0948 -0.6573  1.1087
    1PA     H3R10602   5.022   2.999   3.860 -1.6054  1.2653 -1.9934
    1PA     H3S10603   5.041   2.819   3.871  0.9544 -0.6061  0.9434
    1PA     C1210604   5.146   2.914   3.713 -0.4694 -0.6553  0.3813
    1PA     H2R10605   5.138   2.988   3.633 -0.9365 -2.3126 -1.1501
    1PA     H2S10606   5.218   2.948   3.788 -0.4781  0.9500 -0.3032
    1PC     C1110607   5.183   2.775   3.660 -0.4870  0.5454  0.0934
    1PC     O1210608   5.244   2.686   3.716 -0.1109  0.2002 -0.1402
    1PC     O1110609   5.137   2.759   3.532 -0.8059  0.0512 -0.4126
    1PC      C110610   5.133   2.628   3.475  0.2507  0.0792  0.2585
    1PC      HR10611   5.146   2.625   3.366 -0.2627  1.7780  0.1298
    1PC      HS10612   5.219   2.572   3.513 -0.3092 -0.7930  0.2722
    1PC      C210613   4.993   2.557   3.496  0.2967 -0.5172 -0.1064
    1PC      HX10614   4.999   2.459   3.447 -0.3830  0.6796 -2.8039
    1PC      C310615   4.881   2.617   3.411  0.6664 -0.2744  0.2216
    1PC      HA10616   4.787   2.567   3.436  1.4203 -2.1883 -0.6246
    1PC      HB10617   4.867   2.721   3.442  0.3511 -0.1461 -0.3392
    1PC     O3110618   4.908   2.624   3.267 -0.6691 -0.0834  0.0052
    1PC     P3110619   4.858   2.507   3.172 -0.2374 -0.3195  0.5018
    1PC     O3210620   4.867   2.575   3.026  0.1145 -0.0917  0.0738
    1PC     C3110621   4.993   2.590   2.955  0.9579  0.0537 -0.7084
    1PC     H1A10622   4.995   2.684   2.899  2.5976 -0.3824 -1.4683
    1PC     H1B10623   5.075   2.590   3.027 -0.5312 -1.8939  1.1084
    1PC     C3210624   5.015   2.476   2.852  0.2794  0.2671  0.2665
    1PC     H2A10625   5.017   2.381   2.906 -0.8355  0.3829  0.5259
    1PC     H2B10626   4.932   2.476   2.781 -0.6463  0.0934  1.3368
    1PC     N3110627   5.137   2.480   2.775  0.1630  0.2754 -0.4786
    1PC     C3310628   5.253   2.472   2.868 -0.4186  0.5859 -0.0309
    1PC     H3A10629   5.335   2.445   2.802 -0.7531 -0.2823 -0.0952
    1PC     H3B10630   5.271   2.571   2.913 -1.9401  0.7111  0.3485
    1PC     H3C10631   5.229   2.398   2.945 -2.7251 -0.7708 -1.9251
    1PC     C3410632   5.139   2.367   2.678 -0.2895 -0.1636 -0.8736
    1PC     H4A10633   5.113   2.284   2.744 -0.6530  1.2175  0.7758
    1PC     H4B10634   5.066   2.366   2.597  0.2979 -0.2650 -1.4053
    1PC     H4C10635   5.238   2.345   2.638  0.3581 -0.1599  0.6469
    1PC     C3510636   5.151   2.602   2.696  0.5103  0.2750  0.1272
    1PC     H5A10637   5.247   2.598   2.646 -0.3464 -1.7454 -1.4989
    1PC     H5B10638   5.129   2.692   2.754  0.3074 -0.1423  0.7135
    1PC     H5C10639   5.076   2.588   2.618 -1.2142 -1.6086  1.9746
    1PC     O3310640   4.952   2.391   3.192 -1.0009 -0.1083  0.0851
    1PC     O3410641   4.715   2.484   3.204 -0.0237  0.1319 -0.4730
    1PC     O2110642   4.961   2.547   3.639 -0.3567  0.0459  0.5676
    1PC     C2110643   5.008   2.442   3.708 -0.3415 -0.0136 -0.0823
    1PC     O2210644   5.047   2.338   3.659 -0.6621 -0.6507  0.0096
    1OL     C1210645   5.021   2.472   3.852  0.0672 -0.0840 -0.3411
    1OL     H2R10646   5.055   2.575   3.859 -0.1988  0.2352 -2.7815
    1OL     H2S10647   5.086   2.393   3.890 -0.3069 -0.1493  0.1834
    1OL     C1310648   4.880   2.455   3.918  0.0340  0.1217 -0.0273
    1OL     H3R10649   4.836   2.358   3.894  1.1106 -0.2389 -0.5778
    1OL     H3S10650   4.812   2.525   3.868  0.7450  0.9162  0.0950
    1OL     C1410651   4.864   2.495   4.069  0.0625 -0.3796  0.0040
    1OL     H4R10652   4.886   2.409   4.133  0.5328 -0.1156  0.2058
    1OL     H4S10653   4.762   2.527   4.089 -0.8652 -2.2726 -1.4041
    1OL     C1510654   4.958   2.610   4.120  0.6841 -0.1243  0.1783
    1OL     H5R10655   4.942   2.702   4.064 -0.0209  0.2586  0.9933
    1OL     H5S10656   5.060   2.574   4.107  0.2645 -0.5494 -2.4920
    1OL     C1610657   4.924   2.661   4.262  0.4641 -0.6213  0.4473
    1OL     H6R10658   4.977   2.756   4.265 -1.3853  0.6540 -2.6649
    1OL     H6S10659   4.959   2.598   4.344 -2.8906  0.7648  3.1718
    1OL     C1710660   4.778   2.711   4.278 -0.1312 -0.4961 -0.2556
    1OL     H7R10661   4.712   2.624   4.267  0.5952 -0.8093 -3.2370
    1OL     H7S10662   4.750   2.778   4.196 -0.9834 -2.2023 -1.4474
    1OL     C1810663   4.748   2.794   4.407  0.0941 -0.6118 -0.1186
    1OL     H8R10664   4.811   2.883   4.403 -0.9797  0.1209 -1.0713
    1OL     H8S10665   4.784   2.734   4.492  0.3771  0.4619  0.5382
    1OL     C1910666   4.604   2.834   4.407  0.5910  0.0100  0.2006
    1OL     H9R10667   4.555   2.857   4.312  1.7134  1.3775 -0.0949
    1OL    C11010668   4.522   2.835   4.513 -0.3082 -0.2734  0.9454
    1OL    H10R10669   4.416   2.849   4.493 -0.2789 -1.4957 -0.2096
    1OL    C11110670   4.565   2.802   4.652  0.0246  0.2042  0.3666
    1OL    H11R10671   4.660   2.854   4.667  0.2729  1.3473 -3.7997
    1OL    H11S10672   4.574   2.693   4.654 -0.0761  0.2042  1.6126
    1OL    C11210673   4.466   2.850   4.753  0.1203  0.4020 -0.5653
    1OL    H12R10674   4.368   2.803   4.748 -1.1112  2.8457 -0.5980
    1OL    H12S10675   4.442   2.955   4.734 -0.4611  0.0218 -1.9672
    1OL    C11310676   4.505   2.832   4.901  0.6349  0.9426  0.8039
    1OL    H13R10677   4.424   2.882   4.956  0.9485  2.3380  0.0321
    1OL    H13S10678   4.599   2.886   4.913  0.9695  0.4798  0.3096
    1OL    C11410679   4.521   2.682   4.947 -0.7795 -0.0895 -0.1702
    1OL    H14R10680   4.613   2.637   4.910  0.9098  0.5020  2.9323
    1OL    H14S10681   4.434   2.628   4.910 -0.1942 -1.2489  0.0852
    1OL    C11510682   4.503   2.674   5.102 -0.6326 -0.1646 -0.5088
    1OL    H15R10683   4.399   2.688   5.134  0.1526  5.1793  0.5890
    1OL    H15S10684   4.561   2.739   5.168 -2.4056 -0.2676  1.2400
    1OL    C11610685   4.539   2.534   5.143 -0.5963  0.4937 -0.3386
    1OL    H16R10686   4.644   2.508   5.157 -0.3985  0.6226 -1.5327
    1OL    H16S10687   4.517   2.461   5.065  0.1488  0.1341 -0.2237
    1OL    C11710688   4.471   2.494   5.271 -1.1028 -0.1432  0.1165
    1OL    H17R10689   4.496   2.388   5.282  2.2776  0.5765  0.4392
    1OL    H17S10690   4.363   2.491   5.258 -0.9747 -1.2674 -0.8823
    1OL    C11810691   4.504   2.580   5.399  0.1389  0.1149  0.4861
    1OL    H18R10692   4.613   2.591   5.406  0.2163 -0.1001 -0.3706
    1OL    H18S10693   4.459   2.528   5.484 -0.6001  0.6617  0.4380
    1OL    H18T10694   4.469   2.684   5.402 -0.7696 -0.2017  1.6489
    1PA    C11610695   1.210   1.622   4.638  0.7685  0.1280 -0.1840
    1PA    H16R10696   1.184   1.648   4.741 -0.1704  0.5306 -0.5112
    1PA    H16S10697   1.300   1.676   4.608 -0.0391  1.4649 -0.2710
    1PA    H16T10698   1.239   1.517   4.637 -0.9817 -0.3912 -2.1778
    1PA    C11510699   1.093   1.637   4.537 -0.2467  0.1764 -0.5584
    1PA    H15R10700   0.998   1.606   4.581  0.1865  1.6091  1.5497
    1PA    H15S10701   1.080   1.745   4.523  0.9539  0.3195 -0.6414
    1PA    C11410702   1.119   1.568   4.399  0.4382 -0.7313 -0.2406
    1PA    H14R10703   1.053   1.619   4.328 -1.7978  0.2545  2.3732
    1PA    H14S10704   1.221   1.596   4.372 -0.0657  0.3543 -1.1361
    1PA    C11310705   1.098   1.424   4.374 -0.1501 -0.4717  0.4295
    1PA    H13R10706   1.180   1.370   4.422 -0.8346 -2.7312 -0.7447
    1PA    H13S10707   1.002   1.398   4.421 -0.8262  2.2119  0.6693
    1PA    C11210708   1.082   1.393   4.226 -0.1241  0.2696  0.0858
    1PA    H12R10709   0.995   1.449   4.191 -0.7185 -0.6313  0.1024
    1PA    H12S10710   1.176   1.420   4.177  0.2830 -0.9155  0.1803
    1PA    C11110711   1.049   1.246   4.201 -0.3735 -0.4984 -0.1541
    1PA    H11R10712   1.132   1.185   4.239  1.0043  0.9601 -0.6792
    1PA    H11S10713   0.961   1.236   4.265  0.1334  1.7703  1.0167
    1PA    C11010714   1.008   1.214   4.059  0.4271 -0.2095  0.8523
    1PA    H10R10715   0.936   1.290   4.029  1.0306  0.3225  0.7441
    1PA    H10S10716   1.091   1.232   3.992 -1.2071  0.5755 -1.0622
    1PA     C1910717   0.943   1.074   4.039  0.3131  0.4967 -0.9182
    1PA     H9R10718   1.008   1.009   4.099 -0.3527 -0.1216 -0.8620
    1PA     H9S10719   0.847   1.071   4.091  1.3423  0.3159  1.0920
    1PA     C1810720   0.923   1.019   3.899  0.3198 -0.0437  0.1018
    1PA     H8R10721   1.022   1.000   3.856  1.6646  1.7200  2.1942
    1PA     H8S10722   0.879   0.920   3.910  0.9447 -0.5969 -1.8894
    1PA     C1710723   0.851   1.109   3.806 -0.3937  0.3579  0.1567
    1PA     H7R10724   0.753   1.133   3.846  0.1075  1.4979  0.7662
    1PA     H7S10725   0.905   1.204   3.798  0.0590 -0.0159 -1.7903
    1PA     C1610726   0.825   1.050   3.665  0.7105  0.0280 -0.1871
    1PA     H6R10727   0.767   1.123   3.608  0.1946  0.1281  0.4593
    1PA     H6S10728   0.920   1.027   3.616  0.9840  0.3055  0.2046
    1PA     C1510729   0.748   0.918   3.674 -0.0433  0.3845  0.2765
    1PA     H5R10730   0.819   0.841   3.707  0.2601  0.2527 -0.6428
    1PA     H5S10731   0.680   0.907   3.758  2.2721 -2.9589  1.9168
    1PA     C1410732   0.681   0.866   3.546  0.2889 -0.4777  0.5435
    1PA     H4R10733   0.754   0.867   3.465  0.6851  0.5044  0.8992
    1PA     H4S10734   0.655   0.762   3.563  1.7834 -1.2948 -1.7748
    1PA     C1310735   0.565   0.956   3.500 -0.2272 -0.3524  0.0584
    1PA     H3R10736   0.485   0.960   3.575 -1.1609 -1.2159 -0.8660
    1PA     H3S10737   0.597   1.057   3.473 -2.9386  1.1144  1.7946
    1PA     C1210738   0.514   0.889   3.373  0.7753  0.7564  0.3125
    1PA     H2R10739   0.597   0.884   3.302  1.5829 -2.5678  1.3028
    1PA     H2S10740   0.480   0.788   3.396 -1.0429  1.5620  1.3722
    1PC     C1110741   0.388   0.966   3.327  0.0077  0.0722  0.0871
    1PC     O1210742   0.289   0.980   3.396  0.3189 -0.1898 -0.7045
    1PC     O1110743   0.405   1.038   3.217  0.2871  0.3642 -0.1716
    1PC      C110744   0.290   1.106   3.148 -0.6418  0.7101  0.0635
    1PC      HR10745   0.272   1.070   3.047  0.0520  1.3667 -0.2995
    1PC      HS10746   0.195   1.089   3.200 -0.3957  0.6370  0.4941
    1PC      C210747   0.314   1.256   3.152 -0.0357 -0.0064  0.9751
    1PC      HX10748   0.225   1.305   3.111  0.2683  0.2355  0.6016
    1PC      C310749   0.440   1.292   3.063 -0.6077  0.8484 -0.1036
    1PC      HA10750   0.529   1.234   3.086  0.4297  1.0040 -3.2212
    1PC      HB10751   0.425   1.259   2.959 -1.5158 -2.1059  0.8515
    1PC     O3110752   0.477   1.432   3.070  0.2547 -0.0969  0.0491
    1PC     P3110753   0.377   1.545   3.012  0.4197  0.0881 -0.2097
    1PC     O3210754   0.290   1.603   3.134  0.1446  0.5226  0.7328
    1PC     C3110755   0.350   1.680   3.245  0.2843  0.0465  0.2146
    1PC     H1A10756   0.314   1.633   3.337  0.7516  0.4195  0.5906
    1PC     H1B10757   0.459   1.684   3.246  0.3555 -1.2545  1.9902
    1PC     C3210758   0.296   1.821   3.244 -0.4164  0.0617 -0.0780
    1PC     H2A10759   0.343   1.877   3.324  0.3149  0.0079 -0.4575
    1PC     H2B10760   0.317   1.871   3.149 -1.7989  0.4803 -0.1802
    1PC     N3110761   0.147   1.846   3.254  0.3372  0.4601 -0.3292
    1PC     C3310762   0.084   1.766   3.366 -0.5211  0.2165  0.1307
    1PC     H3A10763  -0.015   1.810   3.377  0.0611  1.1699  1.9566
    1PC     H3B10764   0.073   1.659   3.349 -2.4211 -0.1625  3.1222
    1PC     H3C10765   0.152   1.781   3.450  1.0869  2.2362 -1.3998
    1PC     C3410766   0.122   1.993   3.275  0.3345 -0.0293 -0.1765
    1PC     H4A10767   0.024   2.011   3.319  0.2510  2.1386 -1.0934
    1PC     H4B10768   0.187   2.039   3.349 -0.6391  2.3489 -0.7003
    1PC     H4C10769   0.126   2.043   3.178 -0.1142 -0.4654 -0.4248
    1PC     C3510770   0.073   1.817   3.127 -0.0501 -0.1841  0.3697
    1PC     H5A10771   0.121   1.877   3.049 -1.1202  2.3515  1.5413
    1PC     H5B10772  -0.030   1.853   3.131  0.5291  1.9162 -1.1124
    1PC     H5C10773   0.081   1.711   3.105  0.5619  0.3097 -2.2392
    1PC     O3310774   0.458   1.657   2.956  0.4119  0.2881 -0.5790
    1PC     O3410775   0.287   1.481   2.917 -0.1820  0.4355 -0.6293
    1PC     O2110776   0.336   1.308   3.283 -0.3462  0.7814  0.2321
    1PC     C2110777   0.230   1.312   3.368  0.6779  0.3434 -0.4504
    1PC     O2210778   0.114   1.288   3.333 -0.8359 -0.4407  0.4589
    1OL     C1210779   0.281   1.333   3.513 -0.1281  0.0446 -0.5469
    1OL     H2R10780   0.358   1.409   3.520  0.5709 -0.7436  0.7228
    1OL     H2S10781   0.328   1.242   3.550  0.6825  0.1304 -1.3241
    1OL     C1310782   0.164   1.389   3.604  0.1762 -0.0049 -0.3443
    1OL     H3R10783   0.079   1.321   3.603  1.6380 -1.9237 -1.1924
    1OL     H3S10784   0.139   1.487   3.563 -1.4084 -0.5706 -0.7953
    1OL     C1410785   0.228   1.418   3.744 -0.1538  0.1097  0.5191
    1OL     H4R10786   0.322   1.467   3.720  0.3280 -1.0222  0.0037
    1OL     H4S10787   0.249   1.316   3.778 -2.5744 -0.8092 -0.5296
    1OL     C1510788   0.151   1.490   3.853 -0.3465 -0.9461 -0.4397
    1OL     H5R10789   0.151   1.596   3.825 -2.7613 -0.8261 -0.1810
    1OL     H5S10790   0.208   1.487   3.946 -1.0581  2.5650  0.2775
    1OL     C1610791   0.008   1.434   3.879 -0.6169 -0.1601  0.0087
    1OL     H6R10792  -0.051   1.429   3.787  1.2876  1.6147 -1.3790
    1OL     H6S10793  -0.043   1.508   3.940  1.1617  1.2337 -0.1099
    1OL     C1710794   0.019   1.297   3.945  0.0563  0.0800  0.0387
    1OL     H7R10795   0.092   1.307   4.025 -0.4880 -0.4505  0.6226
    1OL     H7S10796   0.052   1.222   3.872  1.9648  0.5632  0.3653
    1OL     C1810797  -0.122   1.249   3.999  0.4928  0.0031  0.4320
    1OL     H8R10798  -0.191   1.271   3.917  2.9536  2.0470 -1.2876
    1OL     H8S10799  -0.164   1.307   4.081 -1.4768  0.0840 -0.5629
    1OL     C1910800  -0.113   1.100   4.024 -0.3228 -0.9211 -0.3566
    1OL     H9R10801  -0.111   1.036   3.936  1.5728 -0.5428 -0.6200
    1OL    C11010802  -0.113   1.054   4.149 -0.1685 -0.7001 -0.4266
    1OL    H10R10803  -0.099   0.948   4.168 -0.6549 -0.8149 -0.6967
    1OL    C11110804  -0.117   1.143   4.276 -0.5102  0.4226  0.3017
    1OL    H11R10805  -0.155   1.068   4.347 -1.4350 -0.6668 -1.2891
    1OL    H11S10806  -0.181   1.230   4.286  0.0086  1.1113 -1.9158
    1OL    C11210807   0.021   1.181   4.326 -0.0315  0.3004  0.0045
    1OL    H12R10808   0.071   1.233   4.244  0.9300 -0.0429  0.3627
    1OL    H12S10809   0.075   1.088   4.345 -0.8866 -0.0192  0.9652
    1OL    C11310810   0.024   1.258   4.455 -0.5082 -0.4648 -0.3666
    1OL    H13R10811  -0.045   1.343   4.450  1.3861  1.2025  0.4056
    1OL    H13S10812   0.128   1.284   4.472 -0.2697 -1.7582  0.3025
    1OL    C11410813  -0.011   1.166   4.580 -0.8581  0.1907  0.7595
    1OL    H14R10814   0.050   1.076   4.574  0.3619  1.0457 -0.6079
    1OL    H14S10815  -0.115   1.141   4.562 -1.0076  2.1199 -1.5912
    1OL    C11510816   0.002   1.233   4.718 -0.6788 -0.0471 -0.1946
    1OL    H15R10817   0.109   1.225   4.739 -0.6741  0.1857 -0.1325
    1OL    H15S10818  -0.049   1.180   4.799 -0.2856  0.0417  0.1163
    1OL    C11610819  -0.041   1.381   4.726  0.4932  0.4026  0.1269
    1OL    H16R10820  -0.146   1.382   4.694  1.0278 -1.0212 -1.8947
    1OL    H16S10821   0.020   1.444   4.661 -1.0515  3.6987  1.6437
    1OL    C11710822  -0.019   1.438   4.866  0.7266 -0.8883 -0.3023
    1OL    H17R10823   0.009   1.543   4.871 -0.9016 -0.3239 -1.7879
    1OL    H17S10824   0.059   1.374   4.906 -1.2164 -4.4964 -1.7974
    1OL    C11810825  -0.144   1.409   4.955  0.2472  0.4902  0.4115
    1OL    H18R10826  -0.181   1.308   4.941  0.4551  0.1658  2.0867
    1OL    H18S10827  -0.225   1.482   4.952 -3.3536 -3.1456  0.6075
    1OL    H18T10828  -0.115   1.415   5.060 -0.5177 -0.1924  0.6705
    1PA    C11610829   4.802   0.192   5.152 -0.2476 -0.8710 -0.0602
    1PA    H16R10830   4.893   0.133   5.161 -0.4474 -1.1526  0.1179
    1PA    H16S10831   4.712   0.132   5.140 -1.3058  0.5916  0.2835
    1PA    H16T10832   4.796   0.247   5.246 -0.6090 -1.1883  0.1025
    1PA    C11510833   4.829   0.293   5.034  0.2463  0.2289 -0.6661
    1PA    H15R10834   4.750   0.369   5.035 -0.5352 -0.5564  0.9985
    1PA    H15S10835   4.923   0.341   5.061 -0.8075  0.6869  2.5696
    1PA    C11410836   4.832   0.227   4.894 -0.8113  0.3396 -0.2157
    1PA    H14R10837   4.904   0.145   4.885 -0.8350  0.2827  0.1186
    1PA    H14S10838   4.733   0.192   4.863 -0.0545 -1.9529 -0.2257
    1PA    C11310839   4.887   0.337   4.791  0.0973  0.5557 -0.4128
    1PA    H13R10840   4.830   0.429   4.791  0.5791  0.8930  1.2486
    1PA    H13S10841   4.989   0.365   4.821  1.1367 -1.2510 -1.9812
    1PA    C11210842   4.878   0.286   4.646  0.0321  0.4469 -0.0981
    1PA    H12R10843   4.903   0.181   4.636 -1.3654 -0.0070  0.8493
    1PA    H12S10844   4.779   0.301   4.600  0.0803 -0.1941 -0.4297
    1PA    C11110845   4.959   0.369   4.552 -0.3712  0.3920  0.5558
    1PA    H11R10846   4.936   0.475   4.561  1.6055  0.9560 -0.4047
    1PA    H11S10847   5.061   0.358   4.589 -0.6316  0.3620  1.2721
    1PA    C11010848   4.972   0.325   4.404 -0.3494 -0.3299  0.0412
    1PA    H10R10849   4.975   0.217   4.422 -0.8836 -0.1374  1.4043
    1PA    H10S10850   4.882   0.351   4.348 -1.2813 -0.2903  1.5044
    1PA     C1910851   5.103   0.373   4.340 -0.3519 -0.0886 -0.8278
    1PA     H9R10852   5.100   0.482   4.340  1.7469  0.0282  0.2934
    1PA     H9S10853   5.190   0.354   4.404 -1.3180  0.6234  0.7615
    1PA     C1810854   5.123   0.332   4.193  0.0081  0.5120 -0.3280
    1PA     H8R10855   5.042   0.366   4.128 -0.9213  0.0882  0.5814
    1PA     H8S10856   5.216   0.383   4.164  1.1670 -0.4434  1.4786
    1PA     C1710857   5.128   0.182   4.165  0.2154 -0.0595  0.2981
    1PA     H7R10858   5.179   0.133   4.249  0.9794  2.1516  1.1911
    1PA     H7S10859   5.028   0.140   4.156  0.6562 -1.1125  0.0668
    1PA     C1610860   5.199   0.153   4.032 -0.8850 -0.5458 -0.7720
    1PA     H6R10861   5.306   0.147   4.049 -0.9685 -3.5012 -0.7315
    1PA     H6S10862   5.176   0.051   3.999 -1.6857 -1.0596  1.2119
    1PA     C1510863   5.176   0.233   3.903  0.2756  0.3543  0.2782
    1PA     H5R10864   5.187   0.341   3.920 -0.4996  0.1872  2.0155
    1PA     H5S10865   5.241   0.197   3.823 -1.3660 -2.5170  0.1000
    1PA     C1410866   5.035   0.224   3.854  0.7454  1.4156 -0.4708
    1PA     H4R10867   4.971   0.257   3.936 -2.7573  0.1591 -2.5042
    1PA     H4S10868   5.023   0.298   3.775  0.1985  0.7544 -1.0131
    1PA     C1310869   4.998   0.085   3.809 -0.2899 -0.3065  0.5632
    1PA     H3R10870   5.052   0.066   3.716 -2.9482 -2.3400 -0.6899
    1PA     H3S10871   5.028   0.003   3.875  0.5703  1.0469  1.9188
    1PA     C1210872   4.853   0.071   3.780  0.3376 -0.8042 -0.1046
    1PA     H2R10873   4.833  -0.035   3.763  2.2053 -1.5212  1.7605
    1PA     H2S10874   4.792   0.088   3.868 -0.2477 -3.8213  0.1738
    1PC     C1110875   4.807   0.153   3.656 -0.1373  0.1429  0.1854
    1PC     O1210876   4.781   0.270   3.655  0.7293 -0.0998  0.0637
    1PC     O1110877   4.800   0.069   3.546  0.2341 -0.3968  0.1107
    1PC      C110878   4.776   0.143   3.424 -0.6440  0.0462  0.0495
    1PC      HR10879   4.725   0.070   3.359 -2.9804  0.7945  0.9273
    1PC      HS10880   4.705   0.225   3.440  0.0850  0.2132  2.7701
    1PC      C210881   4.904   0.205   3.356 -0.2371 -0.1536  0.5318
    1PC      HX10882   4.862   0.243   3.262 -0.1195 -1.5922 -0.1253
    1PC      C310883   5.003   0.088   3.328 -0.1027  0.2265  0.0741
    1PC      HA10884   5.043   0.060   3.425  2.4188  0.6567 -0.7771
    1PC      HB10885   4.940   0.008   3.287 -1.8071  1.8745 -0.7007
    1PC     O3110886   5.117   0.120   3.242 -0.2249  0.2207 -0.3141
    1PC     P3110887   5.103   0.193   3.099  0.4239 -0.6844  0.1209
    1PC     O3210888   5.097   0.346   3.128  0.0402  0.1553 -0.3535
    1PC     C3110889   5.223   0.416   3.157  0.4253  0.9383  0.0101
    1PC     H1A10890   5.216   0.499   3.228  0.9647  1.3678 -0.4316
    1PC     H1B10891   5.290   0.341   3.200 -0.0772  1.0250  0.9695
    1PC     C3210892   5.285   0.472   3.026 -0.2986  0.1907 -0.3738
    1PC     H2A10893   5.376   0.531   3.039  0.2270  0.0238 -2.7371
    1PC     H2B10894   5.310   0.391   2.957  1.7518 -0.1926  0.7378
    1PC     N3110895   5.202   0.562   2.939 -0.3318  0.3448  0.0498
    1PC     C3310896   5.296   0.658   2.877  0.2504  0.2702  0.6941
    1PC     H3A10897   5.322   0.718   2.964  1.9910 -0.8958  1.0448
    1PC     H3B10898   5.384   0.607   2.837 -0.2408 -0.9177  1.0780
    1PC     H3C10899   5.246   0.718   2.801  0.6262 -1.9148 -1.3975
    1PC     C3410900   5.135   0.481   2.827 -0.6585  0.1520  0.0856
    1PC     H4A10901   5.070   0.412   2.880  2.1825 -0.6146  2.8948
    1PC     H4B10902   5.075   0.550   2.767 -1.3801  1.7104  2.4775
    1PC     H4C10903   5.209   0.427   2.767 -0.4418  1.1561 -0.5872
    1PC     C3510904   5.091   0.643   3.008  0.1208 -0.5594 -0.2482
    1PC     H5A10905   5.048   0.702   2.927 -0.1754  1.9195  1.5737
    1PC     H5B10906   5.148   0.699   3.083  0.4902 -3.3538  1.7052
    1PC     H5C10907   5.014   0.583   3.058 -0.5516  0.3672 -0.1474
    1PC     O3310908   5.225   0.159   3.025  0.1122  0.1571 -0.1223
    1PC     O3410909   4.965   0.154   3.049  0.2445  0.4433  0.4538
    1PC     O2110910   4.983   0.304   3.419 -0.4650 -0.0830  0.1355
    1PC     C2110911   4.951   0.434   3.418 -0.2249 -0.1741  0.4093
    1PC     O2210912   4.866   0.476   3.345  0.3084  0.1740  0.3835
    1OL     C1210913   5.031   0.520   3.514 -0.5905 -0.9185 -0.3817
    1OL     H2R10914   5.063   0.596   3.442  0.9602  0.6284  1.8275
    1OL     H2S10915   5.114   0.457   3.548  0.8474  0.8846 -0.4067
    1OL     C1310916   4.948   0.586   3.624 -0.1839  0.1062  0.2158
    1OL     H3R10917   4.900   0.503   3.677  2.8552 -3.1430 -1.6437
    1OL     H3S10918   4.871   0.641   3.570 -1.4646 -1.3928  0.4403
    1OL     C1410919   5.020   0.680   3.725  0.3166 -0.1593 -0.3901
    1OL     H4R10920   4.943   0.701   3.800 -0.7393 -0.1896 -1.4173
    1OL     H4S10921   5.046   0.778   3.686 -1.0039  0.5014  0.3087
    1OL     C1510922   5.130   0.614   3.798 -0.3843  0.5593 -0.2591
    1OL     H5R10923   5.200   0.582   3.721  0.0070 -1.0762  0.7247
    1OL     H5S10924   5.090   0.535   3.863  1.4066 -0.7791 -0.6923
    1OL     C1610925   5.225   0.714   3.879 -0.2592  0.2737  0.7384
    1OL     H6R10926   5.163   0.775   3.945 -0.7975 -1.0182  1.4764
    1OL     H6S10927   5.262   0.786   3.806 -1.9945 -0.5649 -1.0537
    1OL     C1710928   5.334   0.654   3.973  0.2388 -0.3567  0.4767
    1OL     H7R10929   5.411   0.591   3.926  0.3316 -0.2019  0.4212
    1OL     H7S10930   5.286   0.586   4.043 -1.0471  0.1470  0.0981
    1OL     C1810931   5.413   0.753   4.057  0.4473 -0.1395  0.5967
    1OL     H8R10932   5.347   0.802   4.130  1.3366  1.7040  0.2188
    1OL     H8S10933   5.454   0.833   3.995 -0.2179 -0.1533  0.1217
    1OL     C1910934   5.520   0.686   4.132  0.7075 -0.4895 -0.1797
    1OL     H9R10935   5.599   0.651   4.065  0.3358 -2.3702  0.2905
    1OL    C11010936   5.528   0.688   4.265  0.5983  0.3004 -0.3700
    1OL    H10R10937   5.620   0.668   4.320 -0.3986  0.5538  1.4661
    1OL    C11110938   5.426   0.730   4.371 -0.0444 -0.4195 -0.1888
    1OL    H11R10939   5.331   0.759   4.324  0.3019 -1.0926 -1.3311
    1OL    H11S10940   5.470   0.818   4.417 -0.2043  1.6155 -3.5493
    1OL    C11210941   5.393   0.616   4.472 -0.4576 -0.2707  0.8079
    1OL    H12R10942   5.486   0.572   4.507  0.6450  0.1241 -1.4308
    1OL    H12S10943   5.354   0.540   4.405 -0.6019 -1.2112  1.9369
    1OL    C11310944   5.289   0.653   4.574 -0.0420 -0.4829 -0.3517
    1OL    H13R10945   5.245   0.566   4.623 -1.5975 -0.7662 -2.1135
    1OL    H13S10946   5.207   0.695   4.514 -0.7387  0.2942  1.1056
    1OL    C11410947   5.329   0.753   4.684 -0.1609 -0.6162 -0.2689
    1OL    H14R10948   5.396   0.825   4.638 -0.1943 -0.0463  0.5521
    1OL    H14S10949   5.378   0.698   4.765  0.4136  2.8077  1.9203
    1OL    C11510950   5.215   0.823   4.749  0.1787 -0.3637 -0.8201
    1OL    H15R10951   5.167   0.892   4.679  2.1447  1.1459 -0.7657
    1OL    H15S10952   5.255   0.877   4.836 -2.1962 -3.2477  2.3508
    1OL    C11610953   5.105   0.735   4.812 -0.4854  0.0188  0.5057
    1OL    H16R10954   5.150   0.659   4.876 -0.1695 -1.1335 -1.0247
    1OL    H16S10955   5.058   0.682   4.729  1.5897  1.2338 -1.5706
    1OL    C11710956   5.000   0.822   4.893 -0.4889  0.2907  0.4194
    1OL    H17R10957   4.955   0.901   4.832 -2.4383 -0.4204  0.8379
    1OL    H17S10958   5.045   0.878   4.974  1.0583  0.8233 -0.7592
    1OL    C11810959   4.878   0.743   4.947  0.3116  0.1251 -0.3235
    1OL    H18R10960   4.914   0.672   5.023 -0.8317  0.2684  0.3696
    1OL    H18S10961   4.825   0.682   4.873 -2.0224 -0.9358  2.0510
    1OL    H18T10962   4.795   0.789   5.000 -1.0874 -3.6571  1.1081
    1PA    C11610963   2.408   0.149   5.165 -0.0232 -0.2612 -0.3721
    1PA    H16R10964   2.366   0.234   5.221  0.6648  0.0842 -0.3694
    1PA    H16S10965   2.494   0.105   5.216 -0.2489 -0.3466 -0.0633
    1PA    H16T10966   2.328   0.075   5.160  1.1525 -1.4650 -3.3224
    1PA    C11510967   2.459   0.199   5.030  0.1620  0.1685  0.0123
    1PA    H15R10968   2.373   0.249   4.984  0.7088  0.2329 -0.9450
    1PA    H15S10969   2.534   0.274   5.057  0.8872 -1.0110  1.3887
    1PA    C11410970   2.514   0.077   4.952 -0.0458 -0.0496  0.7356
    1PA    H14R10971   2.597   0.040   5.012 -0.7602 -1.6113  0.8004
    1PA    H14S10972   2.431   0.006   4.948 -1.9185  1.9789  1.8089
    1PA    C11310973   2.572   0.112   4.811  0.0002  0.6126 -0.0301
    1PA    H13R10974   2.644   0.194   4.818  2.8394 -1.7057 -0.1624
    1PA    H13S10975   2.620   0.019   4.778 -0.6846 -0.0814  0.8744
    1PA    C11210976   2.469   0.145   4.710  0.1630  0.2547 -0.2432
    1PA    H12R10977   2.421   0.241   4.729  2.7999  1.7713 -0.7991
    1PA    H12S10978   2.512   0.160   4.611  1.1229 -0.9798 -0.0391
    1PA    C11110979   2.362   0.036   4.693  0.2935  0.7520 -0.1566
    1PA    H11R10980   2.410  -0.059   4.719  3.3980  1.6323 -2.1118
    1PA    H11S10981   2.281   0.031   4.765  0.2524  0.6145 -0.2117
    1PA    C11010982   2.305   0.017   4.551 -0.3328 -0.5909 -0.5780
    1PA    H10R10983   2.250   0.106   4.521  0.8682  0.0717 -0.8787
    1PA    H10S10984   2.387   0.001   4.481 -2.3912  1.1892 -3.6416
    1PA     C1910985   2.199  -0.102   4.542  0.6169 -0.4934 -0.2457
    1PA     H9R10986   2.229  -0.178   4.615 -0.3888 -0.9394 -0.2814
    1PA     H9S10987   2.101  -0.075   4.580  1.8351  1.7790  1.5264
    1PA     C1810988   2.167  -0.169   4.409 -0.3311 -0.1356  0.9543
    1PA     H8R10989   2.249  -0.234   4.377 -0.1398  1.4849 -2.2194
    1PA     H8S10990   2.087  -0.241   4.425 -1.1649  0.4580 -0.3631
    1PA     C1710991   2.129  -0.082   4.289 -0.0078 -0.1292  0.6733
    1PA     H7R10992   2.075   0.006   4.325 -0.0797  0.4532 -0.7845
    1PA     H7S10993   2.212  -0.036   4.234 -0.3113 -0.7713 -0.3590
    1PA     C1610994   2.040  -0.150   4.183 -0.4495 -0.1145  0.3857
    1PA     H6R10995   2.100  -0.212   4.116 -0.6791  0.5082 -0.4179
    1PA     H6S10996   1.968  -0.209   4.239 -1.2132  0.8624  0.4576
    1PA     C1510997   1.955  -0.045   4.110  0.0499  0.3508  0.1028
    1PA     H5R10998   1.881   0.003   4.175 -0.7885 -0.8563  0.0823
    1PA     H5S10999   2.019   0.031   4.067 -0.7583  2.0548  1.7562
    1PA     C1411000   1.873  -0.099   3.995  0.0233 -0.2172  0.0100
    1PA     H4R11001   1.800  -0.165   4.042 -0.9165  0.1968 -0.8264
    1PA     H4S11002   1.820  -0.013   3.953 -0.1690 -0.8279 -1.0456
    1PA     C1311003   1.936  -0.190   3.890  0.2444  0.1953  0.1679
    1PA     H3R11004   2.044  -0.185   3.879  0.4865 -2.1588  0.9817
    1PA     H3S11005   1.922  -0.293   3.924  0.8745  0.3907  1.0193
    1PA     C1211006   1.860  -0.172   3.752  0.4211 -1.0189 -0.3990
    1PA     H2R11007   1.756  -0.179   3.785  0.1768  2.2481 -0.2307
    1PA     H2S11008   1.869  -0.073   3.709 -0.9016 -0.5012  0.4522
    1PC     C1111009   1.888  -0.281   3.653 -0.2386 -0.1280 -0.3064
    1PC     O1211010   1.996  -0.316   3.613  0.1994 -0.5037 -0.1370
    1PC     O1111011   1.769  -0.319   3.608  0.2054 -0.7416 -0.1784
    1PC      C111012   1.773  -0.424   3.509  0.1651 -0.0522  0.2495
    1PC      HR11013   1.860  -0.415   3.444 -0.6825 -0.1055 -0.9335
    1PC      HS11014   1.774  -0.517   3.567 -1.2552  0.1076  0.5675
    1PC      C211015   1.649  -0.427   3.418 -0.6793  0.1138  0.2842
    1PC      HX11016   1.650  -0.513   3.351 -1.0936  0.3622 -0.0454
    1PC      C311017   1.638  -0.291   3.337 -0.2629  0.1809  0.0995
    1PC      HA11018   1.537  -0.276   3.297 -0.4163  0.9240  0.7267
    1PC      HB11019   1.657  -0.198   3.391  0.4482  0.5457 -0.7600
    1PC     O3111020   1.728  -0.307   3.227  0.0232  0.7780  0.3302
    1PC     P3111021   1.709  -0.214   3.094  0.1453 -0.1733  0.1974
    1PC     O3211022   1.807  -0.101   3.108 -0.1158 -0.2211 -0.2623
    1PC     C3111023   1.778   0.021   3.177 -0.3726  0.0201 -0.4243
    1PC     H1A11024   1.709   0.073   3.109  0.5437  1.9349  0.0334
    1PC     H1B11025   1.721   0.007   3.269  0.5869  0.9798  0.3295
    1PC     C3211026   1.897   0.111   3.195 -0.6865  0.5243  0.0485
    1PC     H2A11027   1.933   0.139   3.096 -0.2377 -1.4131 -0.3843
    1PC     H2B11028   1.863   0.201   3.248 -2.5268  1.1855 -2.1212
    1PC     N3111029   2.021   0.063   3.268 -0.1675 -0.5640  0.4051
    1PC     C3311030   2.095  -0.037   3.187  0.7298  0.3324 -0.9660
    1PC     H3A11031   2.148  -0.112   3.245  1.3379  1.4192 -0.0890
    1PC     H3B11032   2.017  -0.088   3.129  1.1929 -0.7826 -0.6209
    1PC     H3C11033   2.162   0.016   3.118  2.2758  0.6833  0.7507
    1PC     C3411034   2.109   0.183   3.277 -0.3099  0.1636 -0.3554
    1PC     H4A11035   2.059   0.248   3.349  1.7508  0.3824  0.9375
    1PC     H4B11036   2.201   0.149   3.324  0.1892  0.7495 -0.9002
    1PC     H4C11037   2.117   0.234   3.181  0.5480  2.1673  0.7277
    1PC     C3511038   1.988   0.010   3.406 -0.1747 -0.9594  0.3954
    1PC     H5A11039   2.076   0.022   3.469 -0.9788 -0.0019  1.3557
    1PC     H5B11040   1.973  -0.097   3.386  1.2903 -0.8949 -1.3728
    1PC     H5C11041   1.899   0.055   3.449 -1.0017 -1.0345 -1.1797
    1PC     O3311042   1.752  -0.295   2.975  0.0082  0.2331 -0.6573
    1PC     O3411043   1.576  -0.148   3.094 -0.4255  0.0866  0.0753
    1PC     O2111044   1.537  -0.441   3.505  0.5475 -0.1845  0.2265
    1PC     C2111045   1.480  -0.561   3.533 -0.4696 -0.2114  0.0513
    1PC     O2211046   1.540  -0.663   3.518  0.5623 -0.2816  0.9199
    1OL     C1211047   1.343  -0.555   3.599 -0.2299 -0.6562  0.8572
    1OL     H2R11048   1.290  -0.643   3.564  1.2613 -0.5705 -1.8945
    1OL     H2S11049   1.291  -0.464   3.568 -1.0052 -2.1542 -2.7292
    1OL     C1311050   1.356  -0.553   3.759 -0.0680  0.3066 -0.4863
    1OL     H3R11051   1.253  -0.555   3.796  0.0572  1.4821 -0.0477
    1OL     H3S11052   1.399  -0.457   3.790  2.3321 -1.3272  1.6860
    1OL     C1411053   1.452  -0.665   3.814 -0.0893 -0.6638  0.6493
    1OL     H4R11054   1.554  -0.649   3.778  0.2209  0.7835  2.0557
    1OL     H4S11055   1.407  -0.756   3.774  0.3679 -0.3917 -0.5258
    1OL     C1511056   1.465  -0.666   3.963 -0.3950 -0.3510  0.0574
    1OL     H5R11057   1.538  -0.733   4.008 -1.5204 -0.2652  2.1182
    1OL     H5S11058   1.372  -0.708   4.003 -0.5378 -1.0843 -0.9877
    1OL     C1611059   1.482  -0.523   4.020  0.6431  0.2251  0.9541
    1OL     H6R11060   1.399  -0.458   3.989  0.1153  0.5132  2.8555
    1OL     H6S11061   1.581  -0.488   3.990 -0.2472  0.7127 -1.7162
    1OL     C1711062   1.483  -0.515   4.174 -0.5034  0.6957 -0.1239
    1OL     H7R11063   1.417  -0.596   4.204 -0.5621  1.0283  0.6888
    1OL     H7S11064   1.445  -0.423   4.219 -1.1690 -0.1417  1.0816
    1OL     C1811065   1.619  -0.558   4.243  0.6125  0.5107  0.3939
    1OL     H8R11066   1.648  -0.651   4.193  3.2850  1.8725 -0.7986
    1OL     H8S11067   1.600  -0.596   4.344 -1.1443 -1.8654 -0.7143
    1OL     C1911068   1.725  -0.453   4.237  0.4903  0.1079  0.2551
    1OL     H9R11069   1.718  -0.375   4.162 -1.0518 -0.4556 -0.2289
    1OL    C11011070   1.826  -0.445   4.319  0.7353  0.8799 -0.5261
    1OL    H10R11071   1.896  -0.362   4.321  0.8474  0.7814 -0.2998
    1OL    C11111072   1.850  -0.540   4.433  0.4111  0.0637 -0.3335
    1OL    H11R11073   1.907  -0.629   4.407  0.3841 -0.7779  2.2068
    1OL    H11S11074   1.761  -0.579   4.484  1.1431  1.4130  2.1674
    1OL    C11211075   1.946  -0.480   4.538 -0.2421  0.2503  0.3056
    1OL    H12R11076   1.901  -0.389   4.579  0.3257  0.6782 -0.0092
    1OL    H12S11077   2.034  -0.456   4.479 -0.9685 -1.7406 -1.7051
    1OL    C11311078   1.985  -0.577   4.657 -0.9023  0.0548  0.2109
    1OL    H13R11079   2.026  -0.670   4.617  0.8024  0.5864  0.6053
    1OL    H13S11080   1.895  -0.593   4.717 -1.8882  0.2446 -1.1633
    1OL    C11411081   2.100  -0.507   4.743  0.3067  1.0018  0.5105
    1OL    H14R11082   2.182  -0.476   4.678  0.8832  0.7627  1.1077
    1OL    H14S11083   2.136  -0.593   4.801 -0.8803 -1.1849 -1.8134
    1OL    C11511084   2.054  -0.396   4.834  0.5163 -0.5653 -0.1040
    1OL    H15R11085   1.983  -0.436   4.907 -1.4532 -1.1231 -2.1886
    1OL    H15S11086   1.981  -0.345   4.770  0.0514 -1.3138 -0.1807
    1OL    C11611087   2.173  -0.316   4.895 -0.0286  0.1285 -0.5126
    1OL    H16R11088   2.264  -0.335   4.837  0.3054 -2.2311  0.6707
    1OL    H16S11089   2.184  -0.360   4.994 -0.3266 -3.0846 -1.7946
    1OL    C11711090   2.145  -0.162   4.924 -1.2207  0.3732  0.5831
    1OL    H17R11091   2.137  -0.109   4.829 -1.0519 -2.1927 -0.9393
    1OL    H17S11092   2.222  -0.108   4.980  0.2281  0.0403 -1.0317
    1OL    C11811093   2.013  -0.148   5.012  0.4035  0.4082  0.8634
    1OL    H18R11094   2.022  -0.193   5.111 -3.4724 -1.5010  0.5343
    1OL    H18S11095   1.922  -0.196   4.975  0.7333  0.9061 -0.6937
    1OL    H18T11096   1.995  -0.042   5.031 -2.6354  0.1848 -0.1999
    1PA    C11611097   0.898   3.520   5.148 -0.3979  0.2161  0.6821
    1PA    H16R11098   0.984   3.564   5.097  0.0083 -2.2526 -0.9712
    1PA    H16S11099   0.940   3.423   5.177 -0.5124  0.0576  0.3259
    1PA    H16T11100   0.868   3.575   5.237  0.4488  0.4186  0.8553
    1PA    C11511101   0.782   3.498   5.050  0.4627  0.4821 -0.2908
    1PA    H15R11102   0.746   3.593   5.010 -0.9770  0.2000  0.2771
    1PA    H15S11103   0.820   3.434   4.969  0.7405 -0.9116  0.9099
    1PA    C11411104   0.658   3.430   5.118 -0.0911  0.3455 -0.7796
    1PA    H14R11105   0.681   3.329   5.152 -3.4476 -0.4309 -0.4230
    1PA    H14S11106   0.632   3.480   5.212  0.2917 -0.3799 -0.2873
    1PA    C11311107   0.539   3.416   5.021  0.1927 -0.3252 -0.3010
    1PA    H13R11108   0.485   3.511   5.024 -2.0615 -1.5293 -0.0979
    1PA    H13S11109   0.575   3.419   4.918 -0.2020  0.6262 -0.4270
    1PA    C11211110   0.443   3.302   5.063 -0.4129 -0.0812  0.1712
    1PA    H12R11111   0.494   3.211   5.031 -2.8523 -1.0878 -1.1205
    1PA    H12S11112   0.434   3.310   5.171 -0.7850  0.6869  0.0911
    1PA    C11111113   0.297   3.304   5.000 -0.5647  0.1138 -0.4831
    1PA    H11R11114   0.249   3.215   5.042  1.7417 -1.2614 -0.5988
    1PA    H11S11115   0.246   3.395   5.035 -0.4946  0.7865 -2.0723
    1PA    C11011116   0.295   3.296   4.844  0.4499 -0.1176 -0.9034
    1PA    H10R11117   0.368   3.366   4.802  0.8947 -0.2593 -0.3852
    1PA    H10S11118   0.317   3.193   4.812  1.7582 -0.0609 -0.2380
    1PA     C1911119   0.160   3.322   4.776  0.2546  0.2766 -0.4878
    1PA     H9R11120   0.089   3.244   4.804  2.0167 -1.9162 -1.7485
    1PA     H9S11121   0.117   3.413   4.819  0.7572  0.8947 -1.2459
    1PA     C1811122   0.160   3.329   4.620  0.1109  0.0559  0.1744
    1PA     H8R11123   0.257   3.361   4.581 -0.5980  1.5669 -0.4564
    1PA     H8S11124   0.137   3.230   4.581 -0.9667  0.6458 -0.7457
    1PA     C1711125   0.055   3.423   4.561  0.2787 -0.3397  0.4512
    1PA     H7R11126  -0.048   3.393   4.583  0.0160  0.4709  0.3825
    1PA     H7S11127   0.062   3.523   4.605 -3.3709 -0.0967  0.8547
    1PA     C1611128   0.074   3.443   4.408  0.5028 -0.1621 -0.4337
    1PA     H6R11129   0.028   3.356   4.361  1.8565 -0.8450 -0.5402
    1PA     H6S11130   0.019   3.533   4.381 -0.2648  0.2722  2.2530
    1PA     C1511131   0.223   3.458   4.362 -0.1601  0.7102  0.6581
    1PA     H5R11132   0.283   3.517   4.431 -0.3414  1.3787  0.2501
    1PA     H5S11133   0.257   3.355   4.356  0.0007  0.8046 -0.1396
    1PA     C1411134   0.251   3.520   4.225 -0.1535 -0.3821  0.0317
    1PA     H4R11135   0.360   3.516   4.221 -0.0520  0.8179  1.0793
    1PA     H4S11136   0.206   3.450   4.154 -0.2196 -0.0108 -0.2956
    1PA     C1311137   0.206   3.662   4.192 -0.3962 -0.1062  0.2163
    1PA     H3R11138   0.207   3.710   4.290  1.4437 -0.6065  0.4847
    1PA     H3S11139   0.281   3.705   4.124  3.1230 -0.8673  3.2938
    1PA     C1211140   0.074   3.660   4.123 -0.0721 -0.7623 -0.2714
    1PA     H2R11141   0.006   3.593   4.176  2.8856 -2.8686  1.1187
    1PA     H2S11142   0.027   3.759   4.122  0.0609 -0.6994 -0.7938
    1PC     C1111143   0.075   3.605   3.985 -0.4455  0.2140 -0.5880
    1PC     O1211144   0.129   3.659   3.887 -0.1241 -0.5703  0.0127
    1PC     O1111145  -0.003   3.490   3.966 -0.7073 -0.0423 -0.5266
    1PC      C111146  -0.030   3.443   3.831  0.2488  0.2180  0.9817
    1PC      HR11147  -0.039   3.521   3.754  2.3200  0.9937  1.4515
    1PC      HS11148   0.044   3.370   3.799 -2.3364 -0.6659 -4.0460
    1PC      C211149  -0.166   3.368   3.840 -0.2971 -0.3434 -0.0955
    1PC      HX11150  -0.149   3.273   3.890  0.7741  0.0553  0.3209
    1PC      C311151  -0.232   3.339   3.705 -0.3809 -0.0493  0.2723
    1PC      HA11152  -0.313   3.267   3.722 -0.7969  0.1711 -0.6947
    1PC      HB11153  -0.258   3.437   3.666  1.7864  0.4916  0.0346
    1PC     O3111154  -0.135   3.268   3.618 -0.0852 -0.2660  0.4001
    1PC     P3111155  -0.100   3.318   3.472 -0.1181  0.1883  0.0902
    1PC     O3211156  -0.011   3.452   3.500 -0.3412  0.1017  0.6421
    1PC     C3111157  -0.072   3.580   3.475  0.7756  1.1101  0.4752
    1PC     H1A11158  -0.076   3.601   3.368  2.6688  1.8676  0.5060
    1PC     H1B11159  -0.176   3.582   3.508  0.4581  0.5437 -0.4276
    1PC     C3211160   0.006   3.688   3.548  0.6734  0.9404  0.7056
    1PC     H2A11161  -0.049   3.782   3.542 -2.1010 -0.5510  0.9667
    1PC     H2B11162  -0.010   3.661   3.653 -0.5649  0.6360  0.4490
    1PC     N3111163   0.153   3.701   3.521  0.8275  0.1178 -1.0997
    1PC     C3311164   0.191   3.750   3.388  0.8785 -0.7424 -0.3678
    1PC     H3A11165   0.186   3.675   3.309  0.3276 -1.1524  0.0550
    1PC     H3B11166   0.126   3.833   3.361  3.2982  1.0127 -1.2074
    1PC     H3C11167   0.296   3.777   3.402  0.4700  0.8454 -0.1637
    1PC     C3411168   0.184   3.804   3.617  0.4270  0.7416 -0.5159
    1PC     H4A11169   0.142   3.764   3.709  0.4142 -0.5558 -1.0719
    1PC     H4B11170   0.290   3.830   3.611  0.7400 -0.6430 -1.2088
    1PC     H4C11171   0.125   3.893   3.591  0.0021  0.7318  0.3844
    1PC     C3511172   0.234   3.576   3.548  0.2590  0.1586 -0.1179
    1PC     H5A11173   0.201   3.539   3.646  0.1386 -0.5583 -0.4219
    1PC     H5B11174   0.337   3.610   3.554 -0.6038  3.1554 -0.8344
    1PC     H5C11175   0.225   3.503   3.468  0.8436 -0.9138  0.7550
    1PC     O3311176  -0.020   3.210   3.403  0.4101 -0.2794 -0.1416
    1PC     O3411177  -0.221   3.364   3.401 -0.3140 -0.4980 -0.0221
    1PC     O2111178  -0.266   3.453   3.908 -0.2648  0.5582  0.0314
    1PC     C2111179  -0.361   3.401   3.991 -0.1923 -0.4303  0.0028
    1PC     O2211180  -0.385   3.285   4.003 -0.3178 -0.2787 -0.2898
    1OL     C1211181  -0.427   3.513   4.068  0.8534  0.1977  0.4201
    1OL     H2R11182  -0.517   3.533   4.010  1.7172 -0.2119 -1.1097
    1OL     H2S11183  -0.370   3.606   4.067 -1.0615  1.4398 -1.1872
    1OL     C1311184  -0.463   3.461   4.203  0.2038  0.4865  0.0349
    1OL     H3R11185  -0.530   3.375   4.210 -0.8345  1.3504  1.0976
    1OL     H3S11186  -0.512   3.537   4.263 -0.8947 -1.0740  1.1991
    1OL     C1411187  -0.334   3.428   4.277  0.8867  0.5108  0.0176
    1OL     H4R11188  -0.256   3.504   4.265  1.6413 -0.2282  0.1669
    1OL     H4S11189  -0.292   3.341   4.227 -0.1768  1.1204 -2.0674
    1OL     C1511190  -0.360   3.395   4.425 -0.6109  0.0390 -0.0704
    1OL     H5R11191  -0.406   3.479   4.478  0.7983 -0.8779  2.8587
    1OL     H5S11192  -0.266   3.374   4.478 -1.0097 -1.5775  0.0431
    1OL     C1611193  -0.439   3.265   4.449 -0.1785  0.3582  0.2638
    1OL     H6R11194  -0.390   3.176   4.410 -2.0363 -0.5547 -0.0948
    1OL     H6S11195  -0.538   3.283   4.407 -0.7934 -1.8108  0.6701
    1OL     C1711196  -0.451   3.244   4.598  0.3762  0.5494 -0.4661
    1OL     H7R11197  -0.491   3.330   4.653 -1.4068 -0.4779 -0.0996
    1OL     H7S11198  -0.353   3.227   4.642  0.9691  0.3626 -1.8133
    1OL     C1811199  -0.543   3.128   4.651 -0.6852  0.5515  0.0243
    1OL     H8R11200  -0.513   3.034   4.604  0.3945  0.1676  1.3976
    1OL     H8S11201  -0.643   3.156   4.620 -0.1877  0.7615 -1.4865
    1OL     C1911202  -0.543   3.120   4.804 -0.1241 -0.5703 -0.1992
    1OL     H9R11203  -0.617   3.186   4.850  0.8171  0.9075 -0.7331
    1OL    C11011204  -0.453   3.059   4.884  0.1966 -0.1148 -0.4608
    1OL    H10R11205  -0.459   3.083   4.990 -0.0371  2.0181 -0.8988
    1OL    C11111206  -0.334   2.984   4.831  0.4969  0.9766 -0.0670
    1OL    H11R11207  -0.236   3.029   4.851  0.3900  0.1609  2.6192
    1OL    H11S11208  -0.335   2.996   4.722  0.5126  1.0492 -0.0593
    1OL    C11211209  -0.314   2.838   4.880  0.3095 -0.4466  0.1024
    1OL    H12R11210  -0.210   2.805   4.884  0.6732  0.2438 -2.0688
    1OL    H12S11211  -0.356   2.768   4.808  0.6597 -0.0306 -0.5239
    1OL    C11311212  -0.384   2.811   5.016  0.3333  0.2195 -0.2534
    1OL    H13R11213  -0.490   2.828   4.997  0.5447  0.1308 -1.5670
    1OL    H13S11214  -0.346   2.878   5.093 -1.2575  0.5697  0.2772
    1OL    C11411215  -0.372   2.673   5.075  0.6087  0.1349 -0.1244
    1OL    H14R11216  -0.410   2.605   4.999 -2.2240  1.5735 -0.1072
    1OL    H14S11217  -0.435   2.665   5.164  0.8661 -0.5380  0.0031
    1OL    C11511218  -0.230   2.623   5.100  0.3009 -0.5926 -0.5815
    1OL    H15R11219  -0.182   2.618   5.002 -0.3922 -1.0495 -0.9071
    1OL    H15S11220  -0.233   2.521   5.140  1.7306 -1.0795 -1.6386
    1OL    C11611221  -0.136   2.695   5.190  0.0780 -0.0620 -0.0419
    1OL    H16R11222  -0.178   2.701   5.290 -0.1042 -1.7443  0.0172
    1OL    H16S11223  -0.120   2.795   5.150  0.4279 -0.1856 -0.2215
    1OL    C11711224   0.003   2.631   5.199  0.2250 -0.2726  0.3997
    1OL    H17R11225   0.047   2.616   5.100 -3.2927 -0.5986 -1.2623
    1OL    H17S11226  -0.022   2.535   5.246 -3.3964  0.9041  1.1820
    1OL    C11811227   0.098   2.719   5.283 -0.2165 -0.6573 -0.3997
    1OL    H18R11228   0.121   2.816   5.239  2.0152 -1.0742 -0.2584
    1OL    H18S11229   0.193   2.673   5.310 -0.1616  0.3929  1.3701
    1OL    H18T11230   0.052   2.746   5.379  1.4585  1.1095 -0.0517
    1PA    C11611231   0.696   5.039   4.728  0.3848 -0.1768 -0.0428
    1PA    H16R11232   0.685   5.087   4.825  0.4454  1.5865 -0.8622
    1PA    H16S11233   0.647   5.101   4.652 -0.0509 -1.7478 -1.0907
    1PA    H16T11234   0.802   5.033   4.699  0.5811 -1.9911  0.8895
    1PA    C11511235   0.646   4.888   4.723  0.3891 -0.6621 -0.9536
    1PA    H15R11236   0.697   4.846   4.810 -0.7937 -0.5988 -0.2003
    1PA    H15S11237   0.538   4.885   4.743  0.0458  1.7275 -2.1072
    1PA    C11411238   0.689   4.825   4.592 -0.0093  0.5956  0.1400
    1PA    H14R11239   0.646   4.874   4.504  0.0361  0.6896  0.1701
    1PA    H14S11240   0.796   4.834   4.571 -0.0181 -0.9871 -0.8132
    1PA    C11311241   0.643   4.675   4.587 -0.0328 -0.0696 -0.1081
    1PA    H13R11242   0.543   4.674   4.631 -0.3340 -0.3684 -0.7871
    1PA    H13S11243   0.636   4.644   4.483  0.0378 -2.2173  0.4853
    1PA    C11211244   0.739   4.582   4.662  0.9372  0.0626 -0.2389
    1PA    H12R11245   0.736   4.595   4.770 -0.3911  0.1554 -0.2785
    1PA    H12S11246   0.706   4.479   4.648  3.0597 -0.8228  0.7750
    1PA    C11111247   0.884   4.585   4.618 -0.1005 -0.3439  0.4613
    1PA    H11R11248   0.888   4.633   4.520  2.1531  2.4704  1.7842
    1PA    H11S11249   0.938   4.643   4.693 -0.9982  2.1161 -0.6977
    1PA    C11011250   0.950   4.450   4.615  0.4603  0.3783 -0.2271
    1PA    H10R11251   0.978   4.419   4.716 -0.8377 -0.6916 -0.1708
    1PA    H10S11252   0.878   4.373   4.586  0.5411  0.2704 -0.1442
    1PA     C1911253   1.077   4.439   4.531 -0.4756 -0.0143  0.9878
    1PA     H9R11254   1.147   4.508   4.577 -1.5958  1.6828  0.2284
    1PA     H9S11255   1.130   4.343   4.525  1.6479  1.0858 -5.0179
    1PA     C1811256   1.049   4.470   4.385  0.2771  0.2594 -0.6794
    1PA     H8R11257   0.961   4.423   4.341 -0.4865  0.0841  0.9631
    1PA     H8S11258   1.047   4.578   4.371  2.7041  0.6124  1.0235
    1PA     C1711259   1.168   4.438   4.290  0.0875 -0.2050 -0.3648
    1PA     H7R11260   1.261   4.487   4.317  0.7397 -2.4720  1.9948
    1PA     H7S11261   1.194   4.333   4.306 -0.7234 -0.2774  0.5725
    1PA     C1611262   1.138   4.465   4.138  0.2825  0.0561 -0.2460
    1PA     H6R11263   1.130   4.573   4.123  0.4852  0.3429  1.4766
    1PA     H6S11264   1.229   4.461   4.079  0.0596  3.3528 -0.9839
    1PA     C1511265   1.010   4.394   4.087  0.3072  0.0831 -0.2797
    1PA     H5R11266   1.050   4.315   4.022  2.4059  0.8354  0.0288
    1PA     H5S11267   0.952   4.332   4.156 -2.1014 -1.4070 -3.3204
    1PA     C1411268   0.918   4.493   4.010 -0.2762 -0.2098  0.7797
    1PA     H4R11269   0.842   4.539   4.073 -0.6648  0.0016  0.1610
    1PA     H4S11270   0.980   4.574   3.972 -2.3882  2.0137  1.8350
    1PA     C1311271   0.845   4.427   3.890  0.5728  0.3976 -0.0928
    1PA     H3R11272   0.919   4.358   3.849 -0.5248 -0.3041 -0.9619
    1PA     H3S11273   0.761   4.371   3.930  0.6653 -0.3629 -0.9307
    1PA     C1211274   0.797   4.529   3.785  0.1603 -0.1592  0.1146
    1PA     H2R11275   0.715   4.589   3.827  0.1152 -0.7927  0.9676
    1PA     H2S11276   0.868   4.607   3.758  0.2571 -0.2393  0.1389
    1PC     C1111277   0.752   4.468   3.654  0.4898 -0.0653  0.5378
    1PC     O1211278   0.824   4.402   3.575 -0.4363  0.5591 -0.0630
    1PC     O1111279   0.631   4.516   3.617 -0.1493  0.0971  0.1510
    1PC      C111280   0.584   4.494   3.477  0.4051  0.1347  0.0646
    1PC      HR11281   0.515   4.576   3.456 -1.4989 -1.2581  0.6031
    1PC      HS11282   0.670   4.490   3.411 -0.2890 -2.7321 -0.8143
    1PC      C211283   0.506   4.354   3.463  0.5997  0.6612  0.7970
    1PC      HX11284   0.588   4.284   3.482 -0.1199  0.6133  4.3085
    1PC      C311285   0.425   4.346   3.329 -0.5473  0.4768 -0.8419
    1PC      HA11286   0.402   4.247   3.288 -2.3127  0.1334  0.8282
    1PC      HB11287   0.328   4.384   3.363 -0.8270 -1.8029  1.1419
    1PC     O3111288   0.494   4.429   3.225 -0.8524 -0.0882 -0.1268
    1PC     P3111289   0.621   4.384   3.134 -0.4044  0.1260 -0.4726
    1PC     O3211290   0.732   4.499   3.174  0.7472  0.3595 -0.0404
    1PC     C3111291   0.739   4.625   3.093 -0.4322 -0.1314 -0.6909
    1PC     H1A11292   0.834   4.671   3.121 -0.1768 -0.9072 -0.2781
    1PC     H1B11293   0.747   4.602   2.986 -0.4196 -0.1355 -0.6891
    1PC     C3211294   0.621   4.710   3.143  0.8172 -0.0048 -0.1000
    1PC     H2A11295   0.531   4.651   3.124  1.2419 -0.2243 -1.5862
    1PC     H2B11296   0.634   4.739   3.247  0.3164 -0.2207  0.0284
    1PC     N3111297   0.591   4.836   3.068 -0.1123 -0.2757 -0.4092
    1PC     C3311298   0.534   4.812   2.936 -0.4048  0.2731  0.0532
    1PC     H3A11299   0.624   4.793   2.877  1.1709  1.2592  2.0115
    1PC     H3B11300   0.456   4.736   2.942 -1.3743  1.0363 -1.9135
    1PC     H3C11301   0.491   4.903   2.893  2.9908  0.8178 -2.6157
    1PC     C3411302   0.492   4.911   3.152 -0.5189  0.4739 -0.7646
    1PC     H4A11303   0.541   4.965   3.233  1.1997  0.5100 -1.7867
    1PC     H4B11304   0.436   4.986   3.096 -1.2012  0.5943  0.0623
    1PC     H4C11305   0.423   4.833   3.183 -2.2141  2.2651  0.1983
    1PC     C3511306   0.714   4.914   3.055  0.6252  0.4989  0.5303
    1PC     H5A11307   0.777   4.852   2.990  1.0079  1.1011  0.3210
    1PC     H5B11308   0.763   4.928   3.152 -0.4549  0.1243  1.1402
    1PC     H5C11309   0.686   4.999   2.993 -0.6339 -1.3763 -1.6281
    1PC     O3311310   0.671   4.251   3.179  0.7436  0.2616  0.2581
    1PC     O3411311   0.566   4.397   2.996 -0.0469 -0.0351  0.0216
    1PC     O2111312   0.412   4.333   3.570 -0.8352  0.2819  0.0760
    1PC     C2111313   0.441   4.250   3.673  0.1253 -0.0917 -0.6027
    1PC     O2211314   0.545   4.212   3.709 -0.6024  0.0664  0.2895
    1OL     C1211315   0.322   4.229   3.760  0.1062 -0.0692 -0.4046
    1OL     H2R11316   0.343   4.156   3.839 -3.6988 -1.0338 -0.0797
    1OL     H2S11317   0.246   4.181   3.698  0.2838 -0.3759 -0.3853
    1OL     C1311318   0.264   4.360   3.827 -0.0721  0.0656 -0.2104
    1OL     H3R11319   0.192   4.341   3.906  1.1220  0.6366  1.0602
    1OL     H3S11320   0.201   4.412   3.754  0.1985  0.1938 -0.3566
    1OL     C1411321   0.371   4.460   3.879  0.0675 -0.8588 -0.5983
    1OL     H4R11322   0.431   4.495   3.795  1.0769  2.4709  1.3296
    1OL     H4S11323   0.440   4.403   3.942  0.6884  0.7430  0.2364
    1OL     C1511324   0.319   4.577   3.968 -0.0046 -0.0862  0.6932
    1OL     H5R11325   0.272   4.530   4.054 -1.3864 -1.0143 -0.5364
    1OL     H5S11326   0.255   4.646   3.913  0.7463  1.4604  1.6674
    1OL     C1611327   0.427   4.665   4.030  0.2303  0.4616  0.2902
    1OL     H6R11328   0.509   4.686   3.960  0.4168  0.7039  0.5810
    1OL     H6S11329   0.456   4.594   4.108 -2.9607 -1.2134  0.1253
    1OL     C1711330   0.371   4.789   4.100  0.0687  0.3093  0.0791
    1OL     H7R11331   0.276   4.777   4.152 -0.5500  1.8159 -0.6384
    1OL     H7S11332   0.356   4.855   4.014  3.2462 -1.3462 -1.9231
    1OL     C1811333   0.476   4.838   4.208 -0.4421 -0.2114  0.0304
    1OL     H8R11334   0.574   4.852   4.162  1.0039 -2.7880  2.0196
    1OL     H8S11335   0.485   4.761   4.285 -0.1108 -0.8257 -0.6080
    1OL     C1911336   0.442   4.972   4.269  0.1866 -0.2195  0.0611
    1OL     H9R11337   0.488   5.060   4.224  1.0128 -0.8496 -0.3499
    1OL    C11011338   0.356   4.997   4.365  0.9281 -0.9627 -0.2032
    1OL    H10R11339   0.331   5.095   4.406  0.5568 -1.0720 -0.1724
    1OL    C11111340   0.277   4.896   4.452 -0.0779  0.6174  0.2956
    1OL    H11R11341   0.323   4.801   4.425 -1.6999  0.4256 -2.0200
    1OL    H11S11342   0.173   4.882   4.424 -0.0007  0.6681 -0.0173
    1OL    C11211343   0.280   4.916   4.602  0.6271 -0.1737  0.1908
    1OL    H12R11344   0.370   4.969   4.632  0.2140 -0.3841  1.9077
    1OL    H12S11345   0.273   4.821   4.654 -1.2372 -0.3969 -0.3771
    1OL    C11311346   0.165   5.002   4.641  0.6240 -0.2953 -0.2181
    1OL    H13R11347   0.073   4.944   4.633  0.8553 -0.6762 -0.1391
    1OL    H13S11348   0.158   5.085   4.570 -3.9478  1.0044  1.3487
    1OL    C11411349   0.167   5.056   4.781  0.2081  0.1648  0.5686
    1OL    H14R11350   0.256   5.119   4.791 -0.8075  1.7781 -0.1608
    1OL    H14S11351   0.168   4.972   4.850  0.0999  0.2191  0.6364
    1OL    C11511352   0.039   5.133   4.804 -0.7561  0.2420  1.0300
    1OL    H15R11353  -0.046   5.066   4.798 -0.5729  0.0372  0.7099
    1OL    H15S11354   0.031   5.205   4.722 -1.2063  1.5532  2.1854
    1OL    C11611355   0.035   5.211   4.940 -0.1002  0.2823  0.1492
    1OL    H16R11356  -0.049   5.277   4.919  0.2591 -0.3235 -4.1140
    1OL    H16S11357   0.121   5.278   4.952  0.8588 -1.0242  0.7620
    1OL    C11711358   0.017   5.136   5.076 -0.2319 -0.2104  0.1894
    1OL    H17R11359   0.042   5.210   5.153  0.0768 -0.6858  0.5501
    1OL    H17S11360   0.080   5.047   5.076 -0.0072 -0.0635  1.0301
    1OL    C11811361  -0.131   5.095   5.114 -0.4864 -0.0159  0.1963
    1OL    H18R11362  -0.134   5.013   5.186 -0.3958 -0.4746 -0.3143
    1OL    H18S11363  -0.178   5.056   5.023 -1.3154  1.4407 -0.0364
    1OL    H18T11364  -0.182   5.185   5.148  0.1136 -0.3569  2.1169
    1PA    C11611365   4.373   4.995   4.435 -0.8803  0.2119  0.4876
    1PA    H16R11366   4.312   4.910   4.404 -0.6913 -0.3396  1.5863
    1PA    H16S11367   4.416   5.028   4.340  0.8851 -1.9894  0.4356
    1PA    H16T11368   4.307   5.074   4.472 -1.2567  0.0876  0.0860
    1PA    C11511369   4.480   4.952   4.540  0.2854  0.3217 -0.3861
    1PA    H15R11370   4.432   4.911   4.629  0.1310  2.6760  0.6882
    1PA    H15S11371   4.547   4.877   4.496  1.3521  1.3945 -0.6284
    1PA    C11411372   4.584   5.062   4.583  0.4946  0.3386  0.0913
    1PA    H14R11373   4.631   5.097   4.492 -0.8796  1.9452 -0.0527
    1PA    H14S11374   4.520   5.147   4.609  0.9888  0.1668  2.0182
    1PA    C11311375   4.672   5.043   4.714  0.0641 -0.7678  0.3206
    1PA    H13R11376   4.608   5.032   4.802 -0.5025 -2.4421 -0.2662
    1PA    H13S11377   4.733   4.953   4.704 -0.4473 -1.0360 -0.5180
    1PA    C11211378   4.765   5.157   4.766  0.2073 -0.1828  0.0831
    1PA    H12R11379   4.730   5.258   4.744  1.1067  0.0007 -0.5568
    1PA    H12S11380   4.772   5.149   4.875  0.5232  2.8123  0.3875
    1PA    C11111381   4.908   5.150   4.716  0.6596  0.0340  0.1220
    1PA    H11R11382   4.976   5.226   4.754  0.0765  0.1168  1.0223
    1PA    H11S11383   4.946   5.055   4.754  0.3061 -0.9067 -1.7663
    1PA    C11011384   4.920   5.134   4.563 -0.3404  0.4216  0.3280
    1PA    H10R11385   4.872   5.048   4.517  2.6240 -0.5627 -1.1966
    1PA    H10S11386   4.876   5.218   4.510  2.4195  0.6719 -1.7662
    1PA     C1911387   5.076   5.134   4.530 -0.2918  0.2494  0.0612
    1PA     H9R11388   5.113   5.233   4.556 -0.4193  1.0577 -2.5756
    1PA     H9S11389   5.123   5.057   4.592 -1.3202 -0.7106 -0.3153
    1PA     C1811390   5.090   5.117   4.379 -0.3244 -0.0063 -0.0197
    1PA     H8R11391   5.042   5.027   4.341 -2.0938  0.7810  0.2280
    1PA     H8S11392   5.032   5.202   4.344  1.2725  0.9344 -0.4739
    1PA     C1711393   5.234   5.134   4.324  0.0720 -0.2639  0.2141
    1PA     H7R11394   5.255   5.240   4.332 -1.3882 -0.0570  1.6956
    1PA     H7S11395   5.307   5.092   4.394  0.2444  0.7900  0.6751
    1PA     C1611396   5.245   5.098   4.177 -0.8526 -0.0143  0.0665
    1PA     H6R11397   5.221   4.993   4.157  0.1541 -0.3499  0.5191
    1PA     H6S11398   5.165   5.148   4.121 -1.8217 -0.5889  0.9051
    1PA     C1511399   5.381   5.115   4.108  0.0547 -0.5377 -0.3641
    1PA     H5R11400   5.396   5.223   4.103 -0.4800 -0.3173  1.7379
    1PA     H5S11401   5.467   5.087   4.168  1.6679 -0.6272 -2.5858
    1PA     C1411402   5.398   5.050   3.972 -0.5653  0.8281 -0.2415
    1PA     H4R11403   5.497   5.060   3.928 -1.0985  0.3904 -1.5812
    1PA     H4S11404   5.379   4.943   3.976  0.8324  0.5805  0.5120
    1PA     C1311405   5.306   5.098   3.868  0.2619 -0.1171 -0.2982
    1PA     H3R11406   5.205   5.090   3.908  0.4447 -3.1013 -0.2286
    1PA     H3S11407   5.311   5.207   3.862 -1.6646  0.1136  1.4198
    1PA     C1211408   5.311   5.036   3.728 -0.3241  0.3616 -1.0862
    1PA     H2R11409   5.410   5.070   3.698 -0.0640  0.7478  0.1625
    1PA     H2S11410   5.317   4.927   3.734 -0.9768  0.4108  1.2216
    1PC     C1111411   5.194   5.080   3.634  0.2672  0.0100 -0.0369
    1PC     O1211412   5.198   5.178   3.559 -0.7139  0.1382  0.8482
    1PC     O1111413   5.083   5.007   3.656  0.4536  0.5669 -0.0954
    1PC      C111414   4.969   5.044   3.567 -0.5760  0.1328 -0.5698
    1PC      HR11415   4.941   5.148   3.584  0.8045  0.4804 -0.2682
    1PC      HS11416   4.990   5.045   3.460  1.7464 -2.8513 -0.3060
    1PC      C211417   4.838   4.973   3.590  0.3080 -0.1034 -0.7423
    1PC      HX11418   4.859   4.868   3.570  1.4032 -0.0075 -0.1464
    1PC      C311419   4.719   5.022   3.499  0.2708 -0.8672 -0.1892
    1PC      HA11420   4.640   4.948   3.481 -1.1199  0.3639  0.5429
    1PC      HB11421   4.675   5.109   3.549  1.2682  1.5463 -3.2243
    1PC     O3111422   4.777   5.076   3.370 -0.7033 -0.7069 -0.0764
    1PC     P3111423   4.741   5.005   3.229  0.1120  0.3996  0.5719
    1PC     O3211424   4.588   5.015   3.209  0.1823 -0.7841 -0.0116
    1PC     C3111425   4.521   5.146   3.184 -0.3870  0.3730 -0.0597
    1PC     H1A11426   4.503   5.188   3.284  0.9894  1.1494 -0.1191
    1PC     H1B11427   4.586   5.210   3.125  0.3707 -1.2808 -1.0995
    1PC     C3211428   4.388   5.110   3.119  0.0773  0.1333 -0.5209
    1PC     H2A11429   4.315   5.054   3.179 -1.3716 -0.4284 -2.6715
    1PC     H2B11430   4.340   5.206   3.099 -3.2729 -1.0001  1.2966
    1PC     N3111431   4.398   5.037   2.986  0.1692  0.3075  0.1741
    1PC     C3311432   4.272   5.075   2.914 -0.6564  0.6067  0.3624
    1PC     H3A11433   4.266   5.000   2.834  1.4640  0.4225  0.3149
    1PC     H3B11434   4.198   5.069   2.994 -1.1472 -1.3693 -0.1807
    1PC     H3C11435   4.274   5.174   2.870  0.6736  0.0354 -0.9736
    1PC     C3411436   4.517   5.071   2.902  0.0886 -0.0836 -0.3447
    1PC     H4A11437   4.536   5.178   2.914  1.7714 -0.3588 -0.2007
    1PC     H4B11438   4.596   5.010   2.947 -0.8034 -0.0972  1.3057
    1PC     H4C11439   4.492   5.048   2.799 -0.0498  1.9842 -0.8032
    1PC     C3511440   4.394   4.895   3.006 -0.1276 -0.1347 -0.4933
    1PC     H5A11441   4.475   4.857   3.067  0.1554  0.3496 -0.5598
    1PC     H5B11442   4.407   4.849   2.908 -1.3763  0.7036 -1.0851
    1PC     H5C11443   4.302   4.862   3.054  0.2410  1.3280  1.3440
    1PC     O3311444   4.809   5.078   3.121 -0.3906 -0.4350 -0.1297
    1PC     O3411445   4.768   4.861   3.247 -0.0565 -0.1238 -0.1986
    1PC     O2111446   4.781   4.997   3.731 -0.2127  0.0379  0.3716
    1PC     C2111447   4.750   4.891   3.812 -0.0916  0.5839 -0.1309
    1PC     O2211448   4.757   4.774   3.777  0.1101  0.4795  0.4732
    1OL     C1211449   4.699   4.927   3.944  0.7387 -0.6124 -0.0997
    1OL     H2R11450   4.760   5.006   3.989 -0.9310 -0.4115  1.9218
    1OL     H2S11451   4.706   4.838   4.006 -0.0198 -0.9996 -0.5539
    1OL     C1311452   4.551   4.960   3.945 -0.1928  0.4021  0.2548
    1OL     H3R11453   4.530   5.032   3.867 -1.9344  0.3080  0.5980
    1OL     H3S11454   4.532   5.000   4.045  0.7874  2.8354 -0.4616
    1OL     C1411455   4.459   4.831   3.931 -0.2749 -0.0798 -0.0131
    1OL     H4R11456   4.466   4.807   3.825 -0.6596  3.7087 -1.0175
    1OL     H4S11457   4.356   4.861   3.953 -0.1638 -0.3947  1.0204
    1OL     C1511458   4.490   4.708   4.033 -0.9317 -0.3939  0.3670
    1OL     H5R11459   4.582   4.661   4.000 -0.5699  0.9203 -0.6093
    1OL     H5S11460   4.403   4.643   4.017  1.3561 -3.4976 -0.3873
    1OL     C1611461   4.490   4.738   4.180 -0.6726 -0.4580 -0.4690
    1OL     H6R11462   4.398   4.791   4.206 -1.0317 -1.3238  0.0635
    1OL     H6S11463   4.574   4.802   4.209 -0.8477  1.5986 -3.8810
    1OL     C1711464   4.506   4.609   4.259  0.5404 -0.0863  0.1101
    1OL     H7R11465   4.432   4.543   4.212 -3.0716  2.6716  1.3773
    1OL     H7S11466   4.481   4.631   4.364  2.0298  0.8865  0.2901
    1OL     C1811467   4.643   4.546   4.256  0.1565 -0.2725  0.0580
    1OL     H8R11468   4.683   4.542   4.154  0.7244  2.1482  0.1080
    1OL     H8S11469   4.643   4.444   4.295  0.5718 -0.4631 -0.4299
    1OL     C1911470   4.748   4.635   4.326 -0.0792  0.7006  0.2573
    1OL     H9R11471   4.780   4.716   4.261  2.0783 -0.5966 -0.3951
    1OL    C11011472   4.811   4.605   4.438 -0.2620 -0.2133 -1.0098
    1OL    H10R11473   4.893   4.664   4.478 -0.6859  1.0628 -1.9880
    1OL    C11111474   4.787   4.483   4.525  0.0196  0.4023  0.2953
    1OL    H11R11475   4.879   4.434   4.559  0.6541  0.6482 -1.0100
    1OL    H11S11476   4.736   4.409   4.463  2.6129 -1.1442 -0.1542
    1OL    C11211477   4.683   4.516   4.634 -0.0125 -0.2428  0.0332
    1OL    H12R11478   4.650   4.430   4.693 -2.9553  0.3225 -0.6157
    1OL    H12S11479   4.592   4.549   4.584  0.5318  1.4606  0.1166
    1OL    C11311480   4.720   4.622   4.735  0.2352  0.4820  0.1402
    1OL    H13R11481   4.716   4.720   4.685 -0.4848  0.9593  1.0956
    1OL    H13S11482   4.822   4.595   4.764  0.5813 -1.7649 -2.6969
    1OL    C11411483   4.625   4.627   4.857 -0.3790  0.0643  0.7482
    1OL    H14R11484   4.629   4.530   4.907  1.5472  1.5504  3.7645
    1OL    H14S11485   4.521   4.631   4.823  0.0849 -0.1912 -0.7983
    1OL    C11511486   4.663   4.742   4.960  0.3008  0.3742  0.2095
    1OL    H15R11487   4.672   4.835   4.903 -1.4345 -0.4458 -1.5188
    1OL    H15S11488   4.756   4.713   5.010 -0.4809 -1.9236  0.4230
    1OL    C11611489   4.548   4.779   5.052 -0.1148 -0.4232 -0.1185
    1OL    H16R11490   4.472   4.823   4.986  0.7905 -0.8260 -1.4918
    1OL    H16S11491   4.583   4.861   5.115  2.0941 -0.7090 -0.8910
    1OL    C11711492   4.480   4.669   5.132 -0.1794  0.3173 -0.0196
    1OL    H17R11493   4.549   4.585   5.130 -1.2967 -0.6446 -2.5415
    1OL    H17S11494   4.388   4.646   5.078 -1.1367  1.9911  0.7792
    1OL    C11811495   4.436   4.724   5.269 -0.4795 -0.3870  0.0511
    1OL    H18R11496   4.376   4.655   5.328  0.7534 -0.1538  1.6512
    1OL    H18S11497   4.399   4.826   5.261  1.0932  0.0705 -2.9313
    1OL    H18T11498   4.530   4.724   5.325 -0.1519 -2.3897 -0.4360
    1PA    C11611499   0.942   5.270   4.464  0.2178  0.1168 -0.4106
    1PA    H16R11500   1.001   5.196   4.519 -0.0270 -0.7974 -1.3527
    1PA    H16S11501   0.835   5.252   4.480  0.7075 -1.1317  1.9398
    1PA    H16T11502   0.957   5.375   4.490 -0.1679  0.1659 -0.3800
    1PA    C11511503   0.970   5.255   4.315  0.4851 -0.2170  0.6156
    1PA    H15R11504   1.077   5.250   4.294  0.1536 -0.3401 -1.1990
    1PA    H15S11505   0.917   5.168   4.275  0.0316  0.4474 -0.2516
    1PA    C11411506   0.925   5.380   4.242  0.2340  0.0350 -0.6190
    1PA    H14R11507   0.816   5.388   4.252  0.4452  0.2181  2.3605
    1PA    H14S11508   0.969   5.460   4.301 -4.5087  0.7266  2.5802
    1PA    C11311509   0.978   5.391   4.098  0.2331 -0.2739  0.0694
    1PA    H13R11510   0.958   5.492   4.060  0.0511 -0.6864 -0.9571
    1PA    H13S11511   1.087   5.387   4.094  0.5062  2.4385  1.7683
    1PA    C11211512   0.914   5.295   3.995  0.0351  0.0712 -0.1151
    1PA    H12R11513   0.921   5.190   4.028 -1.4976 -0.2524 -0.7285
    1PA    H12S11514   0.807   5.317   3.993  0.1078  0.5933  1.0336
    1PA    C11111515   0.977   5.309   3.851 -0.1048 -0.3571  0.1193
    1PA    H11R11516   1.085   5.308   3.868 -0.1785  3.3059  1.8707
    1PA    H11S11517   0.931   5.239   3.782  0.2074  0.7336 -1.2274
    1PA    C11011518   0.963   5.453   3.789  0.7694 -0.2358 -0.0692
    1PA    H10R11519   1.006   5.537   3.845 -0.4322  0.9336 -0.8404
    1PA    H10S11520   1.002   5.462   3.688  0.7537  0.6763 -0.0071
    1PA     C1911521   0.812   5.485   3.769  0.2417  0.5549  1.0109
    1PA     H9R11522   0.768   5.405   3.708  1.4118 -0.0020  0.8660
    1PA     H9S11523   0.755   5.485   3.863  0.7945  2.8714  1.4083
    1PA     C1811524   0.785   5.599   3.675 -0.1602 -0.3402 -0.2735
    1PA     H8R11525   0.850   5.681   3.706 -1.0500  0.7117 -1.1172
    1PA     H8S11526   0.808   5.568   3.573  0.7257 -0.4639 -0.0466
    1PA     C1711527   0.635   5.640   3.678 -0.1202 -0.3158 -0.2159
    1PA     H7R11528   0.602   5.661   3.780  2.2589  0.9481  0.3675
    1PA     H7S11529   0.624   5.731   3.618 -2.9537 -0.4246 -0.0299
    1PA     C1611530   0.542   5.529   3.621  0.2383 -0.2014  0.0865
    1PA     H6R11531   0.581   5.492   3.525  1.4483 -0.6846  0.7432
    1PA     H6S11532   0.556   5.445   3.689 -0.4050 -0.6631 -0.3414
    1PA     C1511533   0.392   5.566   3.619  0.4395 -0.2179 -0.8453
    1PA     H5R11534   0.353   5.584   3.719  0.5653 -0.8642 -0.6771
    1PA     H5S11535   0.389   5.661   3.565  0.6363  0.2134 -0.1054
    1PA     C1411536   0.311   5.456   3.553  0.5964 -0.7547  0.1105
    1PA     H4R11537   0.334   5.433   3.449  0.8038  1.0465 -0.2649
    1PA     H4S11538   0.347   5.364   3.600 -2.3822 -1.3133  1.5480
    1PA     C1311539   0.159   5.456   3.591  0.6691 -0.1844 -0.6492
    1PA     H3R11540   0.125   5.353   3.581  1.2291 -1.0419  3.9440
    1PA     H3S11541   0.156   5.480   3.698  0.3291  0.0103 -0.6976
    1PA     C1211542   0.059   5.541   3.519 -0.7547  0.5299 -0.0489
    1PA     H2R11543   0.065   5.515   3.414  2.8967 -2.6346  0.7084
    1PA     H2S11544  -0.041   5.525   3.561 -1.0979  2.2866 -0.1255
    1PC     C1111545   0.083   5.685   3.549  0.4336 -0.0812  0.3280
    1PC     O1211546   0.119   5.731   3.653  0.2462 -0.1328 -0.0767
    1PC     O1111547   0.035   5.757   3.442 -0.0693  0.4430 -0.1553
    1PC      C111548   0.053   5.901   3.451 -0.3670  0.5459 -0.3061
    1PC      HR11549  -0.021   5.947   3.384 -0.0099 -0.7293 -1.6319
    1PC      HS11550   0.030   5.928   3.554 -1.5808 -1.1242 -0.0849
    1PC      C211551   0.190   5.956   3.411 -0.3746 -0.7398 -0.3607
    1PC      HX11552   0.185   6.064   3.425 -0.0866 -1.0428  2.8820
    1PC      C311553   0.241   5.927   3.264  0.0110 -0.6714  0.0325
    1PC      HA11554   0.168   5.973   3.196 -0.7529 -0.4393  0.9815
    1PC      HB11555   0.345   5.961   3.255 -1.0030  2.5767 -1.1096
    1PC     O3111556   0.222   5.786   3.223  0.0241 -0.4129 -0.3481
    1PC     P3111557   0.333   5.707   3.152 -0.0455 -0.1114 -0.5614
    1PC     O3211558   0.422   5.664   3.271  0.0700 -0.0373  0.2315
    1PC     C3111559   0.536   5.748   3.315  0.2156 -0.2359 -0.3307
    1PC     H1A11560   0.546   5.844   3.265  1.6273 -0.7942 -1.1632
    1PC     H1B11561   0.521   5.776   3.420  2.6138 -0.5140  0.1281
    1PC     C3211562   0.654   5.665   3.304 -0.0651 -0.3623  0.1551
    1PC     H2A11563   0.726   5.696   3.380  0.9152  2.0408 -1.6102
    1PC     H2B11564   0.627   5.561   3.322  0.6376 -0.2483  2.2133
    1PC     N3111565   0.732   5.666   3.171  0.4878  0.1924  0.5855
    1PC     C3311566   0.850   5.576   3.198 -0.3147 -0.0168  0.0290
    1PC     H3A11567   0.917   5.578   3.112 -0.4176  2.3997 -0.0679
    1PC     H3B11568   0.911   5.611   3.281  0.4817  1.2959 -1.0731
    1PC     H3C11569   0.825   5.470   3.209 -1.4343  0.2276 -0.0577
    1PC     C3411570   0.661   5.603   3.056 -0.1367  0.2650  0.0120
    1PC     H4A11571   0.607   5.512   3.082  0.0291  0.1709  0.0290
    1PC     H4B11572   0.584   5.672   3.018  1.2007  2.3102  0.8382
    1PC     H4C11573   0.727   5.569   2.976  0.1444 -0.9493  0.7435
    1PC     C3511574   0.773   5.805   3.127  0.1421 -0.5290  0.4581
    1PC     H5A11575   0.689   5.869   3.100  0.7164 -0.0683 -0.2801
    1PC     H5B11576   0.842   5.793   3.044  1.6166  0.2005  1.5286
    1PC     H5C11577   0.829   5.855   3.206  0.4047  3.4273 -1.9469
    1PC     O3311578   0.275   5.585   3.095  0.5810 -0.2313 -0.3797
    1PC     O3411579   0.395   5.803   3.065 -0.0845  0.5465  0.3887
    1PC     O2111580   0.301   5.914   3.504  1.0508 -0.0625  0.4804
    1PC     C2111581   0.297   5.972   3.626 -0.4431  0.5543  0.3683
    1PC     O2211582   0.222   6.061   3.662  0.3430  0.4357  0.2667
    1OL     C1211583   0.408   5.927   3.714 -0.4753 -0.2582  1.2351
    1OL     H2R11584   0.499   5.929   3.654 -2.1568 -0.3395 -1.4843
    1OL     H2S11585   0.401   5.819   3.730 -0.0751 -0.9239 -2.3026
    1OL     C1311586   0.429   6.008   3.837 -0.6981  1.1118 -0.1815
    1OL     H3R11587   0.342   5.993   3.902 -1.0184 -1.5585 -1.1090
    1OL     H3S11588   0.429   6.110   3.798  0.2633  0.6357 -1.5028
    1OL     C1411589   0.561   5.974   3.913  0.3358 -0.4244  0.0424
    1OL     H4R11590   0.647   5.981   3.847  0.1644 -0.3902 -0.1775
    1OL     H4S11591   0.552   5.869   3.944 -0.4486  0.0260  1.4221
    1OL     C1511592   0.589   6.072   4.027  0.4183 -0.5758 -0.2313
    1OL     H5R11593   0.508   6.071   4.102  1.1038  0.2212  0.5398
    1OL     H5S11594   0.603   6.172   3.987 -1.6937  0.2745  0.9363
    1OL     C1611595   0.713   6.024   4.097  0.3949 -0.2552  0.0528
    1OL     H6R11596   0.713   6.095   4.180 -1.0520  1.6101 -1.4537
    1OL     H6S11597   0.805   6.039   4.041  1.3140 -0.4515  1.4562
    1OL     C1711598   0.713   5.888   4.158  0.1096  0.9127 -0.3264
    1OL     H7R11599   0.743   5.820   4.078  4.5642  0.2942  1.5816
    1OL     H7S11600   0.617   5.867   4.205  0.8439  1.9440  1.7249
    1OL     C1811601   0.830   5.854   4.256 -0.5607  0.3384 -0.2199
    1OL     H8R11602   0.833   5.927   4.338 -0.2001  0.0702  0.0091
    1OL     H8S11603   0.920   5.868   4.196 -0.6203 -0.6567 -0.5636
    1OL     C1911604   0.804   5.715   4.304  1.3055  0.4879 -0.2141
    1OL     H9R11605   0.778   5.649   4.222 -0.9686  1.5883 -0.4457
    1OL    C11011606   0.798   5.675   4.431 -0.2068 -0.3808 -0.7075
    1OL    H10R11607   0.780   5.572   4.459 -0.6089  0.3918  2.1556
    1OL    C11111608   0.811   5.764   4.558  0.2939  0.2755  0.5209
    1OL    H11R11609   0.722   5.750   4.620 -0.1498 -2.0893 -0.5511
    1OL    H11S11610   0.804   5.869   4.530  0.4736 -0.0529 -0.8558
    1OL    C11211611   0.922   5.722   4.648  0.2842 -0.3136  0.2352
    1OL    H12R11612   1.004   5.710   4.578  0.8634 -1.2730  1.0502
    1OL    H12S11613   0.905   5.618   4.678  1.0016 -0.4463  0.1927
    1OL    C11311614   0.961   5.822   4.762 -0.2675 -0.3815  0.3667
    1OL    H13R11615   0.888   5.817   4.843  0.5734 -0.1569  1.1611
    1OL    H13S11616   0.969   5.921   4.718 -0.1828 -1.4520 -2.1542
    1OL    C11411617   1.099   5.789   4.820 -0.1194  0.1086 -0.6402
    1OL    H14R11618   1.160   5.798   4.730  0.1460  2.1380 -0.2995
    1OL    H14S11619   1.105   5.683   4.845 -1.7365 -0.2402 -1.5881
    1OL    C11511620   1.147   5.889   4.932  0.6287  0.8538 -0.4631
    1OL    H15R11621   1.078   5.882   5.017  0.1945  1.1507 -0.7846
    1OL    H15S11622   1.135   5.993   4.900  1.8693  0.7112 -1.4476
    1OL    C11611623   1.288   5.850   4.979 -0.4482 -0.1294  0.1945
    1OL    H16R11624   1.361   5.916   4.932 -0.9164 -1.6239 -2.8899
    1OL    H16S11625   1.309   5.750   4.942  2.7582  1.0555 -1.5436
    1OL    C11711626   1.306   5.848   5.135  0.9298  0.4137  0.7619
    1OL    H17R11627   1.222   5.806   5.190  2.6221 -1.8687  1.7792
    1OL    H17S11628   1.301   5.951   5.171  2.3916  0.6852  0.2413
    1OL    C11811629   1.434   5.787   5.182  0.2957 -0.6144 -0.4057
    1OL    H18R11630   1.451   5.686   5.144  0.2506 -1.3809  1.4722
    1OL    H18S11631   1.443   5.777   5.291  2.2911 -2.6317 -0.6694
    1OL    H18T11632   1.515   5.857   5.163 -0.9251  1.4289  1.4636
    1PA    C11611633   1.740   5.264   4.739 -0.4927  0.3649 -0.7102
    1PA    H16R11634   1.641   5.310   4.738 -1.0396 -0.7091  0.8764
    1PA    H16S11635   1.819   5.323   4.785  1.6083 -3.7954  1.5666
    1PA    H16T11636   1.752   5.178   4.806 -1.5274  0.0212 -0.9478
    1PA    C11511637   1.782   5.204   4.605 -0.0065  0.1400 -0.3592
    1PA    H15R11638   1.811   5.283   4.535 -0.2562  1.7485  1.2664
    1PA    H15S11639   1.871   5.141   4.612 -0.8203 -1.4398 -2.9107
    1PA    C11411640   1.664   5.116   4.547  0.9187 -0.2761 -0.1265
    1PA    H14R11641   1.582   5.186   4.529 -0.3931 -1.6206  0.3479
    1PA    H14S11642   1.690   5.075   4.450  1.3077  0.8618 -0.5195
    1PA    C11311643   1.607   5.004   4.631  0.0589 -0.4798  0.7225
    1PA    H13R11644   1.677   4.924   4.653  0.3628 -1.1112 -2.1754
    1PA    H13S11645   1.571   5.056   4.721 -1.9520  2.3386 -1.4976
    1PA    C11211646   1.477   4.943   4.562 -0.1660 -0.2424 -0.5554
    1PA    H12R11647   1.499   4.940   4.455 -1.0419  1.1063 -0.7954
    1PA    H12S11648   1.455   4.843   4.602  1.4588 -0.6624 -0.6196
    1PA    C11111649   1.347   5.018   4.602 -0.4203 -0.1205 -0.3009
    1PA    H11R11650   1.337   5.035   4.709  0.3340  3.9313 -0.7239
    1PA    H11S11651   1.357   5.122   4.569  1.8451 -0.1449  0.1455
    1PA    C11011652   1.212   4.960   4.558 -0.7621 -0.5209 -0.0835
    1PA    H10R11653   1.213   4.854   4.586  2.4935 -0.7309 -0.5894
    1PA    H10S11654   1.137   5.020   4.608 -3.3295 -1.4067 -2.5840
    1PA     C1911655   1.191   4.973   4.406 -0.5946 -0.4825  0.0414
    1PA     H9R11656   1.205   5.078   4.383  0.8629 -1.0404 -1.8831
    1PA     H9S11657   1.277   4.922   4.361 -0.4130 -0.3162  0.1964
    1PA     C1811658   1.061   4.914   4.357  0.1552  1.1309  0.0436
    1PA     H8R11659   1.050   4.819   4.411  1.0892  1.7441  1.3813
    1PA     H8S11660   0.979   4.978   4.390 -0.4919  0.7053 -0.7026
    1PA     C1711661   1.055   4.898   4.203 -0.0600  0.2878  0.3428
    1PA     H7R11662   1.064   4.997   4.157 -0.0594  0.3200  0.4116
    1PA     H7S11663   1.134   4.831   4.170  0.1260  0.7816 -0.2280
    1PA     C1611664   0.926   4.830   4.158  0.6530  0.7852 -0.7336
    1PA     H6R11665   0.942   4.722   4.154 -1.6881  0.3830 -0.6383
    1PA     H6S11666   0.850   4.846   4.235  0.5601 -1.9263 -0.1599
    1PA     C1511667   0.876   4.889   4.025  0.6000 -0.6159 -0.1799
    1PA     H5R11668   0.777   4.853   3.996 -0.5780  1.9904  0.2950
    1PA     H5S11669   0.853   4.995   4.039  3.4625  0.1421 -0.4617
    1PA     C1411670   0.973   4.877   3.903  0.2199 -0.5814 -0.7171
    1PA     H4R11671   1.061   4.936   3.930 -0.5951  1.0726 -1.5263
    1PA     H4S11672   1.002   4.774   3.886 -1.0317 -0.6951 -2.4658
    1PA     C1311673   0.922   4.930   3.770  0.1389  0.2786 -0.5307
    1PA     H3R11674   0.844   4.863   3.736 -0.7075  1.0035 -0.0415
    1PA     H3S11675   0.888   5.033   3.783 -0.7688 -0.0161 -0.5037
    1PA     C1211676   1.020   4.942   3.653 -0.1360  0.2774  0.0794
    1PA     H2R11677   1.112   4.983   3.696 -0.2766 -0.0021  0.6668
    1PA     H2S11678   1.044   4.846   3.607 -0.4856  1.2337 -2.2167
    1PC     C1111679   0.993   5.044   3.542 -1.1480  0.3411 -0.7123
    1PC     O1211680   0.908   5.130   3.542 -0.4462  0.1449 -0.6398
    1PC     O1111681   1.078   5.024   3.435 -0.4462 -0.0757 -0.2189
    1PC      C111682   1.056   5.104   3.314  0.4094  0.3361 -1.0936
    1PC      HR11683   1.094   5.047   3.229  0.9977 -1.5337  0.3386
    1PC      HS11684   0.949   5.118   3.300  0.3278 -0.1800 -1.0093
    1PC      C211685   1.105   5.243   3.333 -0.7583  0.0035 -0.5057
    1PC      HX11686   1.042   5.298   3.403  0.2021  1.0116 -0.3975
    1PC      C311687   1.117   5.311   3.193  0.0890  0.0344  0.0423
    1PC      HA11688   1.018   5.328   3.149  0.6010 -0.5049 -1.3587
    1PC      HB11689   1.164   5.409   3.202  0.3561 -0.0113 -0.8279
    1PC     O3111690   1.187   5.233   3.100  0.0512  0.2436  0.0505
    1PC     P3111691   1.124   5.176   2.963  0.4759 -0.0031 -0.3884
    1PC     O3211692   1.163   5.271   2.851 -0.2297 -0.2279 -0.2661
    1PC     C3111693   1.302   5.269   2.825  0.0967 -0.0703 -0.2694
    1PC     H1A11694   1.359   5.236   2.912 -0.9761 -0.9702  0.1228
    1PC     H1B11695   1.315   5.201   2.740  1.1462  1.2705 -1.2144
    1PC     C3211696   1.357   5.409   2.788  0.0674  0.3909  0.0881
    1PC     H2A11697   1.292   5.448   2.709  1.4029 -1.0690 -1.8363
    1PC     H2B11698   1.342   5.478   2.871 -0.9289  2.2808 -1.5674
    1PC     N3111699   1.498   5.418   2.733  0.3020 -0.5313 -0.7278
    1PC     C3311700   1.537   5.559   2.702  0.2673 -0.0137 -0.3783
    1PC     H3A11701   1.646   5.555   2.699  0.2596 -0.4081 -0.0792
    1PC     H3B11702   1.501   5.587   2.603 -0.4366  0.5929  0.0331
    1PC     H3C11703   1.521   5.642   2.772  1.1081  0.2028 -0.4320
    1PC     C3411704   1.597   5.362   2.826  0.2152 -0.0025 -0.4634
    1PC     H4A11705   1.576   5.260   2.857  0.3433 -0.0682 -0.5911
    1PC     H4B11706   1.697   5.361   2.782  0.0746 -0.6195 -0.7699
    1PC     H4C11707   1.601   5.425   2.915  0.0152 -0.4937 -0.1049
    1PC     C3511708   1.512   5.345   2.600 -0.4054 -0.6322  0.1644
    1PC     H5A11709   1.526   5.417   2.519 -1.2639 -2.9748 -2.2412
    1PC     H5B11710   1.418   5.292   2.579 -2.2270  2.4433 -0.1137
    1PC     H5C11711   1.600   5.282   2.612  1.1494  1.7849  2.6470
    1PC     O3311712   1.187   5.048   2.930 -0.3396  0.1095  0.7071
    1PC     O3411713   0.979   5.171   2.971  0.3104 -0.3031  0.4608
    1PC     O2111714   1.238   5.232   3.387 -0.0297 -0.0266 -0.1784
    1PC     C2111715   1.269   5.243   3.522 -0.1040  0.2447 -0.0011
    1PC     O2211716   1.197   5.295   3.604 -0.1959 -0.9898  0.0114
    1OL     C1211717   1.399   5.194   3.560 -0.2526  0.1324 -0.3629
    1OL     H2R11718   1.466   5.280   3.565  0.5519 -0.5227  0.4836
    1OL     H2S11719   1.426   5.142   3.468  2.3786 -1.5981  1.2570
    1OL     C1311720   1.412   5.115   3.691 -0.4385 -0.2922 -0.9635
    1OL     H3R11721   1.501   5.051   3.693  1.5805  2.1212  4.0896
    1OL     H3S11722   1.322   5.059   3.718 -0.5532 -0.1155 -0.9748
    1OL     C1411723   1.427   5.213   3.808  0.3994 -0.1868  0.3099
    1OL     H4R11724   1.329   5.261   3.817  0.3766 -0.2273  0.2790
    1OL     H4S11725   1.512   5.281   3.801  0.9057 -0.9584 -4.5311
    1OL     C1511726   1.445   5.143   3.946  0.0112  0.0828  0.0207
    1OL     H5R11727   1.547   5.104   3.951 -0.0720  0.0271  2.0135
    1OL     H5S11728   1.381   5.056   3.957  0.7016 -0.3562  0.6624
    1OL     C1611729   1.412   5.239   4.060  0.2335 -0.4906 -0.4150
    1OL     H6R11730   1.310   5.275   4.042  0.3026 -0.4885 -0.8130
    1OL     H6S11731   1.474   5.327   4.042  1.4471 -1.4563 -1.1197
    1OL     C1711732   1.423   5.197   4.210 -0.3419 -0.2050  0.2322
    1OL     H7R11733   1.525   5.164   4.233 -0.5357 -1.4557 -0.5939
    1OL     H7S11734   1.363   5.107   4.227 -0.6348  0.2994  2.0403
    1OL     C1811735   1.381   5.296   4.316 -0.5231  0.2184  0.0024
    1OL     H8R11736   1.370   5.248   4.414  0.4600  2.0181  1.0388
    1OL     H8S11737   1.286   5.335   4.279 -0.9402 -0.0991  0.7111
    1OL     C1911738   1.479   5.402   4.339 -0.1258 -0.4013 -0.3187
    1OL     H9R11739   1.577   5.375   4.377  0.4031  1.9627  0.1428
    1OL    C11011740   1.456   5.531   4.314  0.1535  0.7682  0.1170
    1OL    H10R11741   1.534   5.603   4.337  0.5297  0.5117 -0.3427
    1OL    C11111742   1.321   5.581   4.267 -0.4084 -0.0092 -0.6147
    1OL    H11R11743   1.239   5.524   4.312 -0.4168 -0.1028 -0.7500
    1OL    H11S11744   1.321   5.579   4.158  0.0389  1.4704 -0.6744
    1OL    C11211745   1.312   5.734   4.305  0.3176 -0.0366  0.5440
    1OL    H12R11746   1.404   5.777   4.266  0.9041 -2.0166 -0.3816
    1OL    H12S11747   1.304   5.753   4.412 -2.6261  2.4288  0.0199
    1OL    C11311748   1.182   5.782   4.245  0.3383  0.0290 -0.0509
    1OL    H13R11749   1.102   5.747   4.310  1.2411 -1.1707  0.4541
    1OL    H13S11750   1.166   5.740   4.145  2.8828  2.0197 -1.4382
    1OL    C11411751   1.187   5.939   4.240  0.7303  0.3649  0.5998
    1OL    H14R11752   1.109   5.975   4.172  0.1535 -0.1451  0.9813
    1OL    H14S11753   1.279   5.974   4.193 -0.6966  1.3417 -1.6508
    1OL    C11511754   1.171   6.000   4.378 -0.0112 -0.9857  0.0436
    1OL    H15R11755   1.268   6.005   4.428 -1.3361 -1.4468  2.7991
    1OL    H15S11756   1.102   5.944   4.441  0.4580 -2.4950 -0.7290
    1OL    C11611757   1.117   6.141   4.352  0.0417 -0.3420 -0.4233
    1OL    H16R11758   1.019   6.142   4.305  0.0364 -0.2361 -0.4086
    1OL    H16S11759   1.194   6.185   4.290  0.6796  0.4164  0.8664
    1OL    C11711760   1.118   6.209   4.495  0.1029  0.3134  0.2222
    1OL    H17R11761   1.218   6.218   4.537 -0.1556 -1.0988  1.1887
    1OL    H17S11762   1.050   6.154   4.561  0.2615  1.7686  1.6493
    1OL    C11811763   1.057   6.347   4.488 -0.1728  0.3060  0.6422
    1OL    H18R11764   0.967   6.359   4.428  0.2992 -2.6318 -0.8430
    1OL    H18S11765   1.129   6.421   4.451  0.3917  1.1682  3.2505
    1OL    H18T11766   1.040   6.380   4.590 -1.2468  1.1892  0.1942
    1PA    C11611767   0.470   0.072   5.026  0.3246  0.4659  0.0067
    1PA    H16R11768   0.462   0.104   5.130 -1.3569  0.8408 -0.2053
    1PA    H16S11769   0.511  -0.029   5.026  0.4700  0.5135  0.9689
    1PA    H16T11770   0.367   0.058   4.992  0.1051 -1.1700  1.2248
    1PA    C11511771   0.544   0.168   4.934  0.0973  0.0743  0.1720
    1PA    H15R11772   0.491   0.263   4.928  0.0651  0.0972  0.7867
    1PA    H15S11773   0.642   0.198   4.972  0.7633 -3.4057  1.5963
    1PA    C11411774   0.560   0.121   4.788 -0.3600 -0.3738  0.5597
    1PA    H14R11775   0.641   0.183   4.749  2.0434 -2.5923  1.7471
    1PA    H14S11776   0.589   0.016   4.787  1.6361  0.1065  1.8815
    1PA    C11311777   0.438   0.130   4.701  0.1289 -0.0260  0.6025
    1PA    H13R11778   0.387   0.033   4.703  1.0410 -0.6698 -2.2295
    1PA    H13S11779   0.376   0.213   4.733  1.7605  0.7592  1.8938
    1PA    C11211780   0.479   0.147   4.554  0.0108  0.0453 -0.6572
    1PA    H12R11781   0.544   0.235   4.542 -1.0906  1.1181  0.7853
    1PA    H12S11782   0.523   0.058   4.509 -0.1387 -1.2904  1.6672
    1PA    C11111783   0.349   0.179   4.471 -0.2788  0.0683  0.1246
    1PA    H11R11784   0.270   0.104   4.471 -0.8448  0.6463 -0.6957
    1PA    H11S11785   0.304   0.269   4.515 -2.2612 -0.2061 -1.2150
    1PA    C11011786   0.393   0.204   4.329  0.3179 -0.4570  0.3464
    1PA    H10R11787   0.487   0.260   4.332 -0.7162  1.3016  1.1727
    1PA    H10S11788   0.401   0.103   4.287 -1.2522 -0.4930  0.1012
    1PA     C1911789   0.286   0.286   4.256 -0.0980  0.0195 -0.2555
    1PA     H9R11790   0.193   0.228   4.253  0.0297 -0.1558 -2.4333
    1PA     H9S11791   0.252   0.372   4.313 -2.2525  0.2747 -1.7919
    1PA     C1811792   0.329   0.330   4.113  0.5926 -0.6037 -0.1697
    1PA     H8R11793   0.259   0.413   4.101  2.2737  0.7128 -1.4821
    1PA     H8S11794   0.431   0.369   4.110  1.0033 -1.6681 -0.1438
    1PA     C1711795   0.317   0.221   4.009  0.0596  0.3943  0.6889
    1PA     H7R11796   0.240   0.151   4.042 -1.0912  0.8457 -0.9247
    1PA     H7S11797   0.270   0.252   3.916 -1.3303 -0.6353  1.0124
    1PA     C1611798   0.450   0.137   3.988  0.2456  0.2190 -0.2639
    1PA     H6R11799   0.535   0.192   3.947  1.3694 -1.3341 -0.0976
    1PA     H6S11800   0.483   0.104   4.087 -1.0389 -0.3495  0.0016
    1PA     C1511801   0.421  -0.000   3.917 -0.2777 -0.1219 -0.6517
    1PA     H5R11802   0.339  -0.056   3.963 -0.7873 -0.2955 -1.7447
    1PA     H5S11803   0.393   0.027   3.815 -0.7149  0.7501 -0.3098
    1PA     C1411804   0.546  -0.101   3.929  0.2929 -0.1732  0.2487
    1PA     H4R11805   0.636  -0.055   3.888 -1.0349  2.5036  0.1558
    1PA     H4S11806   0.569  -0.131   4.031 -0.6590 -2.8579 -0.2463
    1PA     C1311807   0.529  -0.232   3.850 -0.4923 -0.4771 -0.1693
    1PA     H3R11808   0.625  -0.283   3.860 -0.4558 -0.9207 -2.3293
    1PA     H3S11809   0.454  -0.296   3.897  0.0107 -0.8622  0.1224
    1PA     C1211810   0.513  -0.221   3.699  0.4994  0.2217  0.4106
    1PA     H2R11811   0.429  -0.154   3.678  0.1966 -0.2287  0.1788
    1PA     H2S11812   0.599  -0.169   3.656 -0.8952  1.9517 -0.4247
    1PC     C1111813   0.499  -0.362   3.632  0.3075 -0.3641  0.2613
    1PC     O1211814   0.593  -0.432   3.600 -0.0159  0.2766  0.4572
    1PC     O1111815   0.372  -0.390   3.612  0.4929  0.4336  0.1097
    1PC      C111816   0.348  -0.521   3.553 -0.1274  0.0977 -0.5669
    1PC      HR11817   0.403  -0.525   3.459 -1.6332  0.0459 -1.4851
    1PC      HS11818   0.375  -0.603   3.620 -1.5875 -1.0466 -1.3257
    1PC      C211819   0.199  -0.554   3.515  0.5860  0.2573 -0.0095
    1PC      HX11820   0.198  -0.641   3.449 -0.2911 -1.2877  1.9510
    1PC      C311821   0.140  -0.427   3.446 -0.5019  0.6768  0.4541
    1PC      HA11822   0.136  -0.341   3.514 -1.6212 -0.2692  1.6264
    1PC      HB11823   0.204  -0.394   3.364 -0.4223  0.6612  0.5091
    1PC     O3111824   0.006  -0.460   3.407 -0.1074  0.4064  0.4594
    1PC     P3111825  -0.027  -0.499   3.260  0.0571 -0.0087 -0.0033
    1PC     O3211826  -0.045  -0.358   3.184  0.6134  0.1516 -0.2329
    1PC     C3111827  -0.175  -0.302   3.170  0.2603  0.1556 -0.5263
    1PC     H1A11828  -0.253  -0.375   3.151 -1.2425  0.8128  2.4799
    1PC     H1B11829  -0.189  -0.255   3.268 -0.2699  0.9172 -0.9533
    1PC     C3211830  -0.168  -0.189   3.067 -0.4675  0.6534 -0.2545
    1PC     H2A11831  -0.268  -0.144   3.064 -0.4350  0.6889 -2.3088
    1PC     H2B11832  -0.093  -0.112   3.087 -0.1129  0.1432  0.4139
    1PC     N3111833  -0.165  -0.248   2.920 -0.0100  0.0240 -0.3799
    1PC     C3311834  -0.298  -0.317   2.883  0.2372  0.2966 -0.1894
    1PC     H3A11835  -0.330  -0.363   2.977  0.4660 -0.8854 -0.6707
    1PC     H3B11836  -0.374  -0.240   2.866 -0.8275 -0.7171 -0.1212
    1PC     H3C11837  -0.288  -0.377   2.792  0.2163 -0.5365  0.3516
    1PC     C3411838  -0.147  -0.134   2.830  0.8589 -0.5527  0.0727
    1PC     H4A11839  -0.163  -0.170   2.728 -0.6751 -1.0243  0.4492
    1PC     H4B11840  -0.225  -0.059   2.848  1.9911  0.2901  1.6424
    1PC     H4C11841  -0.051  -0.087   2.853  1.0326 -0.9066  0.0633
    1PC     C3511842  -0.056  -0.351   2.891  0.1353  0.5262 -0.0447
    1PC     H5A11843  -0.038  -0.355   2.784 -1.2924  1.3843 -0.3443
    1PC     H5B11844  -0.084  -0.447   2.934  0.9849  0.1458 -0.3352
    1PC     H5C11845   0.035  -0.308   2.934  0.0964  0.1118  0.4536
    1PC     O3311846   0.086  -0.550   3.194 -0.5073  0.4653  0.2260
    1PC     O3411847  -0.157  -0.570   3.252 -0.0376 -0.0222 -0.1152
    1PC     O2111848   0.123  -0.575   3.643 -0.4315  0.1198  0.4096
    1PC     C2111849   0.036  -0.675   3.654 -0.1855 -0.0669  0.1592
    1PC     O2211850   0.011  -0.760   3.569 -0.4893  0.2422  0.7201
    1OL     C1211851  -0.031  -0.677   3.790  0.1450 -0.0708  0.3826
    1OL     H2R11852  -0.047  -0.573   3.821 -0.9685  0.4485 -1.7276
    1OL     H2S11853   0.035  -0.723   3.864  0.7025 -1.5677 -0.9775
    1OL     C1311854  -0.173  -0.738   3.796  0.1708  0.3638 -0.3465
    1OL     H3R11855  -0.161  -0.845   3.780 -1.4409 -0.5007  3.3740
    1OL     H3S11856  -0.226  -0.688   3.714  2.4653 -0.4569 -2.4560
    1OL     C1411857  -0.249  -0.706   3.927  0.4573 -0.3105 -0.6017
    1OL     H4R11858  -0.342  -0.763   3.923  1.6687 -2.5001  0.6213
    1OL     H4S11859  -0.262  -0.598   3.931  0.5296 -0.2483 -1.6758
    1OL     C1511860  -0.165  -0.757   4.052  0.2326 -0.3811  0.3846
    1OL     H5R11861  -0.067  -0.709   4.041  1.0377 -1.6997  1.4779
    1OL     H5S11862  -0.157  -0.865   4.043  4.0052 -0.1298 -1.1361
    1OL     C1611863  -0.210  -0.709   4.196  0.0350  0.3268 -0.6020
    1OL     H6R11864  -0.304  -0.756   4.225  0.1175 -0.4179 -1.4821
    1OL     H6S11865  -0.233  -0.603   4.203 -0.7834  0.1724 -0.8755
    1OL     C1711866  -0.101  -0.731   4.306  0.2202 -0.0481 -0.0551
    1OL     H7R11867  -0.060  -0.832   4.313  1.2459  0.4044  0.8523
    1OL     H7S11868  -0.147  -0.699   4.400  1.3874  1.5505  0.0050
    1OL     C1811869   0.028  -0.646   4.290  0.2840  0.1688 -1.0303
    1OL     H8R11870  -0.018  -0.547   4.283 -2.0486 -0.7531  0.3059
    1OL     H8S11871   0.081  -0.687   4.204  1.3029 -0.6590 -0.0290
    1OL     C1911872   0.100  -0.679   4.419  0.4816  0.3059  0.4781
    1OL     H9R11873   0.065  -0.609   4.494  2.2354  1.3685  0.3555
    1OL    C11011874   0.192  -0.768   4.448  0.7568 -0.5971  0.7924
    1OL    H10R11875   0.225  -0.768   4.552  1.2008 -0.8956  0.6527
    1OL    C11111876   0.255  -0.869   4.357 -0.2189  0.3160 -0.5975
    1OL    H11R11877   0.210  -0.857   4.258 -0.0653 -1.0464 -0.8566
    1OL    H11S11878   0.224  -0.969   4.390 -0.8977 -0.3422 -3.0233
    1OL    C11211879   0.403  -0.859   4.356  0.4834 -0.1582 -0.1205
    1OL    H12R11880   0.435  -0.862   4.461 -2.9110 -1.0071  1.0275
    1OL    H12S11881   0.441  -0.764   4.317  0.8234  0.4394  1.5618
    1OL    C11311882   0.473  -0.977   4.287 -0.2740 -0.8296  0.0306
    1OL    H13R11883   0.576  -0.946   4.271 -0.9731  1.4064 -0.4585
    1OL    H13S11884   0.422  -0.989   4.191  0.0626  1.3859 -0.4746
    1OL    C11411885   0.460  -1.107   4.372 -0.1858  0.3621  0.1806
    1OL    H14R11886   0.408  -1.182   4.312 -0.4153 -0.6620  1.5970
    1OL    H14S11887   0.401  -1.088   4.462  0.1156  0.4980  0.3512
    1OL    C11511888   0.601  -1.158   4.415  0.2592 -0.0557 -0.1002
    1OL    H15R11889   0.651  -1.078   4.471 -0.0677 -0.9321  1.4984
    1OL    H15S11890   0.655  -1.178   4.322 -2.1366 -0.2932 -1.5401
    1OL    C11611891   0.614  -1.284   4.501 -0.1734  0.6034 -0.7270
    1OL    H16R11892   0.567  -1.269   4.598 -1.5808 -3.0117 -0.6795
    1OL    H16S11893   0.719  -1.310   4.517 -0.5857  0.5598  2.5709
    1OL    C11711894   0.536  -1.399   4.431 -0.4921 -0.4159  0.1743
    1OL    H17R11895   0.566  -1.395   4.326  1.6648  2.1470  0.7910
    1OL    H17S11896   0.430  -1.373   4.440  0.3145  3.1887  0.6565
    1OL    C11811897   0.568  -1.537   4.486  0.3689  0.7577 -0.0612
    1OL    H18R11898   0.505  -1.611   4.436 -2.2127  1.6004  1.7213
    1OL    H18S11899   0.530  -1.538   4.588 -0.5843 -0.7202 -0.4039
    1OL    H18T11900   0.671  -1.571   4.493  1.2810  3.0246 -1.2824
    7Na+    Na+11901   4.306   4.437   0.262  0.0752  0.3925 -0.2485
    8Na+    Na+11902   0.166   0.706   0.727  0.2362 -0.0946  0.2811
    9Na+    Na+11903   0.889   1.570   7.049  0.0702  0.0159  0.1484
   10Na+    Na+11904   3.420   1.659   9.957  0.1629  0.4013  0.4564
   11Na+    Na+11905   4.236   3.389   3.150  0.1977  0.1447 -0.4241
   12Na+    Na+11906   0.035   3.568   7.473  0.3227 -0.2648 -0.0146
   13Na+    Na+11907   1.684   2.209   9.971 -0.1274 -0.3730 -0.2580
   14Na+    Na+11908   4.395   1.216   1.228 -0.5078 -0.0043 -0.3692
   15Na+    Na+11909   3.015   1.775   0.956  0.0496  0.3591 -0.1855
   16Na+    Na+11910   2.822   4.008   0.835 -0.5378  0.5594 -0.2728
   17Na+    Na+11911   3.027   5.122   3.183 -0.7397 -0.7372 -0.4176
   18Na+    Na+11912   4.158   4.934   1.812  0.3493 -0.0485 -0.2018
   19Na+    Na+11913   0.852   3.648   1.764 -0.1656  0.2466  0.7108
   20Na+    Na+11914   5.169   4.570   0.690 -0.1192  0.1993 -0.9658
   21Cl-    Cl-11915   4.093   0.311   1.237 -0.0155 -0.0333 -0.1617
   22Cl-    Cl-11916   0.624   3.499   8.817 -0.1953  0.1185 -0.1278
   23Cl-    Cl-11917   0.121   3.737   7.968 -0.4899 -0.1907  0.0236
   24Cl-    Cl-11918   0.944   5.092   1.280  0.1910 -0.0275  0.0699
   25Cl-    Cl-11919   4.367   0.667   8.829 -0.0354  0.1342  0.2711
   26Cl-    Cl-11920   1.158   1.826   1.242  0.1516 -0.0639 -0.0187
   27Cl-    Cl-11921   4.841   2.450   2.475 -0.2688  0.2409 -0.3157
   28Cl-    Cl-11922   2.893   4.516   8.682  0.3486 -0.3807  0.2177
   29Cl-    Cl-11923   3.614   2.585   1.552  0.2246 -0.2084 -0.1933
   30Cl-    Cl-11924   0.607   4.266   1.148 -0.0067  0.3044  0.1207
   31Cl-    Cl-11925   3.597   4.908   2.357  0.2473 -0.0629  0.2860
   32Cl-    Cl-11926   1.801   2.492   9.272  0.3274 -0.3703 -0.1212
   33Cl-    Cl-11927   2.914   0.513   0.205  0.8123  0.4133  0.0298
   34Cl-    Cl-11928   0.578   2.455   2.803  0.2990  0.4042 -0.3188
   35Cl-    Cl-11929   0.190   0.586   0.981  0.0188  0.0034 -0.1109
   36Cl-    Cl-11930   1.252   4.818   0.467 -0.2669 -0.4122 -0.0408
   37Cl-    Cl-11931   5.123   3.999   0.232  0.2925 -0.0944 -0.0724
   38TP3      O11932   4.998   1.189   9.681  0.2898  0.9168 -0.8370
   38TP3     H111933   4.949   1.223   9.756  1.1494 -1.6808  1.0548
   38TP3     H211934   5.070   1.251   9.670  0.9102  0.7075  1.4248
   39TP3      O11935   3.457   0.134   7.204  0.2473 -0.2608  0.0818
   39TP3     H111936   3.492   0.195   7.139 -1.5227 -0.5911 -1.2631
   39TP3     H211937   3.416   0.064   7.151 -0.2438 -1.1382  1.5661
   40TP3      O11938   4.398   2.161   2.424  0.3497  0.0222  0.6416
   40TP3     H111939   4.349   2.242   2.413  0.3572  0.0604  0.8821
   40TP3     H211940   4.488   2.184   2.402  0.2320 -0.0925  0.0172
   41TP3      O11941   4.302   2.906  10.108 -0.7578 -0.2010 -0.4890
   41TP3     H111942   4.337   2.995  10.101  1.2181 -0.8343  0.4829
   41TP3     H211943   4.268   2.887  10.021  1.9991  0.2911 -1.7902
   42TP3      O11944   3.098   2.912   2.621  0.8904  0.2158 -0.3825
   42TP3     H111945   3.170   2.898   2.559  0.6134  1.7767 -1.1098
   42TP3     H211946   3.135   2.969   2.688  1.4226 -2.1205  1.3948
   43TP3      O11947   0.068   0.487   7.900 -0.3644 -0.0868 -0.0517
   43TP3     H111948   0.120   0.552   7.946 -0.7100 -0.2986  0.6646
   43TP3     H211949   0.077   0.408   7.954 -1.0296 -0.2532 -0.1740
   44TP3      O11950   3.361   5.242   9.247  0.3781  0.2584 -0.3177
   44TP3     H111951   3.323   5.158   9.222  0.1592  0.1931  0.2161
   44TP3     H211952   3.444   5.219   9.289  0.2995  0.3050 -0.1355
   45TP3      O11953   2.768   4.705   7.858  0.1376 -0.2904  0.0182
   45TP3     H111954   2.745   4.710   7.765 -1.3450 -2.2254  0.2113
   45TP3     H211955   2.700   4.756   7.902 -0.4456 -1.1433  0.1504
   46TP3      O11956   4.401   0.318   8.759 -0.2287  0.5071 -0.3602
   46TP3     H111957   4.356   0.399   8.780 -1.0864  0.3140 -1.4222
   46TP3     H211958   4.488   0.328   8.799 -0.9045  1.2192  0.9815
   47TP3      O11959   3.213   2.697   9.532  0.0276  0.4108 -0.0847
   47TP3     H111960   3.259   2.703   9.615 -0.5335  2.0586  0.1561
   47TP3     H211961   3.120   2.708   9.555 -0.1879  0.3377 -0.8713
   48TP3      O11962   1.348   3.503   7.782  0.8540 -0.2948  0.0418
   48TP3     H111963   1.366   3.564   7.710  0.3259 -1.4339 -1.1155
   48TP3     H211964   1.253   3.489   7.778  0.9005 -0.8034  0.5903
   49TP3      O11965   3.349   1.977   1.991  0.2939  0.0812 -0.0776
   49TP3     H111966   3.413   1.979   1.920  0.2148 -0.6133 -0.1775
   49TP3     H211967   3.401   1.956   2.069  0.0845 -1.4488 -0.3108
   50TP3      O11968   0.814   4.737   0.181  0.1693  0.2644 -0.1281
   50TP3     H111969   0.756   4.740   0.256  2.6479  0.2592  1.9271
   50TP3     H211970   0.902   4.728   0.218  1.5186  0.0393 -3.0352
   51TP3      O11971   4.987   1.112   7.791  0.7829  0.9339  0.0343
   51TP3     H111972   4.909   1.150   7.832 -1.6182 -1.0748 -2.3514
   51TP3     H211973   5.006   1.034   7.842  2.3720  2.2554  1.6082
   52TP3      O11974   3.575   2.948   8.208 -0.3534 -0.4112 -0.0397
   52TP3     H111975   3.606   2.929   8.297 -3.3922  1.1871  1.5552
   52TP3     H211976   3.620   3.029   8.184 -0.0382 -0.4529  0.3967
   53TP3      O11977   1.297   1.810   9.764  0.6862  0.3896 -0.0353
   53TP3     H111978   1.321   1.850   9.681  1.9130 -1.3778 -0.5820
   53TP3     H211979   1.282   1.718   9.744  2.0097 -0.2953  1.8553
   54TP3      O11980   0.586   3.047   7.984 -0.1451  0.6272 -0.0868
   54TP3     H111981   0.519   3.066   8.049 -0.6136  1.5018 -0.7844
   54TP3     H211982   0.537   3.019   7.906  0.4258 -0.9126  0.0747
   55TP3      O11983   0.396   1.792   1.085 -0.8067 -0.3676  0.7101
   55TP3     H111984   0.378   1.699   1.069 -2.1249  0.0263 -0.2649
   55TP3     H211985   0.317   1.837   1.055 -1.3274  0.8854  3.6377
   56TP3      O11986   4.782   0.667   2.199  0.4926  0.0871 -0.0355
   56TP3     H111987   4.752   0.578   2.184  2.3091 -0.7913  1.2509
   56TP3     H211988   4.826   0.692   2.117  1.5711 -0.9111  0.2124
   57TP3      O11989   3.861   0.859   9.352 -0.1073 -0.0607  0.0986
   57TP3     H111990   3.866   0.772   9.392  0.6904 -0.0073  0.1381
   57TP3     H211991   3.811   0.846   9.271  2.4105 -1.1683 -1.4092
   58TP3      O11992   2.783   4.066   2.431  0.3653  0.1878 -0.1528
   58TP3     H111993   2.776   3.970   2.437  1.3082  0.1533  0.7355
   58TP3     H211994   2.801   4.094   2.521  0.0055  1.2116 -0.3924
   59TP3      O11995   4.127   1.179   9.875 -0.0218  0.4997 -0.1151
   59TP3     H111996   4.125   1.084   9.887  0.3691  0.5499  0.3883
   59TP3     H211997   4.190   1.210   9.940  1.6316  0.8836 -1.7976
   60TP3      O11998   0.015   2.870   6.444 -0.4927 -0.1553 -0.6777
   60TP3     H111999   0.052   2.827   6.520  1.4709 -0.3419 -1.6849
   60TP3     H212000  -0.077   2.884   6.467  0.0624 -0.0592  1.7560
   61TP3      O12001   4.501   3.350   8.936  0.6998 -0.4111  0.4515
   61TP3     H112002   4.442   3.318   9.005  0.7985 -0.6464  0.4281
   61TP3     H212003   4.497   3.446   8.943  0.6480 -0.4338  0.7333
   62TP3      O12004   0.492   3.392   2.604  0.1284  0.0678  0.0730
   62TP3     H112005   0.482   3.406   2.510 -1.0874  0.2660  0.2122
   62TP3     H212006   0.420   3.442   2.644 -1.2137 -2.3320  0.9116
   63TP3      O12007   4.244   3.841  10.039  0.3954  0.2605  0.3529
   63TP3     H112008   4.296   3.780   9.987  1.4445 -0.1307  1.8199
   63TP3     H212009   4.155   3.807  10.033  0.7124 -0.5015 -0.1350
   64TP3      O12010   4.772   3.640   2.303  0.2781 -0.0802  0.4376
   64TP3     H112011   4.857   3.644   2.347 -0.3948  1.9886  1.6972
   64TP3     H212012   4.766   3.550   2.270  1.7855 -1.0879  2.6791
   65TP3      O12013   0.626   0.638   8.087 -0.8316  0.4108  0.4183
   65TP3     H112014   0.531   0.630   8.078 -0.7225  1.5429 -3.3967
   65TP3     H212015   0.643   0.732   8.077  0.7337  0.2032  0.8455
   66TP3      O12016   5.251   5.081   8.242 -0.0270 -0.2500 -0.2602
   66TP3     H112017   5.248   5.078   8.147  0.7011  0.0597 -0.2961
   66TP3     H212018   5.291   5.165   8.263 -0.6425 -0.0955  0.3327
   67TP3      O12019   2.694   2.796   0.809  0.2049  0.2576  0.5044
   67TP3     H112020   2.651   2.815   0.725 -0.5412  2.2921  1.2858
   67TP3     H212021   2.622   2.792   0.872  0.8764  0.2561  1.2845
   68TP3      O12022   4.269   3.057   8.850  0.4260  0.0221  0.0773
   68TP3     H112023   4.226   3.122   8.905 -2.4095 -2.0354  0.5433
   68TP3     H212024   4.250   3.085   8.760  0.9328  0.8479  0.2198
   69TP3      O12025   3.763   4.400   7.875  0.1132  0.0857  0.0930
   69TP3     H112026   3.747   4.400   7.781 -0.5614 -0.9760  0.1926
   69TP3     H212027   3.684   4.440   7.912 -0.6653 -1.5464  0.3222
   70TP3      O12028   2.078   0.474   7.801 -0.0882  0.0386  0.4073
   70TP3     H112029   2.132   0.396   7.820  1.1568  0.9265  0.6710
   70TP3     H212030   2.111   0.540   7.862 -0.3090  1.1187 -0.6249
   71TP3      O12031   4.662   0.967   9.445 -0.3162  0.4756 -0.4243
   71TP3     H112032   4.586   0.949   9.500 -1.0963 -3.1019 -2.2953
   71TP3     H212033   4.625   0.975   9.356  1.3676 -0.9097 -1.3122
   72TP3      O12034   2.153   1.278   0.653  0.1657  0.4725 -0.4350
   72TP3     H112035   2.085   1.254   0.716  1.5577 -1.3892  0.4293
   72TP3     H212036   2.105   1.293   0.571 -1.4798  1.2198  0.6058
   73TP3      O12037   1.035   4.849   3.069  0.6983  0.0917  0.1818
   73TP3     H112038   1.079   4.920   3.022 -0.3007  1.7369  1.6285
   73TP3     H212039   1.021   4.782   3.002  2.2185  0.9628 -1.1023
   74TP3      O12040   3.787   2.404   0.642 -0.4385  0.3702  0.6816
   74TP3     H112041   3.821   2.396   0.730 -0.1032  1.3035  0.6448
   74TP3     H212042   3.740   2.487   0.642 -0.9090  0.1143  0.1313
   75TP3      O12043   1.116   2.334   9.998  0.2961  0.4272 -0.0042
   75TP3     H112044   1.173   2.409  10.017  1.1355 -0.2198  0.0847
   75TP3     H212045   1.131   2.273  10.070  0.6846 -0.4193 -0.7689
   76TP3      O12046   2.011   4.530   9.567  0.0810  0.2769 -0.0759
   76TP3     H112047   1.988   4.579   9.488 -0.7041 -0.0813 -0.0873
   76TP3     H212048   2.085   4.475   9.540  0.2464  0.6431 -0.3732
   77TP3      O12049   0.915   1.933   7.354 -0.0490  0.1132 -0.0069
   77TP3     H112050   1.010   1.944   7.351  0.1561 -1.1423 -3.7770
   77TP3     H212051   0.902   1.840   7.372 -0.5032  0.0446 -0.6649
   78TP3      O12052   1.144   3.328   2.629  0.5053  0.1870  0.6351
   78TP3     H112053   1.078   3.366   2.686  0.3998  0.0464  0.6073
   78TP3     H212054   1.186   3.261   2.682 -0.0016 -0.3569  0.3543
   79TP3      O12055   2.721   0.697   7.091 -0.2288 -0.1475  0.2859
   79TP3     H112056   2.632   0.713   7.121 -0.2347 -0.2419  0.3200
   79TP3     H212057   2.728   0.746   7.010  0.1114  0.9171  0.9481
   80TP3      O12058   1.739   2.218   7.547  0.1487 -0.1766 -0.2323
   80TP3     H112059   1.708   2.259   7.466 -1.1791 -1.0176 -0.1842
   80TP3     H212060   1.724   2.284   7.615 -2.3312 -0.7730 -0.0914
   81TP3      O12061   1.989   2.803   0.085 -0.2010  0.1772 -0.0776
   81TP3     H112062   2.007   2.883   0.036 -1.0500  1.8150  2.0921
   81TP3     H212063   1.927   2.830   0.153 -2.0684 -2.7613 -0.4276
   82TP3      O12064   3.968   3.026   7.766 -0.1829 -0.0498 -0.4029
   82TP3     H112065   3.901   3.067   7.712  1.0252  1.7101 -0.6632
   82TP3     H212066   3.957   2.932   7.752 -1.3966  0.2784 -1.8548
   83TP3      O12067   2.817   1.548   8.966 -0.2692  0.2795 -0.0479
   83TP3     H112068   2.810   1.627   8.913 -2.2934 -0.0283 -0.3355
   83TP3     H212069   2.790   1.477   8.908  0.0373 -0.4093  0.6316
   84TP3      O12070   1.714   5.121   7.616 -0.1649 -0.3174  0.3799
   84TP3     H112071   1.661   5.104   7.538 -1.4517 -3.2899  1.7554
   84TP3     H212072   1.771   5.044   7.624  1.4775  0.9136  1.2641
   85TP3      O12073   4.965   0.168   2.783  0.5115  0.4610  0.2817
   85TP3     H112074   4.903   0.240   2.770 -0.5144 -0.5601 -0.7415
   85TP3     H212075   4.957   0.147   2.876 -0.9964  0.1194  0.1131
   86TP3      O12076   0.810   2.675   1.381  1.3269  0.4731  0.3280
   86TP3     H112077   0.830   2.702   1.292 -0.5955  0.8096 -0.0467
   86TP3     H212078   0.759   2.595   1.371  1.2337  0.4225  1.1297
   87TP3      O12079   3.897   0.707   7.671  0.2340  0.3066 -0.1077
   87TP3     H112080   3.928   0.757   7.747  0.6891 -1.0978  0.6760
   87TP3     H212081   3.891   0.617   7.703 -0.0014 -0.2465 -1.6271
   88TP3      O12082   4.104   1.223   9.144 -0.0704 -0.1312 -0.0429
   88TP3     H112083   4.130   1.154   9.083 -0.2991 -0.5026  0.2713
   88TP3     H212084   4.170   1.291   9.133  2.6527 -2.0819  2.5385
   89TP3      O12085   0.838   5.274   7.378 -0.1094  0.1089 -0.5824
   89TP3     H112086   0.909   5.214   7.356 -0.4269 -0.3957 -0.2613
   89TP3     H212087   0.823   5.324   7.297 -1.5291 -2.0004 -1.7290
   90TP3      O12088   2.156   5.020   2.702  0.4315 -0.0122  0.3461
   90TP3     H112089   2.197   4.935   2.685 -2.2295 -1.0585 -1.4592
   90TP3     H212090   2.181   5.075   2.628 -0.9864 -0.5324 -0.5584
   91TP3      O12091   1.524   1.532   8.106 -0.7149 -0.1755  0.3926
   91TP3     H112092   1.491   1.540   8.195 -0.4681  0.0480  0.4691
   91TP3     H212093   1.607   1.485   8.116 -0.6239 -0.0344  0.2962
   92TP3      O12094   4.149   5.241   8.519  0.1479 -0.3040  0.1559
   92TP3     H112095   4.198   5.249   8.438 -2.2001 -0.4088 -1.3578
   92TP3     H212096   4.061   5.272   8.498 -0.1329  1.3671  3.1295
   93TP3      O12097   4.721   1.930   7.176 -0.0836 -0.3374  0.2830
   93TP3     H112098   4.688   1.872   7.108 -1.9941 -0.0453  0.9062
   93TP3     H212099   4.756   2.006   7.127  0.8577 -1.1983 -0.4401
   94TP3      O12100   1.575   2.312   8.637 -0.0470 -0.2027 -0.2531
   94TP3     H112101   1.506   2.354   8.689 -0.5821 -3.1294  1.6381
   94TP3     H212102   1.655   2.359   8.659 -1.0542  1.8554 -0.7957
   95TP3      O12103   2.818   0.941   7.834  0.3405  0.1831 -0.2492
   95TP3     H112104   2.726   0.923   7.818 -0.1055  2.1828 -0.2413
   95TP3     H212105   2.856   0.856   7.858 -1.6276 -0.5690  0.4011
   96TP3      O12106   3.966   3.486   0.996  0.1098 -0.3591  0.2079
   96TP3     H112107   4.059   3.506   1.008  0.3092 -1.6662  1.1192
   96TP3     H212108   3.932   3.477   1.086 -1.3398  1.8731 -0.0443
   97TP3      O12109   1.273   0.872   0.314  0.4677  0.2546 -0.9277
   97TP3     H112110   1.211   0.800   0.306  0.9319 -0.1880 -0.5985
   97TP3     H212111   1.359   0.830   0.314  0.7713  0.8649 -1.4196
   98TP3      O12112   0.517   1.998   0.450 -0.3307  0.1243 -0.0680
   98TP3     H112113   0.561   1.924   0.408  0.3139  0.6157 -0.2884
   98TP3     H212114   0.587   2.063   0.462 -1.2583  1.5354 -1.8015
   99TP3      O12115   5.011   1.774   2.274  0.0411  0.0390 -0.5124
   99TP3     H112116   4.995   1.779   2.368  0.9027 -2.4413 -0.1526
   99TP3     H212117   5.097   1.813   2.262 -0.0300  0.2758 -0.2643
  100TP3      O12118   4.309   2.374   8.155 -0.0095 -0.5191  0.4933
  100TP3     H112119   4.266   2.445   8.107  1.6440 -0.6309 -1.3322
  100TP3     H212120   4.381   2.347   8.097  0.0961 -2.9442  1.6302
  101TP3      O12121   4.346   1.351   8.022  0.2945 -0.1515  0.2297
  101TP3     H112122   4.410   1.337   8.091  0.5181  2.1362  0.5624
  101TP3     H212123   4.383   1.308   7.945  0.8810 -1.2040  1.0678
  102TP3      O12124   3.823   3.855   8.021  0.2516 -0.5987  0.4805
  102TP3     H112125   3.887   3.840   7.951  0.7318 -0.5808  0.9063
  102TP3     H212126   3.822   3.950   8.033 -1.9625 -0.3065 -1.4496
  103TP3      O12127   0.171   0.274   6.881 -0.0811 -0.4944 -1.3532
  103TP3     H112128   0.169   0.253   6.788  1.7217 -2.0019 -1.1024
  103TP3     H212129   0.259   0.308   6.896 -0.1248 -0.8936 -0.0754
  104TP3      O12130   1.125   1.832   8.476 -0.5630 -0.0650  0.3154
  104TP3     H112131   1.036   1.864   8.468 -0.5509 -0.4981 -2.5914
  104TP3     H212132   1.122   1.743   8.441  1.2666  0.4794 -1.3647
  105TP3      O12133   5.108   4.701   8.875 -0.2873 -0.4181 -0.1299
  105TP3     H112134   5.189   4.719   8.828  0.0923 -0.9986  0.2850
  105TP3     H212135   5.047   4.767   8.844 -0.0250 -0.7231 -1.3650
  106TP3      O12136   0.357   1.763   8.230 -0.0193  0.6322  0.1955
  106TP3     H112137   0.394   1.696   8.172 -0.2349  0.2603  0.4819
  106TP3     H212138   0.317   1.826   8.171 -2.7667 -1.1773 -0.0420
  107TP3      O12139   4.273   0.915   9.974  1.0632 -0.2697 -0.0921
  107TP3     H112140   4.201   0.923  10.036 -0.1749  0.0026 -1.5008
  107TP3     H212141   4.343   0.872  10.023 -0.7379 -2.3269  0.8265
  108TP3      O12142   3.189   1.056   8.174 -0.0878  0.6256  0.2394
  108TP3     H112143   3.277   1.077   8.141  0.5191 -2.6849 -0.6575
  108TP3     H212144   3.180   1.109   8.253  1.9056  2.5010 -0.6753
  109TP3      O12145   4.188   1.972   8.836 -0.5777 -0.1017 -0.4661
  109TP3     H112146   4.138   2.037   8.786 -1.3727 -0.7617 -0.5531
  109TP3     H212147   4.277   2.006   8.838 -1.2531  1.7630  0.7668
  110TP3      O12148   3.801   2.198   7.836 -0.2096 -0.5840  0.8178
  110TP3     H112149   3.836   2.146   7.764 -0.1880  0.7221 -0.1473
  110TP3     H212150   3.707   2.205   7.817 -0.1440  0.0654  0.7081
  111TP3      O12151   3.195   5.188   0.615 -0.2025 -0.0184 -0.2616
  111TP3     H112152   3.217   5.146   0.698 -0.0905  0.7423  0.0991
  111TP3     H212153   3.102   5.208   0.623  0.1963  1.6762  0.4203
  112TP3      O12154   4.284   1.604   8.060 -0.4818  0.3263  0.2499
  112TP3     H112155   4.203   1.620   8.013 -0.0682  1.7558 -0.0224
  112TP3     H212156   4.308   1.514   8.036 -0.4148  0.9091 -2.1018
  113TP3      O12157   1.712   3.347   1.599  0.4019  0.4887  0.2404
  113TP3     H112158   1.751   3.428   1.567  1.0599 -0.4082 -1.3654
  113TP3     H212159   1.742   3.340   1.689 -0.9727  2.7972  0.9691
  114TP3      O12160   2.182   3.525   1.063 -0.1719  0.3325 -0.0562
  114TP3     H112161   2.173   3.539   0.969  0.2748  1.1331  0.0115
  114TP3     H212162   2.142   3.440   1.078  0.8313 -0.3574 -1.1449
  115TP3      O12163   0.676   2.184   9.453  0.5373 -0.0098 -0.0515
  115TP3     H112164   0.694   2.265   9.406  0.1608 -0.6213 -1.2777
  115TP3     H212165   0.746   2.178   9.518  0.6841  1.1854 -0.0782
  116TP3      O12166   1.182   0.221   7.143 -0.0967  0.2153 -0.1455
  116TP3     H112167   1.239   0.147   7.161 -0.3616  0.1364  0.3890
  116TP3     H212168   1.229   0.297   7.177 -0.1333  0.2012 -0.0628
  117TP3      O12169   0.082   2.979   2.381 -0.2843 -0.2708  0.2223
  117TP3     H112170   0.178   2.978   2.382 -0.2687 -0.3054  1.7211
  117TP3     H212171   0.059   2.990   2.289  1.1451 -1.1775 -0.2828
  118TP3      O12172   5.067   3.030   9.675 -0.4011 -0.1793 -0.1525
  118TP3     H112173   5.135   3.003   9.614  1.6575  0.9601  1.4723
  118TP3     H212174   5.049   3.122   9.652 -1.7637 -0.5968 -0.8467
  119TP3      O12175   3.999   0.110   9.276  0.0744  0.1394 -0.1605
  119TP3     H112176   3.940   0.087   9.347 -0.1874  0.2992 -0.3235
  119TP3     H212177   4.031   0.026   9.242 -0.2379  0.0464 -0.2228
  120TP3      O12178   1.967   1.258   6.904 -0.0734  1.1305  0.2563
  120TP3     H112179   1.917   1.181   6.931 -1.7231  1.6468 -1.1162
  120TP3     H212180   1.989   1.242   6.813  0.2687  1.9232  0.1914
  121TP3      O12181   1.057   3.537   8.678 -0.7712 -0.2369 -0.3534
  121TP3     H112182   0.989   3.498   8.624 -0.2841 -0.6440 -0.6874
  121TP3     H212183   1.014   3.609   8.723 -1.2409 -0.0426 -1.1054
  122TP3      O12184   0.132   2.260   8.845 -0.1547 -0.0426 -0.5338
  122TP3     H112185   0.180   2.333   8.883 -1.3505  0.1437  0.6975
  122TP3     H212186   0.118   2.286   8.754  1.6641  0.0756 -0.8124
  123TP3      O12187   3.608   1.711   1.761 -0.0963 -0.6455 -0.1320
  123TP3     H112188   3.524   1.696   1.717 -0.4086 -1.3288  0.6829
  123TP3     H212189   3.672   1.667   1.705 -0.2344  0.0921 -0.8927
  124TP3      O12190   4.468   2.039   7.657  0.0300 -0.3744 -0.0712
  124TP3     H112191   4.491   2.027   7.565  0.2773 -0.1192 -0.0442
  124TP3     H212192   4.406   2.111   7.657  2.4298  1.8421  0.2453
  125TP3      O12193   1.171   2.364   9.104  0.1083 -0.1342  0.2849
  125TP3     H112194   1.195   2.446   9.060  2.8410 -0.1908  1.4266
  125TP3     H212195   1.231   2.299   9.067 -1.4050 -1.4625  0.0553
  126TP3      O12196   0.870   0.609   2.119  0.3017  0.5982 -0.0801
  126TP3     H112197   0.870   0.607   2.024  2.3077  1.1423 -0.1224
  126TP3     H212198   0.935   0.544   2.145 -2.5036 -2.0005  1.0957
  127TP3      O12199   1.615   3.756   8.889 -0.8250  0.7231 -0.1123
  127TP3     H112200   1.558   3.732   8.963 -0.2782  2.8057  1.0516
  127TP3     H212201   1.598   3.849   8.875  0.0193  0.6487 -1.8271
  128TP3      O12202   2.022   3.278   7.673 -0.9860 -0.3278  0.0138
  128TP3     H112203   1.932   3.280   7.706 -0.9894  0.3725 -0.0373
  128TP3     H212204   2.052   3.368   7.679  0.3979 -0.8418  1.8617
  129TP3      O12205   4.153   4.253   0.550  0.7413 -0.6009 -0.7334
  129TP3     H112206   4.236   4.221   0.515  0.5227 -0.3409 -1.5183
  129TP3     H212207   4.090   4.237   0.479  0.2764 -0.1002 -0.4378
  130TP3      O12208   4.952   3.052   2.596 -0.4940 -0.2517  0.7068
  130TP3     H112209   4.978   2.999   2.520 -1.5331 -0.1420  0.2593
  130TP3     H212210   4.991   3.138   2.579 -2.1922  0.3089 -0.6345
  131TP3      O12211   2.129   4.997   6.613 -0.0211 -0.0717 -0.3150
  131TP3     H112212   2.144   5.001   6.707  0.1456 -0.3416 -0.3297
  131TP3     H212213   2.091   5.082   6.591 -0.7029 -0.2674  0.1047
  132TP3      O12214   4.232   1.809   8.494 -0.3795  0.3275  0.5965
  132TP3     H112215   4.184   1.886   8.523  0.5045  1.5698 -1.0952
  132TP3     H212216   4.187   1.780   8.415  0.9304  0.8223 -0.3616
  133TP3      O12217   2.243   5.079   2.154 -0.2810 -0.2179 -0.6583
  133TP3     H112218   2.153   5.054   2.176  0.4880 -1.9153  0.7441
  133TP3     H212219   2.269   5.140   2.223 -0.1716 -0.1177 -0.7871
  134TP3      O12220   2.062   3.085   0.515 -0.7091  0.0715 -0.5228
  134TP3     H112221   2.094   2.995   0.514  1.4462  0.7084  1.6864
  134TP3     H212222   2.039   3.104   0.424  0.6881 -2.0444 -1.3765
  135TP3      O12223   5.267   1.366   2.285  0.3222 -0.6234  0.2460
  135TP3     H112224   5.193   1.367   2.225 -0.2904 -2.2663  0.9263
  135TP3     H212225   5.298   1.457   2.286 -0.7051 -0.2174 -1.2157
  136TP3      O12226   4.464   0.103   2.526 -0.0534  0.7289  0.4852
  136TP3     H112227   4.497   0.156   2.599 -0.6346  1.4263  0.2587
  136TP3     H212228   4.425   0.026   2.569  2.9737 -0.8066  0.6903
  137TP3      O12229   1.870   4.507   9.155  0.4759 -0.3719 -0.1041
  137TP3     H112230   1.906   4.422   9.129  0.5985 -0.2527 -0.3230
  137TP3     H212231   1.805   4.486   9.223  0.5890 -0.6292 -0.0759
  138TP3      O12232   0.022   2.591   7.063 -0.3003  0.3400  0.6543
  138TP3     H112233   0.004   2.497   7.065 -2.1545  0.5975 -1.1113
  138TP3     H212234   0.006   2.621   7.153  2.4446 -1.3006  1.8193
  139TP3      O12235   1.260   3.165   2.818  0.4105  0.2245  0.3807
  139TP3     H112236   1.347   3.203   2.830 -0.1081  1.2997  0.8137
  139TP3     H212237   1.241   3.122   2.901 -0.3398  1.8194  1.0659
  140TP3      O12238   0.657   3.715   7.376  0.4381  0.1864 -0.1195
  140TP3     H112239   0.664   3.664   7.457 -0.9368 -0.9250 -0.6604
  140TP3     H212240   0.600   3.788   7.398 -0.6175 -0.5705 -0.2668
  141TP3      O12241   2.303   1.895   0.709  1.1062 -0.4015 -0.3612
  141TP3     H112242   2.300   1.805   0.740 -0.5159 -0.2362  0.0750
  141TP3     H212243   2.224   1.906   0.657  0.9316  0.9464  0.1305
  142TP3      O12244   4.117   4.993   1.032 -0.0678 -0.3087  0.4205
  142TP3     H112245   4.033   5.021   1.069  0.0025  0.6801 -0.1517
  142TP3     H212246   4.177   4.991   1.107 -0.0915  1.0286  0.4880
  143TP3      O12247   0.794   0.977   1.496  0.2991  0.0918  0.4809
  143TP3     H112248   0.762   0.932   1.418  2.0517 -1.1309  0.3971
  143TP3     H212249   0.863   1.036   1.464 -0.3367  1.0940  0.8904
  144TP3      O12250   3.978   4.585   0.060  0.1357  0.5368  0.2087
  144TP3     H112251   3.915   4.592  -0.011 -1.0152  0.6212  1.2221
  144TP3     H212252   3.981   4.672   0.099 -1.9326 -0.3004  2.4791
  145TP3      O12253   5.072   4.159   8.409 -0.3531  0.3165 -0.1002
  145TP3     H112254   5.132   4.221   8.450 -1.5202  1.6925 -0.3911
  145TP3     H212255   5.010   4.137   8.479 -1.0549  0.9711 -0.5008
  146TP3      O12256   1.977   0.717   0.444 -0.5887 -0.0484 -0.3891
  146TP3     H112257   2.008   0.777   0.512  2.3999  0.7637 -2.2323
  146TP3     H212258   1.967   0.773   0.366 -1.6361 -1.2998 -1.1967
  147TP3      O12259   4.801   2.484   0.046 -0.2588  0.0427 -0.2178
  147TP3     H112260   4.773   2.505   0.135  0.3536  1.0764 -0.2468
  147TP3     H212261   4.746   2.410   0.020  0.0033 -0.7163  1.2547
  148TP3      O12262   0.623   1.293   8.858  0.1805 -0.0685  0.4656
  148TP3     H112263   0.669   1.237   8.796 -0.5447 -0.3797  0.1952
  148TP3     H212264   0.542   1.245   8.878  0.2733  0.1601  1.4276
  149TP3      O12265   4.762   1.618   1.781 -0.1420 -0.4339  0.0761
  149TP3     H112266   4.671   1.629   1.810 -0.1857 -2.2609  0.7448
  149TP3     H212267   4.814   1.638   1.858 -0.0149 -0.1859 -0.0747
  150TP3      O12268   0.865   4.361   1.888 -0.7007  0.3278 -0.4292
  150TP3     H112269   0.791   4.303   1.868  0.2593 -0.7450 -1.0177
  150TP3     H212270   0.886   4.343   1.980 -0.7891  0.1816 -0.4384
  151TP3      O12271   3.661   1.631   7.425  0.7502 -0.0166 -0.0393
  151TP3     H112272   3.624   1.543   7.435  0.1659  0.1720 -0.4762
  151TP3     H212273   3.724   1.638   7.496  1.3089 -1.0436 -0.4027
  152TP3      O12274   1.134   2.849   2.528  0.2014  0.0547 -0.0641
  152TP3     H112275   1.097   2.788   2.593  2.0923 -1.1615 -0.0321
  152TP3     H212276   1.069   2.852   2.458 -0.2168 -1.5815  0.2085
  153TP3      O12277   5.033   2.612   9.475 -0.5689 -0.0238  0.0824
  153TP3     H112278   5.037   2.683   9.539 -2.9716  0.4619 -0.2162
  153TP3     H212279   5.018   2.655   9.391 -0.4823 -0.8162 -0.3506
  154TP3      O12280   5.189   0.695   8.128  0.5320 -0.4479 -0.1258
  154TP3     H112281   5.227   0.661   8.209 -2.3797  0.0051  1.6016
  154TP3     H212282   5.196   0.790   8.136  0.3124 -0.4054 -0.4235
  155TP3      O12283   4.077   2.147   8.661 -0.1173 -0.5103  0.0018
  155TP3     H112284   4.076   2.233   8.704  0.4144 -0.0940 -0.8030
  155TP3     H212285   3.988   2.137   8.627 -0.0005  0.0188 -0.4737
  156TP3      O12286   1.644   2.905   7.095 -0.0632  0.2443  0.1838
  156TP3     H112287   1.615   2.831   7.148  1.5996 -0.8513 -0.3402
  156TP3     H212288   1.703   2.866   7.030  1.9078  2.1700  0.6919
  157TP3      O12289   4.940   4.764   9.252 -0.1445 -0.6222  0.1789
  157TP3     H112290   4.901   4.677   9.257  0.3292 -1.0140 -1.8928
  157TP3     H212291   4.910   4.798   9.168 -0.4878  1.3285  1.0374
  158TP3      O12292   2.611   2.194   9.048  0.2655 -0.5993  0.5677
  158TP3     H112293   2.580   2.276   9.010  0.7727 -0.9457 -0.6616
  158TP3     H212294   2.656   2.220   9.128 -0.3955  0.2167  0.6871
  159TP3      O12295   2.751   3.871   0.293 -0.3115  0.1519  0.5673
  159TP3     H112296   2.675   3.885   0.350 -0.6902  0.8002 -0.0846
  159TP3     H212297   2.826   3.886   0.350 -0.6813  2.3279  0.5753
  160TP3      O12298   0.405   0.284   7.409  0.3397 -0.4366 -0.5718
  160TP3     H112299   0.441   0.371   7.391 -0.7042 -0.2988 -2.2974
  160TP3     H212300   0.336   0.299   7.473  2.0328 -0.4479  1.3438
  161TP3      O12301   1.197   2.737   7.989  0.2982  0.5744 -0.2722
  161TP3     H112302   1.152   2.653   7.983 -0.4777  0.6495  2.9307
  161TP3     H212303   1.184   2.776   7.902 -1.5258 -1.5175 -1.0553
  162TP3      O12304   1.625   1.114   1.793 -0.0896  0.0629  0.0782
  162TP3     H112305   1.652   1.172   1.722 -1.2984 -1.1889 -1.4676
  162TP3     H212306   1.706   1.094   1.840  0.8234  0.5544 -1.2229
  163TP3      O12307   4.545   4.679   8.351  0.3867  0.3885  0.2966
  163TP3     H112308   4.540   4.592   8.390  1.2554  0.8351  1.4351
  163TP3     H212309   4.456   4.714   8.359 -0.5323 -1.1470 -2.0846
  164TP3      O12310   0.635   2.391   7.556  0.4955 -0.0388  0.3245
  164TP3     H112311   0.627   2.444   7.635 -0.7173 -0.9463  0.8537
  164TP3     H212312   0.636   2.301   7.588  1.4283 -0.3885 -0.6216
  165TP3      O12313   2.937   4.052   0.640  0.1339  0.1539 -0.3043
  165TP3     H112314   2.948   3.994   0.565 -1.9970 -0.1641 -0.4216
  165TP3     H212315   2.952   4.140   0.604 -0.4951 -0.0249 -1.0281
  166TP3      O12316   1.642   3.118   2.174 -0.7215 -0.0675  0.2948
  166TP3     H112317   1.685   3.040   2.210 -2.4067 -1.6704 -0.9977
  166TP3     H212318   1.601   3.160   2.250 -0.9541 -1.2417  0.8391
  167TP3      O12319   0.512   0.816   8.426  0.2641  0.0171  0.5593
  167TP3     H112320   0.469   0.731   8.419  0.7508 -0.1402 -0.7314
  167TP3     H212321   0.603   0.795   8.445  0.7854  0.1383 -1.5558
  168TP3      O12322   3.305   3.357   8.886  0.0365 -0.2666  0.4134
  168TP3     H112323   3.361   3.389   8.816  1.3401 -0.6581  1.2316
  168TP3     H212324   3.283   3.267   8.860  0.3103 -0.3278  0.3962
  169TP3      O12325   3.499   1.492   8.264 -0.2461 -0.6454 -0.3666
  169TP3     H112326   3.537   1.416   8.309  0.8160  0.4618  0.7069
  169TP3     H212327   3.476   1.460   8.177 -2.6772 -2.9838  1.0052
  170TP3      O12328   3.288   3.784   9.492 -0.4639 -0.1057 -0.3786
  170TP3     H112329   3.293   3.782   9.396 -0.0937 -0.1068 -0.3613
  170TP3     H212330   3.221   3.850   9.511 -1.5228 -1.0595 -0.6626
  171TP3      O12331   3.288   0.016   1.208 -0.0481 -0.1714  0.3419
  171TP3     H112332   3.299   0.054   1.296  0.8528 -2.6352  1.3800
  171TP3     H212333   3.375   0.019   1.169 -0.7405  2.4307 -1.2377
  172TP3      O12334   5.176   2.651   7.395  0.3020  0.2150 -0.0080
  172TP3     H112335   5.253   2.596   7.404 -0.2430 -0.3672  1.3284
  172TP3     H212336   5.107   2.591   7.365  0.2877  0.6885 -0.9881
  173TP3      O12337   3.604   2.240   8.921 -0.4538 -0.2531  0.1724
  173TP3     H112338   3.674   2.206   8.977 -1.3460  0.2217  1.6560
  173TP3     H212339   3.568   2.314   8.970 -0.6849  0.7759 -1.4861
  174TP3      O12340   3.707   2.244   7.309  0.4365 -0.1074 -0.1318
  174TP3     H112341   3.741   2.317   7.257  0.6377 -0.3545 -0.3508
  174TP3     H212342   3.735   2.165   7.262 -2.2635 -0.3438 -1.5230
  175TP3      O12343   2.056   0.675   2.859 -0.0725 -0.2311 -0.2005
  175TP3     H112344   1.981   0.735   2.858  1.0026  1.1678 -1.0102
  175TP3     H212345   2.089   0.680   2.949 -0.2181  0.1185 -0.1643
  176TP3      O12346   5.189   4.309   8.588 -0.1524 -0.1857  0.0976
  176TP3     H112347   5.179   4.296   8.682 -1.0450  1.6847  0.3162
  176TP3     H212348   5.283   4.297   8.571 -0.2723 -2.6721  0.7961
  177TP3      O12349   4.349   2.265   8.960  0.0072  0.5911 -0.5090
  177TP3     H112350   4.390   2.349   8.938 -1.0893  1.1366 -0.5235
  177TP3     H212351   4.365   2.209   8.884  0.9931  0.6813 -0.3802
  178TP3      O12352   2.718   0.423   1.576  0.0043  0.6003 -0.5796
  178TP3     H112353   2.795   0.478   1.565  1.3868 -1.3727 -1.5173
  178TP3     H212354   2.726   0.357   1.507 -1.5084 -0.8062  0.5080
  179TP3      O12355   3.379   4.108   9.959  0.0049 -0.3917  0.1585
  179TP3     H112356   3.390   4.168   9.885 -0.2529 -1.1072 -0.4681
  179TP3     H212357   3.466   4.070   9.972 -0.0176 -0.4899  0.0249
  180TP3      O12358   4.409   4.254   0.133 -0.2703 -0.4806  1.2007
  180TP3     H112359   4.451   4.266   0.048 -1.7227  0.1673  0.5326
  180TP3     H212360   4.351   4.179   0.120 -2.4849  1.1889  0.7408
  181TP3      O12361   0.461   2.548   9.132 -0.2603  0.3951  0.0236
  181TP3     H112362   0.421   2.631   9.157 -0.6119  0.7667 -1.6630
  181TP3     H212363   0.552   2.571   9.113  0.5310 -0.2404  2.7411
  182TP3      O12364   2.224   0.379   3.520 -0.2140 -0.2709  0.6287
  182TP3     H112365   2.261   0.372   3.431  1.3735 -1.9975  1.3505
  182TP3     H212366   2.255   0.464   3.552 -1.6590  0.8513 -0.7731
  183TP3      O12367   1.206   0.193   9.991 -0.2334  0.3001 -0.2937
  183TP3     H112368   1.225   0.160  10.078  0.4348 -2.4109 -1.3605
  183TP3     H212369   1.112   0.180   9.981 -0.2070  0.0115 -0.1853
  184TP3      O12370   0.952   3.313   9.690 -0.1204 -0.1536  0.2798
  184TP3     H112371   0.924   3.398   9.655  2.8482  1.1302  0.6766
  184TP3     H212372   0.880   3.286   9.748 -2.5310  0.4900 -2.1894
  185TP3      O12373   4.242   4.504   2.950 -0.0908 -0.1046  0.4563
  185TP3     H112374   4.302   4.559   3.002 -0.2979 -0.2996  0.9086
  185TP3     H212375   4.199   4.449   3.015  0.6377 -1.3167 -0.0545
  186TP3      O12376   2.991   0.613   8.752 -0.0456  0.4420 -0.1765
  186TP3     H112377   3.010   0.691   8.804  0.7341 -0.3089  0.6898
  186TP3     H212378   3.026   0.634   8.665 -0.6341  1.3862 -0.2035
  187TP3      O12379   1.485   2.388   1.806 -0.2907 -0.5965  0.4963
  187TP3     H112380   1.498   2.460   1.868  1.6259  0.2615 -0.8270
  187TP3     H212381   1.430   2.425   1.737  0.8810 -0.2673 -0.2993
  188TP3      O12382   0.097   1.431   2.576  0.1924  0.2425 -0.6301
  188TP3     H112383   0.145   1.496   2.627  0.8833 -0.3968 -0.4460
  188TP3     H212384   0.130   1.443   2.486  0.6446 -0.1384 -0.5190
  189TP3      O12385   4.910   1.722   8.754 -0.2083  0.1892  0.3694
  189TP3     H112386   4.949   1.733   8.667 -1.3510  1.0988 -0.0551
  189TP3     H212387   4.851   1.647   8.744 -2.0214  1.6328 -0.3041
  190TP3      O12388   3.543   0.567   7.738  0.1639 -0.4300  0.0801
  190TP3     H112389   3.584   0.606   7.815 -3.1084  1.0890  1.2115
  190TP3     H212390   3.554   0.473   7.750  3.8490 -0.1979 -0.1660
  191TP3      O12391   3.571   1.148   2.321 -0.3740  0.0005 -0.1784
  191TP3     H112392   3.659   1.183   2.311 -0.5187  0.0298 -1.5200
  191TP3     H212393   3.584   1.061   2.360  0.1176  0.6284  1.1173
  192TP3      O12394   3.686   0.655   2.409 -0.0985  0.1427  0.1031
  192TP3     H112395   3.758   0.594   2.430  1.0265  1.7301  1.0492
  192TP3     H212396   3.645   0.674   2.493 -0.1916  0.9628 -0.1201
  193TP3      O12397   3.316   0.780   2.683  0.5030 -0.0646  0.2351
  193TP3     H112398   3.248   0.846   2.697  1.3069  0.9263 -0.3790
  193TP3     H212399   3.275   0.716   2.625  0.4262  1.1222 -1.0843
  194TP3      O12400   1.670   3.954   0.221  0.1598 -0.1277  0.1443
  194TP3     H112401   1.615   3.879   0.200  1.8889 -1.4138 -0.0339
  194TP3     H212402   1.618   4.005   0.284 -0.8577 -1.7430  0.6879
  195TP3      O12403   2.425   0.176   8.489 -0.2483  0.0364 -0.0397
  195TP3     H112404   2.500   0.205   8.541  0.0784 -0.3815 -0.2777
  195TP3     H212405   2.460   0.162   8.401 -1.1342  2.3082 -0.8082
  196TP3      O12406   0.678   0.428  10.034  0.1657 -0.3124  0.2487
  196TP3     H112407   0.595   0.419   9.987  0.2037  1.2319 -0.1480
  196TP3     H212408   0.745   0.422   9.966  0.2501  1.2445  0.1760
  197TP3      O12409   2.603   3.964   2.870 -0.1342 -0.1010 -0.5554
  197TP3     H112410   2.688   4.000   2.897  0.6027 -1.8025 -0.4777
  197TP3     H212411   2.548   3.972   2.947  0.7354 -1.2408  0.2189
  198TP3      O12412   3.875   3.414   0.158  0.6579  0.1693  0.8132
  198TP3     H112413   3.970   3.425   0.153  0.4003  3.0178  0.5069
  198TP3     H212414   3.848   3.466   0.234 -0.8043  1.1212 -0.2768
  199TP3      O12415   2.615   3.888   8.035  0.3382 -0.2182  0.0510
  199TP3     H112416   2.678   3.854   8.098  0.7328 -1.5343 -1.0033
  199TP3     H212417   2.565   3.953   8.084  2.0567  0.3831  1.1083
  200TP3      O12418   5.248   2.232   2.263 -0.1303 -0.2728 -0.1960
  200TP3     H112419   5.168   2.201   2.305  0.0126 -0.7265 -0.2569
  200TP3     H212420   5.251   2.326   2.284 -1.1469 -0.0593 -0.9535
  201TP3      O12421   2.011   3.208   9.695  0.4463  0.3652 -0.2050
  201TP3     H112422   2.050   3.285   9.653  0.2367  0.5087 -0.1373
  201TP3     H212423   1.925   3.238   9.724  0.2374  0.0122 -0.4598
  202TP3      O12424   3.499   4.959   6.586 -0.2782 -0.1008  0.0424
  202TP3     H112425   3.405   4.960   6.570 -0.2851 -4.1884 -1.0337
  202TP3     H212426   3.522   5.052   6.596 -3.9951  1.2175 -1.8591
  203TP3      O12427   0.295   5.180   3.323 -0.1717  0.1581  0.0372
  203TP3     H112428   0.292   5.137   3.238  0.2936 -1.2391  0.6959
  203TP3     H212429   0.204   5.196   3.346 -0.3881 -0.9622 -0.0012
  204TP3      O12430   0.490   3.715   6.426  0.0706 -0.1669 -0.5218
  204TP3     H112431   0.497   3.808   6.405  0.7946  0.0491  0.6168
  204TP3     H212432   0.548   3.672   6.362 -0.5602  0.1075 -1.2983
  205TP3      O12433   2.113   2.727   7.368 -0.6884  0.3627  0.1308
  205TP3     H112434   2.200   2.766   7.358  0.2430 -1.5855  0.0884
  205TP3     H212435   2.122   2.639   7.332 -3.4073  0.9105 -2.2605
  206TP3      O12436   5.140   4.252   8.129 -0.1434 -0.2261 -0.2978
  206TP3     H112437   5.180   4.177   8.086 -0.2554 -1.0494  0.9857
  206TP3     H212438   5.095   4.215   8.205  0.9223  1.2717  1.1433
  207TP3      O12439   2.024   4.351   7.814 -0.4796  0.2561 -0.4483
  207TP3     H112440   1.937   4.314   7.800 -0.5319  0.3860 -0.4676
  207TP3     H212441   2.084   4.279   7.793 -0.5864  0.1040 -0.2377
  208TP3      O12442   1.005   4.998   7.522 -0.6642 -0.5580  0.6320
  208TP3     H112443   0.942   4.997   7.450  0.3618 -1.7113 -0.2747
  208TP3     H212444   0.976   4.928   7.580 -0.6568 -0.5709  0.6199
  209TP3      O12445   0.887   3.169   1.691  0.9281 -0.0718 -0.4520
  209TP3     H112446   0.897   3.221   1.770  1.4474 -0.8538  0.0120
  209TP3     H212447   0.920   3.225   1.621  0.1149  0.7641 -0.1764
  210TP3      O12448   3.722   0.460   7.406  0.2793 -0.6745  0.2465
  210TP3     H112449   3.806   0.442   7.450  0.7986  1.8258  0.4363
  210TP3     H212450   3.747   0.498   7.321 -0.5643  1.2766  0.7998
  211TP3      O12451   3.233   0.760   1.734  0.2223  0.1501 -0.3795
  211TP3     H112452   3.322   0.770   1.768  0.4817  0.7822 -1.2043
  211TP3     H212453   3.246   0.737   1.642 -0.4437 -2.8901  0.1910
  212TP3      O12454   1.180   3.187   9.515  0.2175  0.3141  0.0200
  212TP3     H112455   1.093   3.197   9.554 -0.9552 -0.0317 -2.3204
  212TP3     H212456   1.208   3.099   9.541 -0.3312  0.2604  0.4539
  213TP3      O12457   4.626   1.320   7.255 -0.0406  0.1261 -0.4552
  213TP3     H112458   4.616   1.413   7.237 -0.6040  0.0032 -0.8288
  213TP3     H212459   4.562   1.302   7.324 -0.2275 -0.0579 -0.6722
  214TP3      O12460   1.338   1.437   0.969  0.1708 -0.2293 -0.8650
  214TP3     H112461   1.433   1.438   0.967  0.3553 -1.5144  2.0305
  214TP3     H212462   1.314   1.353   0.927  0.3764 -0.4036 -0.6330
  215TP3      O12463   0.327   0.084   0.423  0.1948  0.2151  0.3120
  215TP3     H112464   0.244   0.094   0.377  0.5367  0.9833 -0.1442
  215TP3     H212465   0.327  -0.008   0.451 -0.2509 -0.1344 -0.7671
  216TP3      O12466   0.366   2.092   3.073  0.2818  0.3059  0.5327
  216TP3     H112467   0.459   2.075   3.089  0.6849  1.6483 -0.2431
  216TP3     H212468   0.355   2.185   3.094 -1.2159 -0.1441  1.9969
  217TP3      O12469   4.164   3.406   9.217 -0.3867 -0.0293 -0.1057
  217TP3     H112470   4.193   3.496   9.230  0.1394  0.1431 -2.1214
  217TP3     H212471   4.132   3.405   9.126 -0.8841 -1.7402  0.0666
  218TP3      O12472   1.701   4.822   0.684 -0.0790 -0.2044 -0.2318
  218TP3     H112473   1.738   4.743   0.724  0.4861  1.1055  2.0003
  218TP3     H212474   1.606   4.810   0.694  0.0045 -0.5462  0.2252
  219TP3      O12475   4.688   3.660   1.710  0.2337 -0.1605 -0.3222
  219TP3     H112476   4.724   3.748   1.698 -0.5129 -0.0034 -1.6260
  219TP3     H212477   4.656   3.660   1.800  0.0916  0.9766 -0.3470
  220TP3      O12478   1.944   1.815   7.210  0.8608  0.1780 -0.0632
  220TP3     H112479   2.019   1.871   7.232  0.1920  1.2775 -0.4860
  220TP3     H212480   1.901   1.861   7.138 -1.1439  0.4175  1.2223
  221TP3      O12481   1.202   0.570   0.500  0.0337  0.2539 -0.1439
  221TP3     H112482   1.169   0.513   0.569 -0.5874 -0.9621 -1.3951
  221TP3     H212483   1.134   0.567   0.432  0.4018  1.7997 -0.6229
  222TP3      O12484   4.170   2.564   0.250 -0.5031 -0.1125 -0.1257
  222TP3     H112485   4.242   2.539   0.309  0.4894  0.4779 -1.0480
  222TP3     H212486   4.123   2.483   0.234 -0.6731 -0.3216  1.3128
  223TP3      O12487   2.074   0.964   7.111 -0.2385  0.3072  0.4529
  223TP3     H112488   1.991   0.967   7.158 -0.9970  1.1075 -0.8953
  223TP3     H212489   2.115   0.883   7.141 -1.8525 -0.5090  0.5694
  224TP3      O12490   4.756   4.166   1.053  0.0272 -0.2977 -0.1011
  224TP3     H112491   4.828   4.190   0.995  0.5981  1.6220  1.2946
  224TP3     H212492   4.790   4.182   1.141 -1.6051 -0.7938  0.6578
  225TP3      O12493   2.244   1.110   9.551  0.7796  0.4570  0.7143
  225TP3     H112494   2.290   1.106   9.635  2.9454  2.2495 -0.2753
  225TP3     H212495   2.224   1.203   9.539 -1.6900 -0.0632  0.3015
  226TP3      O12496   1.386   0.285   7.509  0.0466 -0.1641 -0.6405
  226TP3     H112497   1.347   0.336   7.438  0.4441  0.8826 -0.1325
  226TP3     H212498   1.386   0.344   7.584 -1.8159 -1.7477  0.7302
  227TP3      O12499   0.346   2.481   6.207 -0.0695  0.0514 -0.5114
  227TP3     H112500   0.332   2.386   6.200  0.8486 -0.0781 -0.6685
  227TP3     H212501   0.260   2.519   6.188 -0.1767 -0.7075 -1.6595
  228TP3      O12502   2.981   4.659   7.389 -0.4107  0.2929 -0.3091
  228TP3     H112503   2.934   4.683   7.309 -0.7931  1.2394  0.1821
  228TP3     H212504   3.069   4.695   7.376 -0.3096 -0.0247 -0.5232
  229TP3      O12505   0.907   2.265   2.487  0.0738  0.3168 -0.2414
  229TP3     H112506   0.910   2.285   2.580  3.8824  0.5128 -0.2259
  229TP3     H212507   0.942   2.343   2.444 -1.7590  0.2947 -1.9197
  230TP3      O12508   2.608   3.248   3.035 -0.0225  0.5126 -0.3374
  230TP3     H112509   2.569   3.281   3.117  0.9338  0.2327  0.2477
  230TP3     H212510   2.548   3.179   3.007 -0.9494  1.3429 -0.4741
  231TP3      O12511   5.147   3.000   9.100 -0.4045 -0.1638  0.8600
  231TP3     H112512   5.071   3.037   9.056  0.0750  0.4369  0.5208
  231TP3     H212513   5.183   2.937   9.037 -1.0743 -1.0441  1.3366
  232TP3      O12514   0.665   1.427   7.673 -0.2311 -0.1786  0.3025
  232TP3     H112515   0.580   1.386   7.686 -0.6679 -0.5614 -3.0426
  232TP3     H212516   0.657   1.512   7.717 -1.1567 -1.4295  2.7352
  233TP3      O12517   4.921   4.867   0.091 -0.2705  0.6422 -0.2204
  233TP3     H112518   4.832   4.885   0.063 -0.3794  1.1364  0.4234
  233TP3     H212519   4.957   4.811   0.022 -1.9356 -1.8073  0.7641
  234TP3      O12520   4.172   0.170   2.452  0.0157 -0.4873 -0.8499
  234TP3     H112521   4.246   0.110   2.440  0.0016 -0.7256  0.2181
  234TP3     H212522   4.136   0.148   2.538  0.3491  1.4082 -0.1704
  235TP3      O12523   4.985   0.652   0.589  0.1222  0.2186 -0.5922
  235TP3     H112524   4.932   0.730   0.608 -1.0844 -0.8242  0.6135
  235TP3     H212525   4.971   0.596   0.665  2.6156 -0.3421 -0.4759
  236TP3      O12526   3.206   3.881   9.907  0.0896  0.0080 -0.1767
  236TP3     H112527   3.275   3.827   9.868  0.9841  0.6037  0.5299
  236TP3     H212528   3.247   3.967   9.919 -1.0053  0.5727 -0.3840
  237TP3      O12529   0.892   0.617   1.852 -0.5187  0.0814 -0.2851
  237TP3     H112530   0.982   0.651   1.848 -0.1336 -0.7091  0.9831
  237TP3     H212531   0.841   0.679   1.800  0.7425  0.5832 -0.9876
  238TP3      O12532   4.856   4.441   0.539 -0.4138 -0.4608  0.2828
  238TP3     H112533   4.891   4.359   0.504  0.4396  0.0459 -0.0918
  238TP3     H212534   4.808   4.479   0.466 -3.2699 -1.9137  1.2345
  239TP3      O12535   4.319   3.219   2.706  0.5705  0.0649  0.2501
  239TP3     H112536   4.408   3.186   2.695  0.3534 -1.1247  1.7232
  239TP3     H212537   4.265   3.160   2.654  0.7249  1.7484 -1.9985
  240TP3      O12538   3.063   1.440   8.005 -0.5993  0.1017  0.4588
  240TP3     H112539   2.974   1.405   8.000 -1.1152  1.2453  1.1769
  240TP3     H212540   3.100   1.398   8.083 -0.4450 -0.5103  0.0577
  241TP3      O12541   2.427   1.957   9.563  0.0609 -0.2256 -0.1525
  241TP3     H112542   2.431   2.036   9.510 -3.0217 -0.0476 -0.3428
  241TP3     H212543   2.376   1.895   9.510  0.7565 -1.6536  0.7759
  242TP3      O12544   4.695   2.109   9.886 -0.0466 -0.1186  0.2554
  242TP3     H112545   4.751   2.186   9.874  0.5118 -0.6407 -0.6600
  242TP3     H212546   4.756   2.038   9.906 -0.3123 -0.7697 -1.1085
  243TP3      O12547   3.479   4.421   8.773 -0.3849 -0.6920  0.4444
  243TP3     H112548   3.467   4.513   8.796 -1.4863 -0.0222 -2.3061
  243TP3     H212549   3.404   4.377   8.812 -2.3286  0.4300 -1.7432
  244TP3      O12550   2.483   2.140   0.722  0.2127 -0.0360 -0.1209
  244TP3     H112551   2.471   2.186   0.639 -0.1632 -2.7012 -1.6426
  244TP3     H212552   2.407   2.083   0.730  0.6320 -0.4320  1.6846
  245TP3      O12553   1.882   2.166   8.235  0.0835 -0.9130  0.0621
  245TP3     H112554   1.867   2.107   8.161  0.2555 -0.9149  0.0276
  245TP3     H212555   1.874   2.110   8.312  1.0611 -1.1668 -0.0010
  246TP3      O12556   1.325   2.879   1.222 -0.2756  0.4881  0.1002
  246TP3     H112557   1.414   2.878   1.186  0.6377  1.4754  2.1363
  246TP3     H212558   1.286   2.797   1.193  1.4202 -0.1356 -0.5562
  247TP3      O12559   2.204   4.883   9.545  0.6554  0.5158  0.8703
  247TP3     H112560   2.142   4.838   9.602 -0.8720 -0.7629 -1.6112
  247TP3     H212561   2.269   4.816   9.524 -0.6148 -0.0986 -1.3917
  248TP3      O12562   3.163   0.803   0.833  0.3880  0.1614  0.5105
  248TP3     H112563   3.251   0.766   0.830  0.1399 -0.3924 -0.5889
  248TP3     H212564   3.117   0.751   0.899  0.9073  0.5542  1.2018
  249TP3      O12565   2.582   3.558   8.446 -0.3286  0.5636 -0.0321
  249TP3     H112566   2.572   3.589   8.536  4.9939 -0.4802  1.2998
  249TP3     H212567   2.562   3.465   8.450  0.0656  0.4836  0.1613
  250TP3      O12568   0.024   5.156   2.052 -0.3010 -0.1286  0.2038
  250TP3     H112569   0.097   5.113   2.097 -0.9926 -0.1987  1.2769
  250TP3     H212570   0.051   5.158   1.960  2.1385  1.9837  0.8621
  251TP3      O12571   3.475   3.183   2.666  0.3840 -0.2432  0.2339
  251TP3     H112572   3.481   3.097   2.706  0.8862 -1.0552 -1.4872
  251TP3     H212573   3.550   3.231   2.701  1.0343 -1.0567 -0.0043
  252TP3      O12574   5.012   1.049   0.428  0.2020  0.2441 -0.1782
  252TP3     H112575   4.923   1.028   0.453  0.1149 -0.6573 -1.2061
  252TP3     H212576   5.006   1.137   0.390 -0.2160  0.2386 -0.1271
  253TP3      O12577   3.517   2.592   8.367 -0.8003  0.1267 -0.6342
  253TP3     H112578   3.501   2.659   8.301 -0.3961  0.3959 -0.4609
  253TP3     H212579   3.609   2.603   8.391 -0.9416  0.0393 -0.0264
  254TP3      O12580   1.955   3.252   7.370 -0.2146  0.2599  0.7176
  254TP3     H112581   1.993   3.265   7.457  3.1254  0.4289 -0.6223
  254TP3     H212582   1.938   3.158   7.365 -0.3069  0.2264  1.4816
  255TP3      O12583   2.493   4.442   9.324  0.0651  0.5220 -0.6257
  255TP3     H112584   2.557   4.509   9.302  0.4291  0.3698 -0.0704
  255TP3     H212585   2.545   4.372   9.365 -0.3318 -0.0119 -1.0226
  256TP3      O12586   5.063   0.382   9.035 -0.0390 -0.0779 -0.0751
  256TP3     H112587   5.024   0.303   8.997 -0.4023 -0.6063  1.3532
  256TP3     H212588   5.023   0.454   8.985  0.7320 -0.7703 -1.7912
  257TP3      O12589   4.396   2.533   9.934 -0.0440  0.4145 -0.1429
  257TP3     H112590   4.409   2.494   9.847 -1.1373  1.0137 -0.6009
  257TP3     H212591   4.331   2.602   9.919  0.8576  1.5271  0.8824
  258TP3      O12592   0.822   0.939   9.243 -0.2347 -0.1224  0.1774
  258TP3     H112593   0.772   1.015   9.215 -0.7538 -0.8850 -1.0927
  258TP3     H212594   0.846   0.957   9.334 -0.5155  1.4453 -0.0347
  259TP3      O12595   1.630   4.297   0.436 -0.4136 -0.3298 -0.3274
  259TP3     H112596   1.564   4.256   0.492 -0.5782  1.4041  0.8316
  259TP3     H212597   1.681   4.353   0.495 -0.2064  1.1113 -1.7805
  260TP3      O12598   0.236   0.478   9.086  0.6941 -0.4897  0.1234
  260TP3     H112599   0.286   0.420   9.143  1.4107 -0.2873 -0.2831
  260TP3     H212600   0.300   0.510   9.022  0.4933  1.3009  0.7487
  261TP3      O12601   1.453   0.575   0.656 -0.4899  0.3819 -0.6647
  261TP3     H112602   1.374   0.561   0.604 -2.2965 -0.0540  1.9739
  261TP3     H212603   1.525   0.552   0.598 -2.4407 -1.8615 -2.3715
  262TP3      O12604   0.997   4.187   7.614 -0.4939 -0.3211 -0.4137
  262TP3     H112605   0.970   4.235   7.536  1.1035 -0.5631 -1.1455
  262TP3     H212606   1.091   4.173   7.603 -0.0373  0.4111  1.9640
  263TP3      O12607   1.951   2.804   9.191 -0.8808  0.3193  0.2491
  263TP3     H112608   1.876   2.811   9.132 -0.9010  0.7494  0.3225
  263TP3     H212609   1.929   2.731   9.249 -0.2558 -1.0020 -1.1340
  264TP3      O12610   0.114   0.733   8.329  0.0231  0.5852  0.1819
  264TP3     H112611   0.105   0.790   8.405 -1.3837  0.9478 -0.2187
  264TP3     H212612   0.139   0.792   8.258 -1.6756  0.8132 -0.2895
  265TP3      O12613   3.101   2.939   6.733  0.0851  0.1808 -0.0646
  265TP3     H112614   3.126   2.870   6.795 -0.6001 -0.7041 -0.7438
  265TP3     H212615   3.095   2.894   6.648  0.5870  1.2804 -0.7104
  266TP3      O12616   3.567   0.786   8.254 -0.0450 -0.1667 -0.2129
  266TP3     H112617   3.656   0.791   8.217  0.1165 -1.7487 -0.1037
  266TP3     H212618   3.509   0.799   8.179  0.2245  2.1994 -0.0894
  267TP3      O12619   2.471   2.981   6.606  0.5016 -0.4257 -0.1848
  267TP3     H112620   2.392   3.035   6.601  1.9045  1.8753  1.1374
  267TP3     H212621   2.454   2.922   6.680 -0.0403 -0.0873 -0.0300
  268TP3      O12622   2.257   0.916   1.036  0.1683 -0.1558 -0.4505
  268TP3     H112623   2.280   1.009   1.041  1.5235 -0.3681 -2.0887
  268TP3     H212624   2.219   0.905   0.949 -0.5731 -1.0344 -0.0326
  269TP3      O12625   2.340   2.920   1.541  0.2880 -0.9478 -0.2976
  269TP3     H112626   2.426   2.959   1.529 -0.1919  0.6495  0.9750
  269TP3     H212627   2.357   2.831   1.573  1.4781 -0.3502  0.8027
  270TP3      O12628   0.973   2.672   8.751 -0.0473 -0.3820  0.1223
  270TP3     H112629   0.908   2.618   8.706 -0.2434 -0.0872  0.0532
  270TP3     H212630   0.922   2.739   8.797  0.2554  0.5272 -0.8325
  271TP3      O12631   3.573   5.147   2.541  0.0621 -0.2446  0.2372
  271TP3     H112632   3.594   5.069   2.489  0.8539 -0.8277  1.3992
  271TP3     H212633   3.490   5.178   2.503 -0.5456 -1.9367  0.0649
  272TP3      O12634   3.429   3.545   9.237  0.4904  0.1456 -0.5919
  272TP3     H112635   3.398   3.454   9.243  0.8604 -0.0119 -0.9587
  272TP3     H212636   3.484   3.556   9.314 -0.0809  0.2671 -0.2030
  273TP3      O12637   2.301   1.083   9.264 -0.0376  0.1006  0.1510
  273TP3     H112638   2.389   1.120   9.265 -0.5924  1.4577  0.2325
  273TP3     H212639   2.280   1.069   9.356  0.0646 -0.1568  0.1355
  274TP3      O12640   3.690   3.848   7.186  0.7026 -0.5104  0.2251
  274TP3     H112641   3.737   3.767   7.206  1.3144  0.2567  2.0954
  274TP3     H212642   3.599   3.820   7.176  0.6207 -1.2777  2.4888
  275TP3      O12643   0.229   4.030   8.556  0.2057 -0.5897 -0.1134
  275TP3     H112644   0.238   3.939   8.584  2.5419 -0.7237 -1.0569
  275TP3     H212645   0.195   4.025   8.467  3.5483 -0.8470 -1.5270
  276TP3      O12646   0.340   2.349   3.161 -0.0423 -0.0944 -0.5235
  276TP3     H112647   0.413   2.404   3.189  0.9687 -0.7821 -1.6918
  276TP3     H212648   0.315   2.300   3.239  0.3163  0.6082  0.0466
  277TP3      O12649   2.555   1.156   2.098  0.0390 -0.2487  0.4937
  277TP3     H112650   2.571   1.102   2.020  0.2625 -0.1140  0.4469
  277TP3     H212651   2.468   1.194   2.082  0.7901  1.1499 -0.5029
  278TP3      O12652   0.732   0.466   0.526  0.5360 -0.4180 -0.5024
  278TP3     H112653   0.651   0.414   0.533  1.2753 -1.4681  0.8625
  278TP3     H212654   0.798   0.403   0.495  1.6015 -0.5468  1.8083
  279TP3      O12655   0.782   2.184   6.738 -0.2944  0.0291 -0.6524
  279TP3     H112656   0.723   2.126   6.787  1.5136 -1.0374  0.3660
  279TP3     H212657   0.809   2.250   6.802 -0.8737  0.9411 -1.3099
  280TP3      O12658   2.655   3.731   1.503 -0.8226 -0.0775  0.3743
  280TP3     H112659   2.699   3.807   1.465 -0.9641  0.0548  0.4729
  280TP3     H212660   2.646   3.751   1.596  0.2195 -0.7380  0.6301
  281TP3      O12661   1.594   2.770   0.558  0.2715  0.5335  0.4259
  281TP3     H112662   1.548   2.784   0.475 -1.2409 -1.0821  0.9430
  281TP3     H212663   1.660   2.704   0.538 -2.2137 -2.3887  1.0714
  282TP3      O12664   0.324   0.922   7.657 -0.2284  0.3055 -0.2476
  282TP3     H112665   0.231   0.941   7.644 -0.2668  0.8104  0.6161
  282TP3     H212666   0.355   0.893   7.572 -0.1907  4.3282 -1.8220
  283TP3      O12667   2.057   4.559   9.828 -0.4540  0.9903 -0.4501
  283TP3     H112668   2.040   4.472   9.866  0.7631  0.8174 -0.2695
  283TP3     H212669   2.012   4.557   9.743  1.4922 -0.7041 -1.5285
  284TP3      O12670   2.939   3.799   1.864 -0.1450  0.2809  0.3214
  284TP3     H112671   2.868   3.860   1.847  1.0074  1.2722 -1.2792
  284TP3     H212672   2.897   3.713   1.867 -1.2410  0.6117 -2.4874
  285TP3      O12673   4.297   1.456   2.531 -0.2404 -0.4770  0.4531
  285TP3     H112674   4.305   1.501   2.615  1.3035  0.5996 -0.2230
  285TP3     H212675   4.204   1.459   2.511 -0.5113  0.0202  1.7045
  286TP3      O12676   3.351   0.755   6.344  0.1790 -0.0911  0.1860
  286TP3     H112677   3.343   0.706   6.426  3.6888 -2.4011 -0.6616
  286TP3     H212678   3.395   0.837   6.369  1.8014 -1.0539  0.5638
  287TP3      O12679   2.079   2.112   2.725  0.1704  0.1347 -0.3211
  287TP3     H112680   2.123   2.193   2.701 -0.4114 -0.0662 -2.2070
  287TP3     H212681   2.125   2.083   2.804  0.6607  2.0494  0.1510
  288TP3      O12682   2.354   0.543   8.590  0.2019 -0.0487 -0.1713
  288TP3     H112683   2.324   0.469   8.643  3.9261 -1.4622  0.2077
  288TP3     H212684   2.347   0.619   8.649  0.7851 -0.9364  1.0749
  289TP3      O12685   3.497   0.115   8.476  0.0973  0.0991  0.5588
  289TP3     H112686   3.533   0.184   8.420  0.8204 -0.9227 -0.2861
  289TP3     H212687   3.402   0.123   8.467  0.1899 -0.8303 -1.8630
  290TP3      O12688   0.671   0.792   0.758  0.0032 -0.3849  0.3042
  290TP3     H112689   0.598   0.758   0.706 -1.3320 -0.0304  1.8528
  290TP3     H212690   0.683   0.728   0.828  2.5886 -1.4808 -1.0166
  291TP3      O12691   3.984   2.489   9.013  0.3098  0.1997  0.2019
  291TP3     H112692   4.063   2.540   8.999  1.8016 -1.2929  2.4324
  291TP3     H212693   3.969   2.444   8.929  1.0992  1.4235 -0.6232
  292TP3      O12694   3.750   3.854   1.399 -0.2719  0.5857 -0.1324
  292TP3     H112695   3.710   3.871   1.314  0.1325 -0.1307 -0.4784
  292TP3     H212696   3.799   3.933   1.420 -0.5199  0.8305 -0.4785
  293TP3      O12697   1.453   3.682   1.383 -0.1549 -0.5986  0.2774
  293TP3     H112698   1.426   3.594   1.357 -2.1830  0.0642  0.0085
  293TP3     H212699   1.544   3.689   1.352 -0.2662 -2.2526 -0.5318
  294TP3      O12700   0.472   3.561   1.362  0.3580  0.0734 -0.1610
  294TP3     H112701   0.381   3.540   1.343 -0.7892  1.1338  3.4715
  294TP3     H212702   0.484   3.650   1.328 -0.4638  0.5359  0.7394
  295TP3      O12703   2.936   0.539   8.269  0.1462 -0.1332  0.5373
  295TP3     H112704   2.843   0.520   8.260  0.2163  0.0656 -0.7715
  295TP3     H212705   2.948   0.624   8.227  0.7829  0.2528  1.4521
  296TP3      O12706   3.630   2.865   7.764  0.4947 -0.2315  0.6337
  296TP3     H112707   3.672   2.804   7.825  0.5532 -0.8307  0.0160
  296TP3     H212708   3.568   2.915   7.817  1.4067  0.0892  1.3965
  297TP3      O12709   1.067   2.615   0.889 -0.7612  0.2083  0.0690
  297TP3     H112710   1.044   2.544   0.829  1.1503 -1.2111  0.9076
  297TP3     H212711   1.140   2.659   0.846 -0.2484  0.0125  0.7253
  298TP3      O12712   0.759   3.804   9.078  0.1308  0.2484  0.4266
  298TP3     H112713   0.840   3.790   9.029  1.2438  0.4917  2.1177
  298TP3     H212714   0.742   3.898   9.070 -0.5133  0.0566 -0.6715
  299TP3      O12715   4.829   0.399   2.682  0.6195 -0.0363 -0.6113
  299TP3     H112716   4.743   0.381   2.642  0.4883  2.6941 -1.8397
  299TP3     H212717   4.811   0.469   2.744  1.7707 -0.3678  0.1111
  300TP3      O12718   2.276   2.787   8.067 -0.1623  0.1049 -0.3745
  300TP3     H112719   2.284   2.880   8.090  0.3167  0.2239 -0.9808
  300TP3     H212720   2.366   2.758   8.053 -0.1762 -0.8680  1.3035
  301TP3      O12721   4.541   1.251   9.606  0.3835 -0.3116  0.3984
  301TP3     H112722   4.484   1.259   9.530  1.0923 -0.1032 -0.1166
  301TP3     H212723   4.629   1.258   9.571  0.7298  2.8635  1.5276
  302TP3      O12724   1.474   0.943   1.643  0.6586 -0.2278 -0.0393
  302TP3     H112725   1.531   0.973   1.713 -0.5589  0.8923  0.5359
  302TP3     H212726   1.465   1.019   1.585  0.7011 -0.7647 -0.7677
  303TP3      O12727   4.909   3.766   8.826  0.3367  0.4369 -0.1409
  303TP3     H112728   4.995   3.799   8.801 -0.4842  2.1663 -0.8531
  303TP3     H212729   4.880   3.715   8.750  0.9685 -0.6993  0.3555
  304TP3      O12730   2.790   4.010   9.784  0.3507 -0.2323 -0.0411
  304TP3     H112731   2.805   4.075   9.852 -0.5847 -0.0582  0.0090
  304TP3     H212732   2.799   3.926   9.829 -0.9233 -0.1189  0.4687
  305TP3      O12733   1.022   2.295   7.583 -0.1418  0.6738 -0.0100
  305TP3     H112734   1.113   2.309   7.610 -0.7198  1.1159  1.8170
  305TP3     H212735   0.990   2.383   7.562 -0.1081  0.4958 -0.8380
  306TP3      O12736   4.160   3.237   9.616 -0.1449 -0.7035 -0.4090
  306TP3     H112737   4.183   3.197   9.700 -2.0894 -0.5427  0.2627
  306TP3     H212738   4.137   3.164   9.559 -0.3596 -0.7384 -0.2798
  307TP3      O12739   0.197   3.321   7.565  0.2088 -0.4131  0.5261
  307TP3     H112740   0.163   3.342   7.652 -0.1861  0.8338  0.0964
  307TP3     H212741   0.288   3.348   7.567  0.2452 -0.5408  0.6027
  308TP3      O12742   1.867   4.302   6.408 -0.1016 -0.7992  0.0676
  308TP3     H112743   1.955   4.332   6.384 -0.2999 -1.5237 -1.7281
  308TP3     H212744   1.810   4.375   6.385  0.0252 -0.1881  1.5666
  309TP3      O12745   1.027   5.153   2.579 -0.8037  0.1791 -0.6813
  309TP3     H112746   1.054   5.203   2.656 -0.0670 -2.1352  0.6914
  309TP3     H212747   0.955   5.202   2.541 -1.2654  1.3435  1.5766
  310TP3      O12748   1.147   5.199   2.121 -0.0073  0.1242  0.1066
  310TP3     H112749   1.175   5.124   2.069  1.1998  0.5984  0.0228
  310TP3     H212750   1.076   5.166   2.175 -0.1848 -0.8019 -0.6638
  311TP3      O12751   2.683   2.236   2.272  0.5356  0.2832 -0.0467
  311TP3     H112752   2.683   2.141   2.284 -2.0324  0.0642 -1.2096
  311TP3     H212753   2.607   2.267   2.321 -0.0724  1.4295 -1.6539
  312TP3      O12754   3.508   1.368   7.988 -0.2744 -0.1501  0.6257
  312TP3     H112755   3.482   1.282   8.021  0.0441 -0.2774  0.5449
  312TP3     H212756   3.438   1.392   7.927 -1.5837  0.6810  2.3573
  313TP3      O12757   3.926   2.795   8.944 -0.0121  0.2110  1.1919
  313TP3     H112758   3.854   2.835   8.993 -0.7541 -1.2256  1.3200
  313TP3     H212759   3.898   2.705   8.930  0.6289  0.3199 -1.0557
  314TP3      O12760   0.180   1.369   8.527 -0.5017  0.0599  0.1897
  314TP3     H112761   0.190   1.389   8.434 -1.5616 -0.2191  0.0080
  314TP3     H212762   0.126   1.441   8.561  1.9069  1.5330  1.1480
  315TP3      O12763   0.783   0.919   2.706 -0.1802  0.1444 -0.2635
  315TP3     H112764   0.804   0.977   2.634  0.5497  0.9575  0.5835
  315TP3     H212765   0.724   0.853   2.668  0.3410  0.4450 -1.6220
  316TP3      O12766   3.036   2.265   9.253 -0.2688  0.4570 -0.0812
  316TP3     H112767   3.082   2.319   9.317 -0.1193  0.5302 -0.2467
  316TP3     H212768   2.979   2.209   9.305  0.0940  0.2841  0.1387
  317TP3      O12769   3.939   0.857   2.675 -0.4972 -0.5563  0.0876
  317TP3     H112770   3.957   0.770   2.711 -2.3795 -1.1425 -0.2641
  317TP3     H212771   3.929   0.913   2.751 -2.6483 -1.4091  0.5076
  318TP3      O12772   3.487   0.075   6.826 -0.4386 -0.4743 -0.1795
  318TP3     H112773   3.578   0.048   6.814 -0.2569 -0.0642  0.2395
  318TP3     H212774   3.452   0.013   6.890 -0.1045  0.1004  0.5670
  319TP3      O12775   3.817   0.245   2.924 -0.3409 -0.2132  0.1755
  319TP3     H112776   3.778   0.323   2.964 -0.6730 -0.5532  0.5201
  319TP3     H212777   3.769   0.172   2.963  0.1651 -0.6040  0.0641
  320TP3      O12778   4.106   0.798   7.034 -0.2129 -0.0242  0.0103
  320TP3     H112779   4.021   0.839   7.051 -0.1655  0.6656 -1.2561
  320TP3     H212780   4.087   0.729   6.970  0.0827 -0.3599  0.2772
  321TP3      O12781   0.934   0.297   1.524  0.2619  0.5294  0.3587
  321TP3     H112782   0.896   0.217   1.489 -1.8371  1.6424 -0.0728
  321TP3     H212783   1.001   0.267   1.585 -0.3172 -1.5457  0.0477
  322TP3      O12784   2.322   1.019   9.795  0.6313  0.0216 -0.3563
  322TP3     H112785   2.397   0.964   9.814 -0.0585 -0.8291 -0.0333
  322TP3     H212786   2.335   1.098   9.847 -0.1199 -1.3246  2.0232
  323TP3      O12787   1.966   0.781   8.883  0.5404  0.1109  0.3841
  323TP3     H112788   1.964   0.866   8.926 -0.4566  0.4274 -0.2389
  323TP3     H212789   1.874   0.761   8.866  0.8632  1.0278 -3.4936
  324TP3      O12790   2.670   0.212   8.097  0.1388  0.0503  0.0320
  324TP3     H112791   2.718   0.282   8.139 -1.0983  0.8711  0.1236
  324TP3     H212792   2.682   0.227   8.003  0.7750 -0.2682  0.0596
  325TP3      O12793   2.054   3.673   9.186  0.2518  0.2540  0.5458
  325TP3     H112794   2.145   3.644   9.176 -0.1126 -1.3745  1.5852
  325TP3     H212795   2.008   3.596   9.218 -1.9309  0.4482 -1.8146
  326TP3      O12796   4.195   0.846   2.486 -0.1949 -0.6265  0.1964
  326TP3     H112797   4.125   0.885   2.539 -0.2533 -0.0859 -0.2718
  326TP3     H212798   4.151   0.781   2.431 -0.5224  0.4462 -0.8582
  327TP3      O12799   1.113   0.401   0.164  0.2149  0.1719 -0.3078
  327TP3     H112800   1.176   0.380   0.096 -0.6536 -0.8427 -0.8274
  327TP3     H212801   1.129   0.337   0.233  1.0881  1.1901  0.4882
  328TP3      O12802   3.239   0.171   9.415  0.5261 -0.1079  0.3541
  328TP3     H112803   3.291   0.251   9.425  0.6124  0.1765 -1.8788
  328TP3     H212804   3.295   0.113   9.363 -0.5428 -0.6373 -0.2314
  329TP3      O12805   0.253   0.267   1.766  0.3048  0.8038 -0.0997
  329TP3     H112806   0.190   0.206   1.727  3.0824 -2.2050 -0.3864
  329TP3     H212807   0.272   0.330   1.697 -1.7111  1.2943 -0.2644
  330TP3      O12808   1.182   1.017   9.315  0.2421 -0.3242  0.3251
  330TP3     H112809   1.166   1.032   9.222  1.8258 -0.7230 -0.0445
  330TP3     H212810   1.138   0.934   9.334  0.3026 -0.4780 -0.1922
  331TP3      O12811   1.662   0.710   2.068 -0.3661  0.1335 -0.6385
  331TP3     H112812   1.599   0.779   2.047 -1.1829 -0.4173 -0.0421
  331TP3     H212813   1.718   0.705   1.990  0.8776  2.7003  0.0193
  332TP3      O12814   1.693   0.145   0.133 -0.0501 -0.3530  0.2773
  332TP3     H112815   1.679   0.104   0.048  1.3906  0.5086 -0.4025
  332TP3     H212816   1.722   0.073   0.190  1.5958 -0.4769 -0.6687
  333TP3      O12817   4.591   3.362   9.713  0.4837  0.3050 -0.6188
  333TP3     H112818   4.559   3.272   9.720 -2.3352  1.2179 -0.5565
  333TP3     H212819   4.613   3.386   9.803 -1.4475  0.5227 -0.1573
  334TP3      O12820   4.734   0.558   9.722 -0.5919  0.3653  0.1701
  334TP3     H112821   4.710   0.467   9.737 -0.1705  0.4294  1.3620
  334TP3     H212822   4.651   0.605   9.722 -0.6708  0.2876  1.9960
  335TP3      O12823   1.421   5.182   0.790  0.0655  0.3943 -0.0130
  335TP3     H112824   1.391   5.229   0.868  2.6413  0.1812  1.2448
  335TP3     H212825   1.434   5.250   0.724 -2.3587  0.5560 -0.3991
  336TP3      O12826   3.683   0.335   3.435 -0.1675  0.0940 -0.2219
  336TP3     H112827   3.594   0.326   3.404  0.2179 -0.6508 -1.1645
  336TP3     H212828   3.733   0.271   3.384  1.1029  1.2838 -0.5235
  337TP3      O12829   1.631   4.197   2.257  0.4848 -0.1295  0.1179
  337TP3     H112830   1.631   4.183   2.162  2.9194  0.6519 -0.0733
  337TP3     H212831   1.539   4.208   2.279 -0.2166 -1.1169 -2.0203
  338TP3      O12832   3.573   3.423   1.611 -0.0358 -0.2049  0.3090
  338TP3     H112833   3.658   3.461   1.633 -0.7979  2.3154 -0.7804
  338TP3     H212834   3.549   3.463   1.528 -1.3508 -2.5326 -0.5397
  339TP3      O12835   0.787   4.137   3.531 -0.2907  0.0682 -0.4380
  339TP3     H112836   0.823   4.225   3.520  1.2861 -0.3901  0.6896
  339TP3     H212837   0.704   4.151   3.577  0.4910  0.9212  0.7887
  340TP3      O12838   3.880   3.030   2.132 -0.6730 -0.1440  0.1551
  340TP3     H112839   3.888   3.083   2.212  0.1332 -0.9537  0.6261
  340TP3     H212840   3.918   3.086   2.064 -1.0485  0.4180  0.3962
  341TP3      O12841   0.216   1.872   0.021  0.3241  0.1948 -0.1101
  341TP3     H112842   0.279   1.934  -0.014  0.3467  0.2352  0.0012
  341TP3     H212843   0.213   1.892   0.115 -1.7957  1.9815 -0.4758
  342TP3      O12844   0.963   4.991   7.901  0.4438 -0.7728  0.1970
  342TP3     H112845   0.966   4.897   7.888 -1.5017 -0.7778 -0.4361
  342TP3     H212846   0.893   5.022   7.844  0.9085  1.0499  0.5202
  343TP3      O12847   2.904   2.802   8.845 -0.4699  0.2037  0.4120
  343TP3     H112848   2.885   2.810   8.938  0.6712  0.7306  0.6088
  343TP3     H212849   2.899   2.707   8.828 -3.0196  0.2437  0.4542
  344TP3      O12850   4.437   1.917   2.153 -0.3828 -0.4162  0.1399
  344TP3     H112851   4.532   1.923   2.167 -0.2527 -0.3490 -0.7162
  344TP3     H212852   4.424   1.950   2.064 -1.2116 -0.4337  0.2478
  345TP3      O12853   0.458   2.413   0.294 -0.0661 -0.0039 -0.1032
  345TP3     H112854   0.396   2.340   0.302 -0.4138  0.2073 -0.7797
  345TP3     H212855   0.488   2.408   0.203  0.6424  0.1157  0.1191
  346TP3      O12856   4.429   1.276  10.044 -0.5672 -0.0839  0.0546
  346TP3     H112857   4.386   1.290  10.129 -0.8053  1.5821 -0.3096
  346TP3     H212858   4.488   1.202  10.059  0.5058  1.0986  2.1104
  347TP3      O12859   3.715   3.122   7.998  0.3499  0.6020  0.1169
  347TP3     H112860   3.747   3.131   8.088 -0.3276  0.7485  0.3462
  347TP3     H212861   3.736   3.032   7.974 -1.4385 -0.1340  1.2059
  348TP3      O12862   3.077   0.663   9.877 -0.4516 -0.6266 -0.3251
  348TP3     H112863   3.047   0.720   9.807 -0.1162 -0.5917 -0.4429
  348TP3     H212864   3.170   0.649   9.859  0.0531  0.6842  0.9799
  349TP3      O12865   2.622   4.281   9.517 -0.2492  0.1389 -0.3844
  349TP3     H112866   2.690   4.221   9.486  0.4221  0.0700  1.1677
  349TP3     H212867   2.626   4.275   9.612 -1.4799  1.2140 -0.2446
  350TP3      O12868   3.460   4.615   2.243 -0.4447  0.3740  0.1138
  350TP3     H112869   3.481   4.697   2.286 -0.9497  0.2470  0.6055
  350TP3     H212870   3.366   4.604   2.255 -0.0992 -1.2316  1.7728
  351TP3      O12871   1.346   2.390   2.160 -0.0830 -0.1623  0.2474
  351TP3     H112872   1.438   2.404   2.183 -0.3844  2.2330  0.3233
  351TP3     H212873   1.316   2.324   2.222  0.6080  1.9634  3.0863
  352TP3      O12874   4.331   5.153   2.590  0.4887  0.0806  0.5105
  352TP3     H112875   4.237   5.136   2.594  0.6255 -0.4726  1.9872
  352TP3     H212876   4.368   5.074   2.548  0.5907 -1.1835  2.8226
  353TP3      O12877   2.015   1.674   7.798  0.4727  0.0770  0.7186
  353TP3     H112878   2.091   1.690   7.853 -1.0924  1.9165  2.4891
  353TP3     H212879   1.942   1.662   7.859 -0.9615 -0.0608 -0.9238
  354TP3      O12880   4.990   3.786   7.831 -0.6398 -0.0698 -0.2728
  354TP3     H112881   5.031   3.707   7.868 -1.2968 -0.2426  0.0999
  354TP3     H212882   4.911   3.754   7.788  1.0460 -0.1743 -3.6431
  355TP3      O12883   1.429   0.833   8.756 -0.5231  0.5653 -0.5327
  355TP3     H112884   1.371   0.758   8.741 -0.8877  0.8884 -0.7480
  355TP3     H212885   1.473   0.846   8.673 -0.5622  0.6786 -0.5352
  356TP3      O12886   0.071   4.430   9.584  0.0266 -0.0531  0.0232
  356TP3     H112887   0.163   4.453   9.574 -0.3380  1.3760 -0.3013
  356TP3     H212888   0.024   4.496   9.533 -1.2585  0.1633  1.4013
  357TP3      O12889   0.447   3.636   9.559  0.4484  0.3428 -0.3012
  357TP3     H112890   0.505   3.561   9.561 -2.8310 -2.4821 -0.8795
  357TP3     H212891   0.426   3.648   9.467 -2.0935 -0.7690  0.0421
  358TP3      O12892   2.084   1.970   9.669 -0.1906  0.0977 -0.3900
  358TP3     H112893   2.107   2.001   9.581 -0.9561 -0.8493 -0.9441
  358TP3     H212894   2.131   1.887   9.678  1.1371  0.9232  0.7367
  359TP3      O12895   3.908   2.631   1.083  0.2183 -0.0764  0.3518
  359TP3     H112896   3.883   2.663   1.170  0.9668 -1.7785  1.2439
  359TP3     H212897   4.003   2.617   1.089 -0.2374 -4.1699  0.7150
  360TP3      O12898   4.594   3.881   0.421 -0.2729  0.1080  0.6276
  360TP3     H112899   4.625   3.959   0.374  0.8087 -0.2695  0.6900
  360TP3     H212900   4.563   3.822   0.351 -0.1394  0.1801  0.5073
  361TP3      O12901   0.606   0.289   1.602 -0.5437 -0.4317  0.2471
  361TP3     H112902   0.665   0.250   1.538  0.0181 -0.8428  0.9907
  361TP3     H212903   0.661   0.351   1.651 -0.8466 -0.4417  0.6098
  362TP3      O12904   0.732   4.117   6.431 -0.0862  0.2158 -0.3182
  362TP3     H112905   0.820   4.128   6.467 -0.5145  1.7929  0.3206
  362TP3     H212906   0.691   4.053   6.488  1.5833 -3.0132 -2.4524
  363TP3      O12907   3.747   4.286   9.638 -0.7522 -0.2941  0.0220
  363TP3     H112908   3.842   4.301   9.640 -0.7854 -0.1402  0.3874
  363TP3     H212909   3.719   4.324   9.554 -0.3003 -1.4927 -0.6966
  364TP3      O12910   2.133   4.089   9.981  0.0568 -0.1389  0.5279
  364TP3     H112911   2.141   3.994   9.970  0.2415 -0.4050  2.5549
  364TP3     H212912   2.123   4.123   9.892 -1.6768 -2.1968 -0.1421
  365TP3      O12913   0.138   2.394   1.826  0.3354 -0.0656 -0.1206
  365TP3     H112914   0.136   2.369   1.919 -0.4029 -0.3206 -0.2023
  365TP3     H212915   0.092   2.324   1.781  1.0335 -0.1400 -0.7407
  366TP3      O12916   4.015   1.094   1.167  0.5055  0.0267 -0.2824
  366TP3     H112917   4.016   1.150   1.089  1.9430  0.8330  0.2791
  366TP3     H212918   4.104   1.061   1.174 -0.1290 -1.7505 -0.1542
  367TP3      O12919   2.905   1.248   1.835 -0.8010 -0.2132 -0.1901
  367TP3     H112920   2.953   1.167   1.818  0.0048 -0.3313  2.2525
  367TP3     H212921   2.922   1.302   1.758  0.6378 -1.4601 -0.8068
  368TP3      O12922   3.658   2.069   2.693 -0.2012 -0.5626  0.2172
  368TP3     H112923   3.690   2.025   2.615 -0.5174 -0.4956  0.0473
  368TP3     H212924   3.725   2.052   2.760  0.0336 -0.6768 -0.0477
  369TP3      O12925   2.589   3.560   7.220 -0.8888  0.3606  0.0964
  369TP3     H112926   2.503   3.599   7.203  0.0449  1.0514 -4.3309
  369TP3     H212927   2.575   3.466   7.207 -0.7525  0.6423 -2.7641
  370TP3      O12928   2.161   3.371   7.177 -0.0477  0.3120 -0.7095
  370TP3     H112929   2.101   3.317   7.228  0.8610 -0.3995 -0.3800
  370TP3     H212930   2.248   3.338   7.197  0.5272  1.7452 -0.6896
  371TP3      O12931   4.516   1.002   9.705 -0.0749 -0.2383 -0.2174
  371TP3     H112932   4.504   1.089   9.668  2.9228 -0.1273 -1.1835
  371TP3     H212933   4.552   1.018   9.792  1.1287 -0.4869 -0.6591
  372TP3      O12934   0.027   2.503   6.491  0.1204 -0.7180 -0.1688
  372TP3     H112935   0.054   2.455   6.568  1.1237  1.7344  1.1331
  372TP3     H212936  -0.067   2.491   6.486 -0.0535 -0.4521  1.8152
  373TP3      O12937   5.170   3.493   8.122  0.5453 -0.3629  0.3701
  373TP3     H112938   5.214   3.571   8.155 -0.0424 -0.4175  1.3241
  373TP3     H212939   5.119   3.461   8.197 -1.9116  0.2522 -0.9317
  374TP3      O12940   0.742   2.343   0.090 -0.3419 -0.4356 -0.6932
  374TP3     H112941   0.793   2.266   0.116 -0.5086 -0.5167 -0.6023
  374TP3     H212942   0.796   2.386   0.024  1.3568  1.2651  1.6624
  375TP3      O12943   3.708   0.919   7.513 -0.1520  0.6083 -0.3928
  375TP3     H112944   3.617   0.892   7.498 -0.5538 -0.3946  3.0949
  375TP3     H212945   3.746   0.849   7.566  2.2733  1.6645 -0.6082
  376TP3      O12946   2.959   2.270   8.839 -0.5162  0.2094  0.4399
  376TP3     H112947   2.996   2.230   8.760  0.1746  2.7667 -0.6490
  376TP3     H212948   2.948   2.198   8.900  2.2620 -1.3655 -0.7540
  377TP3      O12949   1.983   1.604   2.344 -0.1684  0.1258  0.0683
  377TP3     H112950   1.949   1.536   2.286 -1.6540  0.3629  0.6095
  377TP3     H212951   1.912   1.619   2.406  1.5942 -0.5479  2.3435
  378TP3      O12952   0.576   5.253   9.931 -0.3606 -0.4531  0.1912
  378TP3     H112953   0.618   5.175   9.895  0.5350 -0.7143  1.7048
  378TP3     H212954   0.488   5.224   9.954 -0.8025 -0.3936 -1.3005
  379TP3      O12955   2.241   0.984   6.888 -0.5012  0.2298  0.1781
  379TP3     H112956   2.330   0.984   6.922 -0.8716  0.4342  1.2060
  379TP3     H212957   2.186   0.981   6.966 -1.4257  2.0934 -0.3445
  380TP3      O12958   2.348   1.945   2.875 -0.8829 -0.4850  0.4215
  380TP3     H112959   2.365   1.908   2.788 -0.7957  0.5847 -0.0370
  380TP3     H212960   2.410   1.901   2.932  0.4362  0.1842 -0.4339
  381TP3      O12961   1.819   3.775   9.415 -0.0571 -0.2301  0.0486
  381TP3     H112962   1.891   3.815   9.366 -0.4177  0.4773  0.0821
  381TP3     H212963   1.809   3.832   9.492 -1.3808  0.3455 -0.5083
  382TP3      O12964   0.848   1.850   8.391  0.2409  0.1502  0.3391
  382TP3     H112965   0.861   1.756   8.405  3.7754  0.6630  1.4952
  382TP3     H212966   0.820   1.857   8.300  0.1982 -2.0055  0.1297
  383TP3      O12967   3.882   2.721   9.997 -0.0513  0.0576 -0.3177
  383TP3     H112968   3.813   2.786   9.980 -0.6367 -0.4070  0.2222
  383TP3     H212969   3.837   2.651  10.043  0.8199 -0.2033  0.1495
  384TP3      O12970   1.461   3.020   6.736 -0.1144  0.4368  0.4640
  384TP3     H112971   1.393   3.007   6.669 -0.3259  1.3828  0.4863
  384TP3     H212972   1.442   2.953   6.802 -0.0402 -0.3581 -0.3069
  385TP3      O12973   5.239   3.335   9.147  0.2252 -0.0916 -0.3154
  385TP3     H112974   5.294   3.295   9.080  1.6470  0.2853  0.5844
  385TP3     H212975   5.277   3.306   9.230  0.2617  1.7387  0.3474
  386TP3      O12976   2.636   2.380   7.322 -0.1307  0.1634 -0.1522
  386TP3     H112977   2.547   2.350   7.305 -1.2050  2.4703  0.9241
  386TP3     H212978   2.687   2.300   7.336 -2.4051 -1.1663  0.9543
  387TP3      O12979   2.065   0.298   7.388  0.1279 -0.8206 -0.1425
  387TP3     H112980   1.999   0.278   7.322  0.1802  2.1670 -1.2541
  387TP3     H212981   2.084   0.391   7.376  1.5605 -0.5936  2.8575
  388TP3      O12982   3.775   2.251   9.612 -0.0163  0.1663 -0.2290
  388TP3     H112983   3.866   2.231   9.590  1.0818  1.7712  2.3248
  388TP3     H212984   3.761   2.340   9.581 -0.7480 -0.0864 -0.6474
  389TP3      O12985   0.893   2.030   7.758 -0.0646 -0.4800 -0.9205
  389TP3     H112986   0.928   2.102   7.811  1.6043 -1.0313 -1.2241
  389TP3     H212987   0.970   1.986   7.723 -1.0798 -1.7748 -1.6218
  390TP3      O12988   5.036   0.795   8.691 -0.1493 -0.0277 -0.4947
  390TP3     H112989   5.034   0.785   8.596 -0.4686  0.0554 -0.4968
  390TP3     H212990   5.048   0.706   8.725 -1.0546 -0.1861 -0.5774
  391TP3      O12991   0.150   3.118   6.454  0.3276  0.0072  0.4639
  391TP3     H112992   0.217   3.143   6.390  0.6806 -0.9305  0.4509
  391TP3     H212993   0.107   3.043   6.414 -0.0856  0.0101  0.9088
  392TP3      O12994   0.871   3.369   0.042  0.2238  0.1605  0.3692
  392TP3     H112995   0.942   3.305   0.040  0.6563  0.5593  1.8054
  392TP3     H212996   0.815   3.341   0.114 -1.5115 -0.5526 -1.1941
  393TP3      O12997   2.152   1.624   7.165 -0.2127  0.1190 -0.0874
  393TP3     H112998   2.164   1.662   7.078 -1.1347 -1.4973 -0.9812
  393TP3     H212999   2.061   1.643   7.188 -0.4669 -0.8268 -0.2307
  394TP3      O13000   1.834   4.385   2.122 -0.2471 -0.1458 -0.0436
  394TP3     H113001   1.765   4.344   2.068  0.1480 -1.2139  0.2372
  394TP3     H213002   1.807   4.367   2.212 -0.3308  0.6729  0.0988
  395TP3      O13003   5.054   4.238   6.869  0.2748  0.0621 -0.3672
  395TP3     H113004   5.074   4.168   6.807  0.9924  0.3448 -0.4723
  395TP3     H213005   4.972   4.275   6.839  1.3139  1.1487 -2.0415
  396TP3      O13006   4.816   5.227   2.080 -0.3240 -0.0435  0.2848
  396TP3     H113007   4.889   5.252   2.138  0.1161 -1.3491  0.3348
  396TP3     H213008   4.758   5.176   2.136  0.2334 -1.5463 -0.4420
  397TP3      O13009   0.955   0.967   7.630 -0.5376 -0.4793  0.7411
  397TP3     H113010   0.941   1.007   7.716 -1.7622 -0.9951  0.7912
  397TP3     H213011   1.043   0.996   7.605 -0.5922  0.5700  1.6797
  398TP3      O13012   5.282   4.259   8.870 -0.1177 -0.3674 -0.1764
  398TP3     H113013   5.214   4.238   8.934  1.1031 -0.3584  1.2058
  398TP3     H213014   5.333   4.179   8.861 -0.6759 -0.5733 -1.7052
  399TP3      O13015   5.078   2.899   8.075  0.3538  0.0921  0.9904
  399TP3     H113016   5.166   2.888   8.111 -0.0829  0.3104  2.1655
  399TP3     H213017   5.050   2.985   8.107 -0.3305 -0.0296  0.7270
  400TP3      O13018   4.122   0.624   9.301 -0.1163 -0.2259  0.1950
  400TP3     H113019   4.161   0.573   9.230 -1.2306 -0.1803 -0.4650
  400TP3     H213020   4.070   0.560   9.350  0.2503 -0.1558  0.6832
  401TP3      O13021   2.628   4.402   2.198  0.0164 -0.1712 -0.4462
  401TP3     H113022   2.720   4.386   2.218 -0.6772 -2.3038  1.3026
  401TP3     H213023   2.587   4.420   2.282 -1.7290 -2.5365 -0.6751
  402TP3      O13024   0.700   4.286   7.059  0.2076  0.7944 -0.7056
  402TP3     H113025   0.700   4.280   7.154  2.7147 -0.1789 -0.6788
  402TP3     H213026   0.661   4.204   7.029  2.0622 -0.2581 -0.4301
  403TP3      O13027   2.540   0.074   8.269  0.1101  0.0106  0.2378
  403TP3     H113028   2.607   0.043   8.330  0.2466 -2.9258 -1.2571
  403TP3     H213029   2.589   0.125   8.204  0.6899 -0.8716 -0.0286
  404TP3      O13030   5.184   1.526   0.990  0.2082  0.8796  0.2102
  404TP3     H113031   5.173   1.499   0.899  2.6978  0.0558  0.0611
  404TP3     H213032   5.144   1.455   1.041 -1.1445  1.3156 -0.2065
  405TP3      O13033   2.845   3.004   7.999  0.1282  0.1710  0.2770
  405TP3     H113034   2.754   3.029   8.011 -0.2328  0.0347 -1.8833
  405TP3     H213035   2.858   3.003   7.905  2.3460  0.0628  0.5291
  406TP3      O13036   4.986   1.390   2.326 -0.1236  0.1350 -0.1723
  406TP3     H113037   4.985   1.314   2.385 -0.1837  1.4682  1.6406
  406TP3     H213038   4.944   1.459   2.377 -0.5979  1.2426 -2.0048
  407TP3      O13039   2.435   1.085   8.666  0.2621 -0.0268 -0.5873
  407TP3     H113040   2.348   1.111   8.634 -0.6887  0.5520  2.1565
  407TP3     H213041   2.421   0.996   8.700  0.6346  0.1954  0.1604
  408TP3      O13042   1.635   3.588   9.353  0.5659 -0.4347 -0.5078
  408TP3     H113043   1.670   3.502   9.375 -0.8930 -0.4036  2.4438
  408TP3     H213044   1.710   3.647   9.358  0.8658 -0.9197  1.9453
  409TP3      O13045   2.825   0.566   7.663  0.5794  0.2081  0.2315
  409TP3     H113046   2.911   0.561   7.704  0.6568  0.9511  0.1577
  409TP3     H213047   2.827   0.645   7.610  0.3225 -0.4883 -0.8590
  410TP3      O13048   3.639   2.427   7.655 -0.1098  0.1489 -0.4949
  410TP3     H113049   3.605   2.360   7.714  1.1123  1.2123  1.5381
  410TP3     H213050   3.560   2.464   7.614 -1.2280  0.6456  1.9253
  411TP3      O13051   0.094   4.927   9.296  0.4890  0.5826  0.1295
  411TP3     H113052   0.021   4.902   9.240  0.5578 -1.7827  0.9880
  411TP3     H213053   0.156   4.971   9.237  0.3549 -1.3708 -1.5726
  412TP3      O13054   0.136   2.861   7.091 -0.2954 -0.3409  0.2069
  412TP3     H113055   0.142   2.765   7.091  2.0012 -0.2426  0.9109
  412TP3     H213056   0.042   2.878   7.103 -1.2681 -2.4564 -2.9441
  413TP3      O13057   0.177   1.201   8.790  0.5319  0.1088  0.1865
  413TP3     H113058   0.185   1.286   8.833 -1.4132  0.3527  0.1814
  413TP3     H213059   0.185   1.221   8.696  2.9888 -0.1729  0.2791
  414TP3      O13060   2.267   2.610   8.337  0.0863 -0.0377  0.1870
  414TP3     H113061   2.254   2.642   8.248 -0.1482 -0.8328 -0.0775
  414TP3     H213062   2.182   2.575   8.363  0.2061 -0.0008  0.6447
  415TP3      O13063   4.993   3.825   9.120  0.1006  0.1038  0.4444
  415TP3     H113064   4.939   3.763   9.169  0.0073  0.5324  0.8990
  415TP3     H213065   4.970   3.810   9.028  0.5267 -0.9530  0.4937
  416TP3      O13066   4.089   3.620   2.826  0.0663 -0.4596 -0.0286
  416TP3     H113067   4.006   3.596   2.867  0.5360 -2.5794 -0.2262
  416TP3     H213068   4.075   3.604   2.733  0.9681 -1.7418  0.0382
  417TP3      O13069   3.000   0.265   0.042  0.0251  0.3067 -0.1388
  417TP3     H113070   2.988   0.345   0.093  0.0629  0.0254  0.3155
  417TP3     H213071   3.086   0.232   0.070  0.3909  0.5497 -0.9379
  418TP3      O13072   5.230   2.213   8.497 -0.1988  0.4930  0.4091
  418TP3     H113073   5.295   2.280   8.519 -0.2074  1.4768 -2.1675
  418TP3     H213074   5.157   2.229   8.557  0.8681  1.0855  1.5763
  419TP3      O13075   4.766   3.314   3.139 -0.9408  0.8054 -1.3197
  419TP3     H113076   4.807   3.379   3.196 -1.4341  1.0742 -1.2712
  419TP3     H213077   4.704   3.268   3.195  0.2399 -0.5333 -1.0371
  420TP3      O13078   4.765   4.432   1.366 -0.4226  0.1817  0.2152
  420TP3     H113079   4.746   4.473   1.281  0.1794 -0.4446 -0.2318
  420TP3     H213080   4.858   4.450   1.381 -0.1562 -0.9567  0.0286
  421TP3      O13081   1.719   4.016   3.201 -0.6006 -0.0695  0.2296
  421TP3     H113082   1.774   4.054   3.133 -0.2150 -0.7846  0.1253
  421TP3     H213083   1.645   3.978   3.154 -1.9980  2.1894  0.4903
  422TP3      O13084   0.223   2.241   0.058 -0.6800 -0.0870  0.1052
  422TP3     H113085   0.278   2.312   0.091  0.3606  0.0499 -1.7620
  422TP3     H213086   0.139   2.283   0.038 -0.1828  0.5625 -0.6697
  423TP3      O13087   2.940   3.075   8.308 -0.2841  0.2034  0.7413
  423TP3     H113088   3.003   3.023   8.258  0.8061  0.9481  1.3283
  423TP3     H213089   2.908   3.015   8.375 -1.1579 -0.5574 -0.3016
  424TP3      O13090   3.750   0.206   9.747 -0.3031  0.3601 -0.1236
  424TP3     H113091   3.811   0.247   9.809 -1.0007  0.2590  0.6407
  424TP3     H213092   3.707   0.137   9.798 -0.9923  0.3745 -0.6768
  425TP3      O13093   4.644   4.839   2.227 -0.0098  0.3318 -0.7854
  425TP3     H113094   4.738   4.839   2.244  0.1091  0.7554 -1.3751
  425TP3     H213095   4.619   4.747   2.225  0.7950  0.1114 -2.6568
  426TP3      O13096   4.087   0.204   7.939 -0.4601 -0.2617 -0.0597
  426TP3     H113097   4.131   0.289   7.944 -1.4799  0.2084  2.6119
  426TP3     H213098   4.146   0.143   7.984 -0.7251 -0.4921 -0.0194
  427TP3      O13099   4.393   1.101   0.212 -0.2885  0.3521  0.3876
  427TP3     H113100   4.410   1.074   0.302 -1.8151  0.3908  0.7034
  427TP3     H213101   4.479   1.130   0.179  0.7259 -1.6185  1.1360
  428TP3      O13102   0.109   2.377   9.230 -0.0081 -0.0785 -0.3674
  428TP3     H113103   0.195   2.364   9.270 -0.2488 -1.5147 -0.2851
  428TP3     H213104   0.060   2.299   9.252 -0.7733 -0.0702 -1.8936
  429TP3      O13105   0.693   1.879   9.132  0.0086  0.7014 -0.0219
  429TP3     H113106   0.652   1.917   9.054  2.8989  0.8073 -1.6040
  429TP3     H213107   0.687   1.784   9.118 -0.3831  0.6979  0.1530
  430TP3      O13108   2.208   1.688   0.853 -0.0014  0.2917  0.1519
  430TP3     H113109   2.219   1.657   0.943  2.7829  1.5745  0.3531
  430TP3     H213110   2.116   1.713   0.848 -0.3432 -0.2439  2.4958
  431TP3      O13111   2.317   2.513   6.909 -0.3938  0.4966 -0.3663
  431TP3     H113112   2.339   2.461   6.987 -0.7794 -1.5434 -1.5374
  431TP3     H213113   2.367   2.593   6.919  0.6354 -0.2911  1.3174
  432TP3      O13114   4.614   2.238   3.178 -0.1010  0.5061 -0.1562
  432TP3     H113115   4.538   2.240   3.236  1.0907 -0.7311  1.5230
  432TP3     H213116   4.648   2.327   3.181  0.0888  0.4082  1.2801
  433TP3      O13117   2.296   0.843   0.458  0.2919  0.1973 -0.3547
  433TP3     H113118   2.310   0.794   0.377  1.7536  0.5107 -0.3050
  433TP3     H213119   2.270   0.777   0.522  0.2477 -0.2162 -0.7961
  434TP3      O13120   3.394   2.386   8.027  0.0946 -0.1153 -0.1449
  434TP3     H113121   3.341   2.447   7.977  0.5178  0.2132 -0.1988
  434TP3     H213122   3.379   2.410   8.118 -0.4497 -0.5251 -0.1239
  435TP3      O13123   4.074   4.328   1.060 -0.1534 -0.5491 -0.4411
  435TP3     H113124   4.133   4.269   1.107 -1.1565  0.0385  1.6369
  435TP3     H213125   4.132   4.387   1.013  0.8908 -1.0925  0.1220
  436TP3      O13126   4.615   1.606   2.414  0.3705  0.4558 -0.2711
  436TP3     H113127   4.571   1.668   2.472  1.5469  1.7802 -0.7281
  436TP3     H213128   4.546   1.578   2.353 -0.2246  1.2006  0.0337
  437TP3      O13129   1.547   2.212   9.455 -0.4903  0.1399  0.1456
  437TP3     H113130   1.604   2.208   9.378 -2.0078 -0.2288 -0.9927
  437TP3     H213131   1.530   2.120   9.477 -1.1393  0.2437  0.0966
  438TP3      O13132   0.298   4.629   1.803 -0.0848 -0.0212  0.0651
  438TP3     H113133   0.289   4.630   1.898 -0.7747  0.9959  0.0042
  438TP3     H213134   0.383   4.587   1.787 -0.3443 -0.9838  1.0871
  439TP3      O13135   3.931   3.793   8.439  0.4241 -0.3781 -0.1593
  439TP3     H113136   3.841   3.824   8.430  0.4413 -0.9103 -3.4382
  439TP3     H213137   3.985   3.863   8.402  1.1312 -1.0475 -0.4220
  440TP3      O13138   1.780   4.886   0.394 -0.0833 -0.3941 -0.2352
  440TP3     H113139   1.747   4.805   0.358 -0.2326 -0.6950  0.5513
  440TP3     H213140   1.805   4.864   0.484  1.3212  0.0545 -0.4904
  441TP3      O13141   4.898   2.044   0.986  0.1357 -0.1909 -0.1841
  441TP3     H113142   4.890   1.979   1.056 -1.3441  0.0980 -0.0473
  441TP3     H213143   4.951   2.114   1.025 -0.8209  0.0527  0.7334
  442TP3      O13144   0.351   3.406   0.030  0.3809  0.0630 -0.0787
  442TP3     H113145   0.266   3.415   0.075 -0.4006 -2.5558 -0.8914
  442TP3     H213146   0.409   3.465   0.078 -1.6728  1.2933  1.0511
  443TP3      O13147   1.975   4.515   8.416  0.1131 -0.4445  0.3443
  443TP3     H113148   1.934   4.520   8.502 -0.8741  0.1997 -0.1409
  443TP3     H213149   1.972   4.605   8.383 -0.8184 -0.9203 -0.9350
  444TP3      O13150   0.558   2.999   9.153  0.2645 -0.4188 -0.0206
  444TP3     H113151   0.537   3.092   9.146  1.4645 -0.0961  0.4379
  444TP3     H213152   0.574   2.970   9.063 -2.6787 -0.8541 -0.4899
  445TP3      O13153   4.056   4.740   8.632 -0.5904 -0.4360  0.4608
  445TP3     H113154   3.979   4.727   8.576 -2.1688  1.2314  2.0967
  445TP3     H213155   4.083   4.830   8.615  0.0031 -0.4833  1.0933
  446TP3      O13156   3.415   4.812   0.302  0.0452 -0.2126 -0.2577
  446TP3     H113157   3.370   4.737   0.341 -0.7967  0.3393 -0.1481
  446TP3     H213158   3.350   4.882   0.303  1.0173  0.7033  0.1919
  447TP3      O13159   1.158   2.464   1.958 -0.4624  0.4000 -0.1838
  447TP3     H113160   1.196   2.538   1.910  0.7929 -0.2532 -0.2420
  447TP3     H213161   1.233   2.419   1.997 -1.2848 -0.2833  0.6750
  448TP3      O13162   2.588   3.584   1.993 -0.0537  0.1988  0.6477
  448TP3     H113163   2.569   3.530   1.917  1.2068  0.9411 -0.2330
  448TP3     H213164   2.683   3.597   1.990 -0.0143  0.4831  2.1901
  449TP3      O13165   0.749   4.944   7.363  0.7115  0.0313 -0.1316
  449TP3     H113166   0.777   4.972   7.276  0.6644 -0.8509 -0.4476
  449TP3     H213167   0.696   4.865   7.346  0.4500  0.0314  0.6703
  450TP3      O13168   3.534   1.222   0.576 -0.2383  0.1331  0.1945
  450TP3     H113169   3.536   1.224   0.480  2.6320  0.9210  0.1716
  450TP3     H213170   3.470   1.289   0.600 -0.7034  0.2142 -1.1737
  451TP3      O13171   3.866   1.262   9.262 -0.1688  0.2611  0.1403
  451TP3     H113172   3.952   1.248   9.223 -0.6179 -1.6508 -0.3169
  451TP3     H213173   3.869   1.350   9.299  1.6926  0.5315 -0.5716
  452TP3      O13174   1.454   4.407   7.976  0.0267 -0.6943  0.0260
  452TP3     H113175   1.515   4.480   7.972 -0.2761 -0.3697  0.9496
  452TP3     H213176   1.475   4.354   7.900  2.1057 -1.1032  0.8182
  453TP3      O13177   4.466   2.366   6.923  0.0956  0.2797 -0.2556
  453TP3     H113178   4.558   2.374   6.949  0.7739 -0.0680 -2.3223
  453TP3     H213179   4.463   2.403   6.835 -1.4063 -1.0965 -0.8366
  454TP3      O13180   2.467   4.558   9.867  0.1150 -0.3474 -0.4223
  454TP3     H113181   2.403   4.535   9.800 -0.9001 -1.7917  0.9753
  454TP3     H213182   2.543   4.503   9.847  0.7252  0.8987 -1.6984
  455TP3      O13183   3.429   0.610   0.360  0.1254 -0.4852  0.5393
  455TP3     H113184   3.495   0.542   0.374  0.4061 -0.6110 -1.1659
  455TP3     H213185   3.473   0.674   0.303 -0.8619 -0.0030  0.3004
  456TP3      O13186   3.850   0.452   0.410 -0.5674  0.0766 -0.2144
  456TP3     H113187   3.837   0.455   0.505 -2.3451 -0.5994 -0.4072
  456TP3     H213188   3.796   0.522   0.375  3.5456  3.4549 -0.5296
  457TP3      O13189   1.850   2.079   7.341 -0.3483 -0.6444 -0.2398
  457TP3     H113190   1.821   2.135   7.413  2.3869 -0.0693  0.5060
  457TP3     H213191   1.773   2.026   7.320 -2.3141  1.6743  0.6400
  458TP3      O13192   1.735   3.461   8.932 -0.1387 -0.5940 -0.4767
  458TP3     H113193   1.729   3.421   8.845 -2.0097  1.9409 -1.6514
  458TP3     H213194   1.812   3.517   8.928 -0.2550 -0.4368 -0.5324
  459TP3      O13195   4.690   0.018   8.046  0.1248  0.3394 -0.2902
  459TP3     H113196   4.600  -0.015   8.047  0.2931 -0.1201  0.2355
  459TP3     H213197   4.712   0.029   8.139  1.4551 -1.8888 -0.2680
  460TP3      O13198   0.478   2.691   8.103  0.1239  0.1107  0.2813
  460TP3     H113199   0.419   2.625   8.139 -2.6386  2.1576 -0.2030
  460TP3     H213200   0.501   2.745   8.179  0.2082  0.1684  0.2140
  461TP3      O13201   3.394   4.679   8.780 -0.0383  0.4302  0.2769
  461TP3     H113202   3.317   4.634   8.746  0.6075 -0.4389 -0.0742
  461TP3     H213203   3.375   4.693   8.873 -0.5731  0.1386  0.2142
  462TP3      O13204   5.182   4.518   7.263 -0.5487  0.4072 -0.4870
  462TP3     H113205   5.247   4.576   7.222 -0.3536  0.7179  0.2432
  462TP3     H213206   5.195   4.434   7.220  1.6007 -0.0468  0.8462
  463TP3      O13207   3.092   0.147   9.642 -0.4813 -0.2206  0.3399
  463TP3     H113208   3.118   0.153   9.550 -2.2253 -2.2180 -0.3779
  463TP3     H213209   3.007   0.191   9.646 -1.0553 -1.3125  0.6654
  464TP3      O13210   1.892   3.381   0.439 -0.0841 -0.1712 -0.2092
  464TP3     H113211   1.822   3.427   0.392 -0.8660  0.3190  1.3567
  464TP3     H213212   1.958   3.449   0.454  0.7542 -0.6253 -1.6521
  465TP3      O13213   1.482   3.676   0.502  0.5900  0.7395  0.5560
  465TP3     H113214   1.409   3.716   0.455  2.4007  2.0858 -1.2488
  465TP3     H213215   1.484   3.721   0.586  0.1172  1.5756  0.1281
  466TP3      O13216   0.416   4.577   7.501  0.0384  0.2274  0.0955
  466TP3     H113217   0.431   4.489   7.536  0.7017 -0.3271 -1.4694
  466TP3     H213218   0.352   4.564   7.432 -0.3326  1.0899  0.2739
  467TP3      O13219   5.097   1.717   8.527  0.4176  0.1821 -0.0115
  467TP3     H113220   5.181   1.751   8.495  0.4151 -0.4101 -0.6466
  467TP3     H213221   5.105   1.622   8.518  0.4317 -0.0186  1.7632
  468TP3      O13222   4.732   0.338   7.540  0.3732 -0.3410 -0.2298
  468TP3     H113223   4.745   0.244   7.551 -2.1187 -0.5904  1.4618
  468TP3     H213224   4.803   0.379   7.589  0.7208 -1.3560  0.1377
  469TP3      O13225   3.498   3.372   8.043 -0.1076 -0.2431  0.5470
  469TP3     H113226   3.414   3.417   8.057  0.2970  0.7463 -0.0824
  469TP3     H213227   3.541   3.374   8.128 -0.5309 -0.3535  0.7662
  470TP3      O13228   0.674   1.029   0.948  0.4205  0.0240 -0.4818
  470TP3     H113229   0.619   1.080   0.888  0.7823  0.1845 -0.6822
  470TP3     H213230   0.676   0.941   0.910 -0.0228 -0.0870 -0.2566
  471TP3      O13231   4.780   2.641   7.674 -0.5946  0.3993  0.4525
  471TP3     H113232   4.730   2.651   7.755 -2.1949 -1.5068 -0.2233
  471TP3     H213233   4.714   2.636   7.605  0.7026  1.1710 -0.8988
  472TP3      O13234   1.142   3.573   7.579  0.4244 -0.0174 -0.1677
  472TP3     H113235   1.204   3.627   7.529  2.2531 -0.5890  1.3396
  472TP3     H213236   1.084   3.636   7.621 -0.6211  0.5022 -2.2540
  473TP3      O13237   4.848   0.289   0.247  0.1894  0.2139 -0.0557
  473TP3     H113238   4.930   0.329   0.275 -0.8174  0.8274  2.2850
  473TP3     H213239   4.851   0.200   0.283  0.5514 -0.4060 -1.5215
  474TP3      O13240   2.850   3.898   1.430 -0.1815 -0.1184  0.1964
  474TP3     H113241   2.909   3.823   1.438 -0.6909 -0.4350  1.0947
  474TP3     H213242   2.891   3.967   1.482 -1.4557 -0.9033  2.3883
  475TP3      O13243   1.092   3.584   0.495 -0.4469  0.3277 -0.0241
  475TP3     H113244   1.121   3.582   0.586  0.6716 -0.9021 -0.3636
  475TP3     H213245   1.026   3.515   0.489  1.8724 -2.0091 -0.7995
  476TP3      O13246   1.266   4.139   7.851  0.1504  0.2255  0.3822
  476TP3     H113247   1.222   4.056   7.870 -1.4277  1.3012  1.7073
  476TP3     H213248   1.229   4.201   7.915  1.8924  1.7609 -0.0180
  477TP3      O13249   3.925   4.527   1.417  0.0708 -0.3087 -0.2339
  477TP3     H113250   3.831   4.523   1.437  0.0238  0.2650 -0.3105
  477TP3     H213251   3.965   4.464   1.477 -0.2946 -0.0864  0.2549
  478TP3      O13252   0.899   4.442   1.621  1.1592 -0.0221 -0.1441
  478TP3     H113253   0.823   4.400   1.581 -1.4564  2.2899  1.9652
  478TP3     H213254   0.901   4.407   1.711  0.1211  2.6141  1.0201
  479TP3      O13255   4.667   4.375   7.844 -0.4079 -0.3403 -0.4423
  479TP3     H113256   4.726   4.445   7.872 -0.2408  0.8722 -3.3775
  479TP3     H213257   4.723   4.298   7.837  1.2066  0.9346 -3.8109
  480TP3      O13258   2.265   3.549   7.485  0.0331  0.0742  0.0935
  480TP3     H113259   2.279   3.603   7.563  0.4392 -1.9753  1.5089
  480TP3     H213260   2.286   3.607   7.412  1.5610  1.4945  1.5721
  481TP3      O13261   4.834   4.838   7.604  0.0923 -0.1495 -0.0760
  481TP3     H113262   4.768   4.901   7.632  0.0290 -0.5845  0.7901
  481TP3     H213263   4.811   4.817   7.514 -0.9053 -0.2434  0.1940
  482TP3      O13264   5.145   1.621   8.813  0.2295 -0.0366  0.4346
  482TP3     H113265   5.187   1.648   8.732  1.3031  0.3374  1.0903
  482TP3     H213266   5.065   1.675   8.818  0.7735  0.8025  0.2150
  483TP3      O13267   0.939   0.864   0.823  0.6766 -0.2244  0.6324
  483TP3     H113268   0.855   0.836   0.788  1.7274 -1.7680 -0.7640
  483TP3     H213269   0.954   0.950   0.783 -0.4991  0.3765  1.4190
  484TP3      O13270   4.559   0.700   6.786 -0.0115 -0.0863  0.4236
  484TP3     H113271   4.591   0.765   6.724 -1.9541 -0.0235 -0.5738
  484TP3     H213272   4.534   0.750   6.864 -0.4978  0.2391  0.0623
  485TP3      O13273   2.848   1.244   2.457  0.1967 -0.0649 -0.1979
  485TP3     H113274   2.846   1.316   2.394 -0.6019 -0.0634 -0.1847
  485TP3     H213275   2.801   1.278   2.533 -0.6833 -0.7830 -0.4030
  486TP3      O13276   1.525   3.297   3.334  0.0577  0.1625  0.3174
  486TP3     H113277   1.454   3.329   3.389 -0.7252 -1.1502  0.0984
  486TP3     H213278   1.500   3.322   3.245  0.2119  0.3013  0.3122
  487TP3      O13279   2.073   0.560   1.048 -0.5044 -0.0191 -0.1833
  487TP3     H113280   2.048   0.477   1.088  1.0691 -0.0924  0.6995
  487TP3     H213281   2.058   0.626   1.115  0.4178  0.0936 -0.0670
  488TP3      O13282   0.377   1.556   9.556  0.0934 -0.5741 -0.6094
  488TP3     H113283   0.448   1.507   9.514  1.1593  1.0716 -0.8050
  488TP3     H213284   0.364   1.632   9.500 -0.3715  0.2295  0.5485
  489TP3      O13285   0.073   0.224   8.026 -0.3147  0.2418 -0.1802
  489TP3     H113286   0.152   0.172   8.013  0.3247  0.9029  0.8510
  489TP3     H213287   0.010   0.187   7.965  0.8906 -0.0738 -1.3008
  490TP3      O13288   0.137   1.945   9.098  0.4441 -0.1907 -0.6328
  490TP3     H113289   0.055   1.897   9.107 -0.1112  0.5785 -1.4231
  490TP3     H213290   0.199   1.881   9.062 -0.0837 -0.4980 -0.9958
  491TP3      O13291   5.199   3.373   9.874  0.1597  0.0316 -0.6094
  491TP3     H113292   5.243   3.437   9.930  0.6634 -0.7962 -0.0328
  491TP3     H213293   5.126   3.342   9.927 -1.3247  1.5604 -1.6444
  492TP3      O13294   3.023   1.652   8.210 -0.0069 -0.1552 -0.2490
  492TP3     H113295   3.036   1.567   8.168  3.2845  0.3564 -0.5312
  492TP3     H213296   3.037   1.634   8.303 -2.1021 -0.3442  0.0806
  493TP3      O13297   1.849   1.461   0.220  0.4818  0.1277  0.0911
  493TP3     H113298   1.837   1.547   0.259 -0.1326 -0.1548  0.5410
  493TP3     H213299   1.902   1.477   0.142  1.8004  0.6874  1.0650
  494TP3      O13300   4.989   4.740   7.192  0.4815 -1.0193  0.1938
  494TP3     H113301   5.004   4.826   7.232 -2.1232 -1.0023  1.3530
  494TP3     H213302   5.059   4.685   7.227  2.0926  0.5169 -0.4191
  495TP3      O13303   1.991   2.086   0.106  0.0479  0.0237 -0.2886
  495TP3     H113304   2.040   2.023   0.159  0.2933  0.4952  0.0552
  495TP3     H213305   2.054   2.115   0.040  0.5047  1.1885  0.6046
  496TP3      O13306   5.100   1.841   2.548 -0.2733 -0.0638 -0.0794
  496TP3     H113307   5.025   1.900   2.556  1.0414  1.4320  2.5537
  496TP3     H213308   5.175   1.900   2.537  0.6325 -1.4938 -2.3031
  497TP3      O13309   1.379   3.032   1.464  0.1465 -0.2830  0.4079
  497TP3     H113310   1.439   2.966   1.500  0.5589  0.5414  1.2727
  497TP3     H213311   1.436   3.094   1.419 -0.2471 -0.5463 -0.4667
  498TP3      O13312   3.463   4.766   7.551 -0.1735 -0.9308  0.0343
  498TP3     H113313   3.476   4.722   7.635 -0.0556 -0.3383  0.3310
  498TP3     H213314   3.549   4.767   7.510  0.6364  2.1036  1.5610
  499TP3      O13315   3.113   1.932   1.486 -0.3087  0.4168  0.2612
  499TP3     H113316   3.028   1.890   1.474  0.6522 -2.0197  1.3022
  499TP3     H213317   3.113   1.959   1.578  0.1410  0.1452  0.3429
  500TP3      O13318   5.194   1.430   9.761 -0.0588 -0.3461 -0.5158
  500TP3     H113319   5.277   1.386   9.775 -0.1665 -0.4934 -0.3335
  500TP3     H213320   5.217   1.522   9.747  0.0681 -0.2218  0.4395
  501TP3      O13321   0.213   4.389   8.809 -0.0737 -0.2415 -0.1104
  501TP3     H113322   0.123   4.365   8.831  0.0839 -0.0843  0.7578
  501TP3     H213323   0.252   4.308   8.774 -0.5555 -0.3033 -0.5053
  502TP3      O13324   0.183   4.247   9.809 -0.0757 -0.2553 -0.0282
  502TP3     H113325   0.217   4.306   9.741 -1.7349 -1.1323 -1.7266
  502TP3     H213326   0.236   4.168   9.801  1.5712  0.6031  1.6614
  503TP3      O13327   2.850   4.443   7.154 -0.4531  0.0653  0.1424
  503TP3     H113328   2.855   4.538   7.143  1.8270 -0.0295 -0.0050
  503TP3     H213329   2.788   4.415   7.086 -1.2229  1.4300  0.2363
  504TP3      O13330   4.767   5.275   8.328 -0.5312  0.7070  0.6179
  504TP3     H113331   4.748   5.182   8.341 -0.2359  0.4713 -0.4981
  504TP3     H213332   4.839   5.294   8.389 -0.2592  0.0751  0.5032
  505TP3      O13333   2.928   3.838   9.212 -0.5164  0.1904 -0.1510
  505TP3     H113334   2.925   3.931   9.187 -1.6732 -0.0403 -0.9648
  505TP3     H213335   2.959   3.794   9.132 -0.2879 -0.1584  0.1305
  506TP3      O13336   1.809   0.509   2.714  0.0270 -0.1151  0.6394
  506TP3     H113337   1.763   0.508   2.630  0.0995 -1.3820  0.5968
  506TP3     H213338   1.815   0.602   2.737  1.8461  0.4466 -1.7709
  507TP3      O13339   3.285   2.053   2.749  0.0536  0.3208 -0.3055
  507TP3     H113340   3.332   1.990   2.802 -0.3758  0.5466  0.3511
  507TP3     H213341   3.330   2.136   2.764 -1.1224  0.7471  1.1190
  508TP3      O13342   0.795   2.454   8.821  0.0906  0.1903 -0.0854
  508TP3     H113343   0.846   2.424   8.746  1.8203 -1.1238  1.5305
  508TP3     H213344   0.819   2.395   8.892 -2.3470  0.6701  1.2548
  509TP3      O13345   4.166   2.373   7.044 -0.5479 -0.5268  0.8705
  509TP3     H113346   4.243   2.365   6.987 -1.2979  0.0336 -0.2441
  509TP3     H213347   4.174   2.298   7.104  0.1582 -1.2580 -0.0922
  510TP3      O13348   3.410   1.251   1.932  0.0546 -0.1210 -0.1277
  510TP3     H113349   3.440   1.163   1.954 -1.5997 -0.8960 -0.7524
  510TP3     H213350   3.485   1.308   1.950  1.1207 -1.6341  0.4018
  511TP3      O13351   0.529   3.977   8.887  0.3610 -0.0809  0.2656
  511TP3     H113352   0.601   3.942   8.939  0.5164  1.0867  0.8801
  511TP3     H213353   0.477   3.900   8.862  1.1998 -0.8211  0.7543
  512TP3      O13354   0.393   3.247   0.527  0.3022  0.1408 -0.2013
  512TP3     H113355   0.382   3.158   0.561 -2.5568  0.0979 -1.0104
  512TP3     H213356   0.365   3.242   0.436 -1.3637  2.1227  0.1271
  513TP3      O13357   4.286   1.312   0.549 -0.9131 -0.0411 -0.2389
  513TP3     H113358   4.206   1.300   0.600 -0.6808 -0.2050  0.0923
  513TP3     H213359   4.290   1.406   0.532 -1.3281 -0.0695 -0.5074
  514TP3      O13360   3.896   2.486   9.282 -0.0127  0.6649 -0.2749
  514TP3     H113361   3.936   2.513   9.199 -0.2956  3.4638  0.4095
  514TP3     H213362   3.809   2.526   9.281 -2.1171 -3.3766 -0.6876
  515TP3      O13363   4.158   3.474   9.771  0.2216  0.4270  0.2079
  515TP3     H113364   4.174   3.564   9.743 -0.1208  0.1263 -1.0105
  515TP3     H213365   4.183   3.420   9.696  1.6654 -0.6048  1.3646
  516TP3      O13366   4.362   2.003   1.904 -0.1230  0.1323  0.1924
  516TP3     H113367   4.402   2.075   1.854  0.8295 -0.7941 -0.4434
  516TP3     H213368   4.272   1.998   1.872  0.2470  0.0649 -0.8957
  517TP3      O13369   3.765   2.934   9.377 -0.0530  0.9046 -0.4599
  517TP3     H113370   3.842   2.916   9.323  0.7105  1.3332  0.4605
  517TP3     H213371   3.783   2.891   9.460 -0.5690  1.4322 -0.0662
  518TP3      O13372   3.975   5.138   8.125 -0.2703 -0.0089  0.1342
  518TP3     H113373   3.965   5.054   8.080 -2.5261  1.2404 -1.9628
  518TP3     H213374   4.069   5.154   8.125  0.4851 -3.3628  2.4471
  519TP3      O13375   1.126   3.972   2.741 -0.1809  0.1137  0.7722
  519TP3     H113376   1.066   3.924   2.798 -0.2909 -1.1088 -0.3391
  519TP3     H213377   1.203   3.987   2.796 -0.4899 -0.5633  1.4073
  520TP3      O13378   4.240   3.372   2.920  0.2493 -0.2867  0.0105
  520TP3     H113379   4.196   3.445   2.876 -1.5337 -1.4358 -0.2269
  520TP3     H213380   4.251   3.306   2.851 -1.1797 -1.5016  0.8883
  521TP3      O13381   1.192   2.852   7.740  0.2220  0.8262 -0.0584
  521TP3     H113382   1.246   2.841   7.662  0.5155  1.8000 -0.0107
  521TP3     H213383   1.140   2.931   7.722 -1.7943 -0.5273 -0.4400
  522TP3      O13384   4.347   2.052   1.582 -0.2729  0.3353 -0.5341
  522TP3     H113385   4.259   2.043   1.619  0.4923 -1.4444  1.0127
  522TP3     H213386   4.377   2.138   1.613 -0.7427  0.1073  0.6143
  523TP3      O13387   2.754   2.016   7.986 -0.4717  0.6560  0.3860
  523TP3     H113388   2.662   2.009   7.963 -0.0235 -1.1481 -1.0641
  523TP3     H213389   2.760   1.975   8.073 -0.7153 -1.4346 -0.5240
  524TP3      O13390   4.346   1.736   8.846  0.2339  0.6106  0.0606
  524TP3     H113391   4.288   1.806   8.817 -0.9290 -0.3170  0.0574
  524TP3     H213392   4.397   1.774   8.917  0.4996  1.8143 -0.7541
  525TP3      O13393   3.766   0.371   2.076  0.1628 -0.4503  0.7324
  525TP3     H113394   3.740   0.461   2.094 -1.5077 -1.1202  1.7989
  525TP3     H213395   3.826   0.349   2.147  1.3376  0.0883 -0.0503
  526TP3      O13396   1.990   1.177   0.867  0.5646  0.0352 -0.4979
  526TP3     H113397   1.934   1.252   0.887  0.7130  0.4710 -1.6670
  526TP3     H213398   1.931   1.102   0.870  0.6235  0.0002  1.8329
  527TP3      O13399   0.219   5.076   8.363 -0.0047 -0.0559  0.1961
  527TP3     H113400   0.298   5.060   8.312  0.0643  0.7113  0.0512
  527TP3     H213401   0.148   5.077   8.298  0.0501  0.6639  0.1441
  528TP3      O13402   2.087   1.589   9.128  0.4904  0.1606  0.0242
  528TP3     H113403   2.012   1.583   9.187  1.3169  0.6863  1.1631
  528TP3     H213404   2.154   1.533   9.169  0.4026 -1.1171 -1.5034
  529TP3      O13405   2.981   1.618   7.087  0.0285  0.3652  0.1531
  529TP3     H113406   3.017   1.691   7.037 -1.0372  0.8914  0.1107
  529TP3     H213407   2.919   1.659   7.148 -1.0156 -0.5207 -0.2665
  530TP3      O13408   2.420   3.920   2.677  0.2377 -0.0338  0.5460
  530TP3     H113409   2.465   3.855   2.623 -0.8479  1.2986 -2.1057
  530TP3     H213410   2.488   3.953   2.736  1.7228 -0.8856 -0.6187
  531TP3      O13411   0.222   3.253   8.560 -0.3771 -0.0142 -0.0826
  531TP3     H113412   0.312   3.273   8.583 -0.6105 -0.2644  1.0790
  531TP3     H213413   0.204   3.310   8.485  1.4580 -1.5926 -1.8473
  532TP3      O13414   0.518   4.843   8.129  0.1899 -0.3619  0.4620
  532TP3     H113415   0.445   4.806   8.081  0.6359 -3.8203  2.1271
  532TP3     H213416   0.584   4.863   8.062 -0.9623 -0.4328 -0.7315
  533TP3      O13417   0.334   1.762   9.330 -0.2330  0.1156  0.8082
  533TP3     H113418   0.290   1.837   9.369 -1.1234  0.1055 -0.1369
  533TP3     H213419   0.417   1.797   9.298  0.0468  0.3434  1.7639
  534TP3      O13420   1.253   0.053   1.394 -0.3932  0.3144  0.1499
  534TP3     H113421   1.192   0.067   1.322  0.4843  1.0632 -0.4641
  534TP3     H213422   1.331   0.102   1.370  0.1968 -0.0356  1.2625
  535TP3      O13423   1.190   4.531   6.581  0.6442 -0.3507 -0.7255
  535TP3     H113424   1.177   4.461   6.516  1.6919 -2.5718  1.3189
  535TP3     H213425   1.108   4.532   6.631 -0.5531  2.0208 -2.5150
  536TP3      O13426   0.033   2.954   0.466 -0.4246  0.4983 -0.2004
  536TP3     H113427   0.051   2.932   0.557 -1.7815  0.9037  0.1939
  536TP3     H213428   0.119   2.958   0.425  0.1504 -0.6935  0.8162
  537TP3      O13429   3.615   4.398   0.514 -0.1144 -0.4446 -0.1306
  537TP3     H113430   3.531   4.377   0.555  0.5164 -1.7686  0.5138
  537TP3     H213431   3.665   4.440   0.584  0.1941 -0.7440 -0.1751
  538TP3      O13432   2.670   4.610   2.550  0.1961 -0.6458 -0.2772
  538TP3     H113433   2.665   4.549   2.624  0.3322  0.4325  0.6388
  538TP3     H213434   2.761   4.642   2.551  0.6650 -1.7713 -1.8835
  539TP3      O13435   1.402   0.191   0.773  0.1308  0.0123 -0.1582
  539TP3     H113436   1.403   0.149   0.859 -1.2154 -0.8517 -0.5376
  539TP3     H213437   1.317   0.235   0.770 -0.8527 -1.8976 -1.9320
  540TP3      O13438   2.089   3.234   2.761  0.1152  0.0831  0.0130
  540TP3     H113439   2.179   3.250   2.790  0.3108  0.7351 -0.9318
  540TP3     H213440   2.089   3.141   2.735  0.9029  0.4292 -1.3020
  541TP3      O13441   2.951   2.969   0.535  0.4830 -0.0690 -0.1217
  541TP3     H113442   2.888   2.929   0.475  1.5180 -1.9765  0.0046
  541TP3     H213443   2.940   3.063   0.521 -0.6644 -0.4139 -1.8726
  542TP3      O13444   3.687   4.686   2.070  0.2783 -0.3556 -0.1154
  542TP3     H113445   3.755   4.729   2.122  0.9592 -0.7093 -0.6876
  542TP3     H213446   3.616   4.669   2.132  0.3586  0.7723  0.3120
  543TP3      O13447   4.278   1.012   8.111  0.1842  0.3010  0.0971
  543TP3     H113448   4.213   1.069   8.151  0.7310  0.9373  0.0832
  543TP3     H213449   4.237   0.925   8.112 -0.4656  0.6059  0.5305
  544TP3      O13450   1.112   2.456   0.535  0.0176 -0.4286  0.0142
  544TP3     H113451   1.101   2.415   0.449 -1.8024 -0.2516  0.1152
  544TP3     H213452   1.025   2.488   0.557  0.6552  0.3751  1.5155
  545TP3      O13453   2.421   1.794  10.103 -0.4186 -0.2383 -0.3715
  545TP3     H113454   2.412   1.822  10.012  2.1347 -0.4166 -0.7485
  545TP3     H213455   2.439   1.875  10.151  0.4812 -0.4038 -0.4135
  546TP3      O13456   0.032   1.840   1.256 -0.6640 -0.4848 -0.2836
  546TP3     H113457   0.066   1.910   1.201  0.1496 -1.2968 -0.8430
  546TP3     H213458  -0.047   1.809   1.211 -0.9226 -0.0558 -0.1279
  547TP3      O13459   0.251   4.489   7.293  0.5989  0.4714 -0.1305
  547TP3     H113460   0.253   4.395   7.308 -1.1040  0.2952 -0.7474
  547TP3     H213461   0.260   4.499   7.199  0.4900  0.9044 -0.0970
  548TP3      O13462   0.943   2.212   8.288 -0.0612  0.1244  0.7867
  548TP3     H113463   0.921   2.303   8.307  1.3577  0.7744 -0.4675
  548TP3     H213464   1.038   2.209   8.291 -0.0040 -0.9047 -0.7840
  549TP3      O13465   0.319   3.595   2.311  0.1184 -0.2125  0.1146
  549TP3     H113466   0.345   3.634   2.394 -1.8978 -1.1316  1.2383
  549TP3     H213467   0.388   3.530   2.293  0.0577 -0.7399  1.6206
  550TP3      O13468   1.411   5.225   9.564 -0.0608 -0.1029  0.1308
  550TP3     H113469   1.394   5.221   9.659  0.1978  1.6861  0.2899
  550TP3     H213470   1.358   5.154   9.528 -1.4954  0.2176  1.4550
  551TP3      O13471   1.111   1.071   9.069 -0.3501  0.3882 -0.3249
  551TP3     H113472   1.129   1.165   9.079 -2.2869  0.7874 -0.0559
  551TP3     H213473   1.016   1.067   9.058 -0.3472 -1.5884  0.0993
  552TP3      O13474   0.242   1.364   1.963 -0.0015  0.6902  0.2786
  552TP3     H113475   0.321   1.413   1.983  0.1108  0.5672  0.1402
  552TP3     H213476   0.273   1.287   1.914  0.2007 -1.1985  3.1396
  553TP3      O13477   4.363   3.895   8.871  0.0660  0.5822  0.1125
  553TP3     H113478   4.383   3.985   8.846 -0.3373  1.2500  2.0658
  553TP3     H213479   4.442   3.865   8.916  0.6590 -0.4895 -1.5481
  554TP3      O13480   4.249   1.024   1.577  0.0155  0.0367 -0.7013
  554TP3     H113481   4.189   0.966   1.528  1.4509 -2.1502 -0.0431
  554TP3     H213482   4.207   1.036   1.662 -0.0013 -0.6084 -0.6120
  555TP3      O13483   4.488   4.599   8.058  0.0015  0.2530 -0.0086
  555TP3     H113484   4.486   4.652   8.137  2.5195  1.5185 -0.6862
  555TP3     H213485   4.395   4.588   8.034 -0.7487  1.0590  2.2514
  556TP3      O13486   4.395   0.156   7.240  0.1420 -0.1287 -0.5038
  556TP3     H113487   4.409   0.157   7.145 -0.3442  2.0171 -0.5981
  556TP3     H213488   4.307   0.191   7.252  0.7019  0.9223  0.7870
  557TP3      O13489   1.559   4.447   2.042 -0.1947 -0.1122 -0.2667
  557TP3     H113490   1.467   4.425   2.057 -0.5600  1.0057 -0.7596
  557TP3     H213491   1.572   4.528   2.091  0.7388 -0.6551  0.4035
  558TP3      O13492   0.861   2.957   9.856  0.2660  0.1332 -0.4232
  558TP3     H113493   0.825   3.045   9.856 -0.7563 -0.2479 -2.0334
  558TP3     H213494   0.955   2.969   9.869 -0.1295  1.2726  1.8482
  559TP3      O13495   3.087   4.199   9.332  0.5779 -0.1368 -0.3064
  559TP3     H113496   3.168   4.165   9.371  0.1761  0.5347  1.2149
  559TP3     H213497   3.021   4.183   9.399  0.2048  2.7820  0.1246
  560TP3      O13498   4.587   2.703   2.105 -0.2679 -0.7972 -0.1740
  560TP3     H113499   4.612   2.664   2.189  1.7323 -0.0930 -0.3981
  560TP3     H213500   4.609   2.796   2.114  0.8410 -0.8751 -1.7779
  561TP3      O13501   3.619   3.581   0.414 -0.2081 -0.4276  0.0909
  561TP3     H113502   3.613   3.624   0.328 -2.5678  0.9033  0.8093
  561TP3     H213503   3.624   3.654   0.476 -0.1127 -1.3218  1.1556
  562TP3      O13504   2.688   5.095   7.142  0.3320  0.2987 -0.2682
  562TP3     H113505   2.702   5.189   7.152 -0.7353  0.3514  1.0045
  562TP3     H213506   2.776   5.057   7.148  0.7911  1.2021 -0.9571
  563TP3      O13507   3.450   2.797   6.867 -0.2154  0.2181 -0.1096
  563TP3     H113508   3.436   2.837   6.782  3.2376 -1.2543 -1.5473
  563TP3     H213509   3.364   2.765   6.893 -1.1614 -0.7168 -3.8344
  564TP3      O13510   0.321   1.626   7.623  0.4597  0.3558 -0.0786
  564TP3     H113511   0.284   1.670   7.547  0.7177 -1.0631 -1.0835
  564TP3     H213512   0.344   1.696   7.683 -1.0537  1.4400 -0.7065
  565TP3      O13513   2.269   4.960   0.652  0.2870  0.1368 -0.2199
  565TP3     H113514   2.327   4.934   0.724 -0.5707 -0.6573  0.1957
  565TP3     H213515   2.298   4.907   0.578  1.8792  1.7198 -0.8033
  566TP3      O13516   4.789   0.293   1.005  0.3484 -0.3805 -0.1929
  566TP3     H113517   4.832   0.207   1.003  0.3347 -0.3780 -1.3041
  566TP3     H213518   4.699   0.275   0.979  0.3097 -0.0534 -0.2875
  567TP3      O13519   0.094   3.074   7.456  0.8208  0.5871  0.3072
  567TP3     H113520   0.102   2.988   7.497  1.7077  0.4772 -0.0682
  567TP3     H213521   0.141   3.133   7.516  0.2605  0.8027  0.5378
  568TP3      O13522   2.332   2.829   7.023 -0.4136 -0.3364  0.1988
  568TP3     H113523   2.388   2.764   7.065  0.4237 -0.4694 -1.0705
  568TP3     H213524   2.364   2.834   6.933 -1.9426  0.1670 -0.3499
  569TP3      O13525   0.704   3.095   1.086 -0.6836 -0.3501 -0.2214
  569TP3     H113526   0.787   3.059   1.055 -0.9926 -1.1858 -0.1159
  569TP3     H213527   0.712   3.189   1.074 -0.1921 -0.5260 -1.3491
  570TP3      O13528   1.408   4.948   7.941  0.3083  0.3569 -0.1449
  570TP3     H113529   1.380   4.933   7.851 -0.6593  0.2010  0.1781
  570TP3     H213530   1.398   5.042   7.954 -1.3725  0.1309  0.3849
  571TP3      O13531   2.798   2.537   0.740 -0.1409 -0.1165  0.4091
  571TP3     H113532   2.835   2.591   0.810  1.4688 -0.0827 -0.4264
  571TP3     H213533   2.710   2.515   0.771  0.2446  0.5427  2.0839
  572TP3      O13534   4.747   3.234   8.365 -0.3156 -0.3047  0.3048
  572TP3     H113535   4.755   3.326   8.340 -0.0405 -0.4260 -0.0613
  572TP3     H213536   4.734   3.235   8.460  1.9610  0.0109  0.6619
  573TP3      O13537   2.456   4.300   8.679 -0.5268 -0.6010 -0.0883
  573TP3     H113538   2.513   4.305   8.755  2.7555 -0.9196 -2.3327
  573TP3     H213539   2.439   4.391   8.656  1.0332 -0.4275 -0.6722
  574TP3      O13540   4.542   4.779   6.715 -0.1346  0.3581 -0.4093
  574TP3     H113541   4.491   4.858   6.731  1.0617  0.6867  2.4417
  574TP3     H213542   4.480   4.708   6.726 -0.5191  0.8158  0.4975
  575TP3      O13543   1.443   0.796   9.022  0.6403  0.0330  0.3001
  575TP3     H113544   1.462   0.872   9.077 -1.6690  1.5117 -0.7816
  575TP3     H213545   1.449   0.830   8.932  1.7831 -1.6648 -0.3001
  576TP3      O13546   4.538   0.731   9.710 -0.2054 -0.2897  0.0338
  576TP3     H113547   4.539   0.827   9.711  0.2135 -0.2901 -0.1128
  576TP3     H213548   4.479   0.708   9.639  2.3533 -0.1206 -2.2964
  577TP3      O13549   2.680   4.997   1.059 -0.5058 -1.0725  0.0327
  577TP3     H113550   2.695   5.082   1.100 -3.4688  0.0272 -0.8391
  577TP3     H213551   2.713   4.933   1.122 -0.3094  0.6796  1.8009
  578TP3      O13552   2.528   0.233   1.911  0.7328 -0.1936  0.1602
  578TP3     H113553   2.613   0.249   1.870 -0.3651  0.8666 -1.8718
  578TP3     H213554   2.493   0.156   1.866  0.8677 -1.0452  1.4571
  579TP3      O13555   1.191   1.966   8.843 -0.2029  0.6323  0.3004
  579TP3     H113556   1.201   2.042   8.787 -0.2249  2.0041  2.0780
  579TP3     H213557   1.113   1.984   8.895 -1.2242 -1.4047 -0.4129
  580TP3      O13558   1.270   5.291   0.091 -0.1570  0.3627 -0.3453
  580TP3     H113559   1.217   5.225   0.048  1.3385 -2.3471  1.6812
  580TP3     H213560   1.359   5.256   0.090  0.6072  2.0411  1.3790
  581TP3      O13561   2.394   2.899   0.857  0.0752  0.0025 -0.0726
  581TP3     H113562   2.315   2.944   0.886  0.5920  0.6771  0.3491
  581TP3     H213563   2.406   2.927   0.766  0.1987  0.4423  0.0776
  582TP3      O13564   2.952   2.678   1.485 -0.1240 -0.6958  0.1951
  582TP3     H113565   2.866   2.677   1.442 -0.2919 -2.2508  0.4946
  582TP3     H213566   3.014   2.677   1.412 -0.3667 -0.2099 -0.0218
  583TP3      O13567   4.528   4.896   9.501  0.3797 -0.2282 -0.2131
  583TP3     H113568   4.529   4.975   9.556  1.9200  0.1915 -0.7966
  583TP3     H213569   4.445   4.902   9.453  0.6630  1.2765 -0.5770
  584TP3      O13570   1.898   1.046   8.161  0.7695 -0.2406  0.0085
  584TP3     H113571   1.893   0.975   8.097  0.6899  1.0146 -1.4533
  584TP3     H213572   1.852   1.012   8.238  0.3413 -1.6008 -0.8000
  585TP3      O13573   2.062   2.082   1.825 -0.0856 -0.4962  0.0672
  585TP3     H113574   2.014   2.091   1.743  1.7132  1.3913 -0.8631
  585TP3     H213575   2.062   1.988   1.842 -1.9833 -0.7727 -1.1379
  586TP3      O13576   3.618   3.258   8.995  0.0726 -0.4044 -0.3776
  586TP3     H113577   3.628   3.238   9.088  1.7349 -0.1797 -0.4798
  586TP3     H213578   3.618   3.354   8.992 -0.9143 -0.3982 -0.5420
  587TP3      O13579   0.910   1.673   0.316  0.0701 -0.4548 -0.1288
  587TP3     H113580   0.971   1.709   0.381  0.5442 -0.8212 -0.3691
  587TP3     H213581   0.964   1.658   0.239 -0.8560  1.9776 -1.3788
  588TP3      O13582   3.539   1.993   1.055 -0.1991 -0.2776  0.3907
  588TP3     H113583   3.480   1.929   1.093  0.8511 -1.2066  0.5016
  588TP3     H213584   3.627   1.958   1.071  0.3505  0.4536 -0.8167
  589TP3      O13585   3.949   4.623   2.642 -0.0063 -0.5415  0.1864
  589TP3     H113586   3.877   4.621   2.579 -0.2191  0.1424  0.3995
  589TP3     H213587   3.913   4.583   2.721 -0.3090  0.2118  0.4411
  590TP3      O13588   4.551   1.094   7.560  0.3293 -0.0240  0.7341
  590TP3     H113589   4.550   1.023   7.623 -1.2285 -0.3276  0.3962
  590TP3     H213590   4.550   1.051   7.475  0.4155  0.4062  0.5105
  591TP3      O13591   1.143   5.170   8.366  0.5056  0.2104  0.6247
  591TP3     H113592   1.171   5.080   8.386  1.3243  0.4149  0.4030
  591TP3     H213593   1.084   5.160   8.291  2.0157  0.0199 -0.5842
  592TP3      O13594   0.302   0.558   0.608 -0.6356 -0.7889 -0.2706
  592TP3     H113595   0.343   0.570   0.523 -0.7979 -0.3825 -0.2919
  592TP3     H213596   0.374   0.571   0.671 -1.1451  2.2733 -0.1930
  593TP3      O13597   1.060   1.803   7.669  0.1867 -0.2641  0.2185
  593TP3     H113598   1.054   1.727   7.726  1.0393 -2.3656 -2.2576
  593TP3     H213599   1.150   1.800   7.635 -0.8080 -0.3769 -2.7122
  594TP3      O13600   1.271   0.948   8.116 -0.2184  0.5435  0.2580
  594TP3     H113601   1.189   0.998   8.121 -0.3617  0.5069 -1.1530
  594TP3     H213602   1.243   0.860   8.090  0.2636  0.5865 -0.4474
  595TP3      O13603   1.263   0.111   7.807  0.2708 -0.4245 -0.1297
  595TP3     H113604   1.339   0.167   7.790  0.1410 -0.6354 -1.5707
  595TP3     H213605   1.258   0.053   7.731 -2.0558  0.4176 -0.7157
  596TP3      O13606   1.495   4.491   1.507 -0.4265  0.0525 -0.1398
  596TP3     H113607   1.557   4.536   1.564 -0.3129 -0.1166 -0.1282
  596TP3     H213608   1.481   4.550   1.433  1.2252 -0.7015 -1.1158
  597TP3      O13609   3.232   3.535   7.597 -0.2008 -0.2730  0.7696
  597TP3     H113610   3.316   3.560   7.560 -0.6895 -0.8905 -0.8569
  597TP3     H213611   3.245   3.445   7.628 -0.1377 -0.2053  0.9398
  598TP3      O13612   1.251   3.724   1.577 -0.2788 -0.1562 -0.1652
  598TP3     H113613   1.338   3.761   1.564  0.3906 -1.4486  0.4683
  598TP3     H213614   1.254   3.638   1.535 -0.6731 -0.9303  1.3127
  599TP3      O13615   1.516   4.724   6.581 -0.3780  0.1699 -0.0549
  599TP3     H113616   1.607   4.739   6.607 -0.4897  0.6840  0.0633
  599TP3     H213617   1.478   4.673   6.652 -0.4385  0.7928  0.3753
  600TP3      O13618   3.019   4.671   8.962 -0.2547 -0.3235 -0.4227
  600TP3     H113619   2.993   4.623   8.884 -1.4196 -0.7630  0.2084
  600TP3     H213620   2.956   4.743   8.969  2.3321  2.3982 -2.2087
  601TP3      O13621   5.003   2.743   1.080  0.3161 -1.0308 -0.5491
  601TP3     H113622   4.932   2.768   1.021  0.2468 -1.4541 -0.6508
  601TP3     H213623   5.079   2.793   1.049 -0.0328 -0.2350 -0.1660
  602TP3      O13624   4.992   3.937   1.555  0.0962  0.4621  0.4761
  602TP3     H113625   5.048   3.865   1.585 -0.0987 -0.3410 -0.9818
  602TP3     H213626   4.929   3.895   1.496  0.2989  1.9008 -0.8228
  603TP3      O13627   4.283   1.862   6.629  0.0502 -0.9366  0.3835
  603TP3     H113628   4.333   1.802   6.574 -1.1900 -0.8372 -0.9257
  603TP3     H213629   4.333   1.944   6.628 -0.0303 -0.8855 -0.7681
  604TP3      O13630   0.854   2.316   6.967 -0.0738  0.5460  0.1828
  604TP3     H113631   0.791   2.301   7.038 -0.3934  0.7810 -0.0458
  604TP3     H213632   0.895   2.400   6.988  0.2199  0.3557  0.3716
  605TP3      O13633   0.009   4.379   2.581  0.0684 -0.1670 -0.8144
  605TP3     H113634  -0.070   4.428   2.603  1.0018  2.2240 -2.3999
  605TP3     H213635   0.018   4.389   2.486  2.1551 -0.5404 -0.7049
  606TP3      O13636   4.757   0.313   8.492  0.1097 -0.0426 -0.1737
  606TP3     H113637   4.791   0.402   8.505 -0.1821 -0.0634  0.7923
  606TP3     H213638   4.836   0.258   8.491  0.2636  0.1801 -0.3074
  607TP3      O13639   3.464   3.901   3.078  0.3359 -0.1885  0.1374
  607TP3     H113640   3.384   3.851   3.092  0.9892 -1.9084 -1.8684
  607TP3     H213641   3.535   3.839   3.095  1.2077  0.6613 -0.3062
  608TP3      O13642   2.696   4.953   2.983 -0.4194  0.1096 -0.0025
  608TP3     H113643   2.655   5.036   3.006  0.0184  0.6703 -1.1707
  608TP3     H213644   2.623   4.892   2.972 -0.7526  0.3744  0.6494
  609TP3      O13645   0.218   3.761   9.895 -0.1865  0.1644 -0.0631
  609TP3     H113646   0.302   3.739   9.936 -0.2783 -1.0219 -0.4680
  609TP3     H213647   0.213   3.703   9.819 -0.1391  2.1048 -1.6470
  610TP3      O13648   1.330   4.249   8.903 -0.0097 -0.5901  0.4150
  610TP3     H113649   1.377   4.322   8.863  2.0048 -1.6246  0.7116
  610TP3     H213650   1.325   4.273   8.996 -0.2852 -0.3587  0.3394
  611TP3      O13651   0.825   1.989   8.146  0.2308 -0.1208 -0.4256
  611TP3     H113652   0.745   2.040   8.131 -1.0126 -1.5605  0.9261
  611TP3     H213653   0.877   2.043   8.205 -0.4346  0.2082 -0.1235
  612TP3      O13654   2.957   4.104   1.880  0.6437 -0.1278 -0.1444
  612TP3     H113655   2.932   4.039   1.946 -0.5059  0.2672 -0.1673
  612TP3     H213656   2.952   4.188   1.926 -1.1285  0.2529 -0.9534
  613TP3      O13657   4.085   2.501   9.891 -0.6001  0.2520 -0.5186
  613TP3     H113658   4.065   2.410   9.912  0.4832  0.1123 -0.0012
  613TP3     H213659   4.002   2.547   9.901 -0.7403 -0.3130  1.4045
  614TP3      O13660   2.962   2.042   2.126  0.2054  0.2147  0.4170
  614TP3     H113661   3.024   2.092   2.072 -1.1256  2.6807  1.0161
  614TP3     H213662   2.976   2.074   2.215 -1.6976  0.6375  0.6025
  615TP3      O13663   4.140   2.342   2.535 -0.0705  0.3007  0.0235
  615TP3     H113664   4.111   2.305   2.451  0.1243  1.4661 -0.5818
  615TP3     H213665   4.114   2.277   2.600 -0.3038 -0.5903 -0.9313
  616TP3      O13666   1.582   0.042   1.158 -0.3818  0.3063 -0.6085
  616TP3     H113667   1.675   0.051   1.136  0.2884 -2.7891  0.3563
  616TP3     H213668   1.537   0.047   1.074  0.6718  1.4163 -1.1434
  617TP3      O13669   4.289   4.496   0.018 -0.0250  0.3109 -0.8296
  617TP3     H113670   4.243   4.580   0.013  0.9564  0.9000 -0.3407
  617TP3     H213671   4.238   4.437  -0.037 -0.9339  1.1333 -0.8974
  618TP3      O13672   2.565   2.042   0.972  0.1453  0.1340  0.0848
  618TP3     H113673   2.523   2.083   0.896  0.9549 -0.2166 -0.5675
  618TP3     H213674   2.538   1.950   0.968 -0.8247  0.3649  0.9525
  619TP3      O13675   4.293   4.291   7.253  0.0193  0.1353  0.7204
  619TP3     H113676   4.385   4.315   7.261 -0.3614  1.3666  1.5490
  619TP3     H213677   4.274   4.299   7.159 -0.0449  3.0477  0.8896
  620TP3      O13678   2.713   0.278   0.012  0.1768 -0.5555 -0.6901
  620TP3     H113679   2.683   0.365   0.039 -1.3195 -1.5081  0.9324
  620TP3     H213680   2.799   0.268   0.054 -0.2190 -0.3302  0.2012
  621TP3      O13681   3.501   0.590   9.346  0.5119 -0.2641 -0.2639
  621TP3     H113682   3.424   0.540   9.374 -0.0230  0.6403 -0.0824
  621TP3     H213683   3.511   0.569   9.253  0.1124 -0.4775 -0.2605
  622TP3      O13684   4.843   4.480   0.973 -0.5089  0.1782  0.2746
  622TP3     H113685   4.891   4.421   1.031 -1.2318 -0.2550  0.4426
  622TP3     H213686   4.796   4.539   1.032  0.1636  0.8860  0.1060
  623TP3      O13687   2.337   2.916   8.965 -0.0270 -0.1427  0.2452
  623TP3     H113688   2.345   2.875   8.879 -0.2340 -1.7606  0.9573
  623TP3     H213689   2.250   2.956   8.965 -0.6426 -1.4395  0.2134
  624TP3      O13690   0.528   1.712   7.197 -0.1151  0.8144  0.0621
  624TP3     H113691   0.531   1.681   7.107  0.4689  1.6697 -0.2240
  624TP3     H213692   0.448   1.673   7.233  0.3732 -0.6799 -0.3771
  625TP3      O13693   4.965   2.520   0.462  0.3496 -0.0700 -0.2195
  625TP3     H113694   5.020   2.444   0.482  1.0935  0.1949 -1.1663
  625TP3     H213695   4.929   2.546   0.546  0.3878 -1.2378  0.1793
  626TP3      O13696   1.800   4.018   9.615  0.1733  0.4309  0.0455
  626TP3     H113697   1.838   4.103   9.635 -1.7740  1.3091  0.2837
  626TP3     H213698   1.801   3.972   9.699 -0.8953  1.1388  0.4627
  627TP3      O13699   2.407   1.490   1.274  0.2165  0.2096 -0.4676
  627TP3     H113700   2.410   1.397   1.297 -1.1000  0.5610  1.3513
  627TP3     H213701   2.474   1.530   1.330  1.6370  0.2576 -2.1061
  628TP3      O13702   0.205   3.925   9.530 -0.0195 -0.0736 -0.0926
  628TP3     H113703   0.131   3.915   9.470  0.9278  0.0091 -1.3118
  628TP3     H213704   0.276   3.875   9.489  0.7487  0.2494  0.8083
  629TP3      O13705   2.430   5.273  10.106  0.5604  0.3623 -0.1846
  629TP3     H113706   2.380   5.350  10.081 -0.1000  0.0189  0.0491
  629TP3     H213707   2.364   5.208  10.130  1.1181 -0.0927  0.1630
  630TP3      O13708   1.089   5.107   7.218 -0.4210 -0.2193  0.6611
  630TP3     H113709   1.020   5.077   7.158  1.0955  0.4222 -1.5559
  630TP3     H213710   1.152   5.035   7.220  0.8787  0.8022 -0.8200
  631TP3      O13711   4.204   5.166   7.337  0.5108 -0.5562 -0.0904
  631TP3     H113712   4.205   5.093   7.275  2.6622 -0.4793 -0.2148
  631TP3     H213713   4.182   5.242   7.283  0.4356 -0.7812 -0.3823
  632TP3      O13714   0.425   1.369   0.835 -0.4040  0.1940 -0.2625
  632TP3     H113715   0.478   1.427   0.780 -0.2869 -0.5588 -0.9716
  632TP3     H213716   0.445   1.395   0.925  0.6855  0.3400 -0.5398
  633TP3      O13717   0.250   3.226   6.723 -0.0683  0.0212  0.4102
  633TP3     H113718   0.269   3.155   6.784  0.5807 -0.4628 -0.3292
  633TP3     H213719   0.197   3.184   6.654 -0.8613  0.5727  0.6686
  634TP3      O13720   1.991   0.927   7.931 -0.5075 -0.0664 -0.4690
  634TP3     H113721   2.026   0.943   7.843  0.2180  0.8781 -0.0225
  634TP3     H213722   1.897   0.914   7.917 -0.7586  2.0758 -1.1871
  635TP3      O13723   4.255   4.396   8.595  0.3339 -0.4025 -0.2863
  635TP3     H113724   4.245   4.304   8.618 -1.5678 -0.2629 -0.3968
  635TP3     H213725   4.169   4.434   8.611  0.4746  0.9016 -2.2792
  636TP3      O13726   3.786   5.234   0.932  0.4066 -0.4099  0.3136
  636TP3     H113727   3.825   5.201   1.013  1.8366 -3.0812 -1.3248
  636TP3     H213728   3.848   5.298   0.899  0.6144 -0.4969  0.5346
  637TP3      O13729   0.409   1.624   0.233 -0.1824 -0.0466  0.1550
  637TP3     H113730   0.470   1.560   0.197 -1.4736 -0.2978 -1.7681
  637TP3     H213731   0.424   1.704   0.182 -1.7585 -0.2819 -0.7622
  638TP3      O13732   0.400   1.364   7.717  0.1907  0.2599 -0.0215
  638TP3     H113733   0.353   1.319   7.647 -0.3997  0.7581  0.0424
  638TP3     H213734   0.375   1.456   7.707  0.9763  0.5002  0.1571
  639TP3      O13735   4.196   3.320   7.907 -0.4855  0.0717 -0.4137
  639TP3     H113736   4.247   3.374   7.969  0.1137  1.4114 -2.0002
  639TP3     H213737   4.149   3.258   7.963  2.0780 -0.5635  1.2060
  640TP3      O13738   0.437   2.634   7.825 -0.3536 -0.5799 -0.1799
  640TP3     H113739   0.454   2.548   7.786 -3.1411 -1.0706 -0.5282
  640TP3     H213740   0.464   2.625   7.916  0.0503 -1.6092 -0.3921
  641TP3      O13741   0.977   3.554   2.242  1.0882  0.4527  0.2220
  641TP3     H113742   0.892   3.593   2.264  0.2293 -0.5328 -1.1165
  641TP3     H213743   0.983   3.478   2.299  1.6902  1.2314  1.2187
  642TP3      O13744   0.624   4.422   8.355 -0.2112 -0.6810  0.0676
  642TP3     H113745   0.532   4.418   8.378 -0.5485  0.0060 -1.0849
  642TP3     H213746   0.627   4.475   8.276  1.3468  0.7367  0.9987
  643TP3      O13747   3.880   1.597   8.988 -0.5896 -0.3088 -0.0131
  643TP3     H113748   3.889   1.691   8.970  0.2824  0.1643  2.5614
  643TP3     H213749   3.956   1.558   8.945 -0.2873  0.3248 -0.0736
  644TP3      O13750   4.337   2.681   7.787  0.3580  0.0046  0.3737
  644TP3     H113751   4.402   2.747   7.809 -0.4822  0.1523  2.8139
  644TP3     H213752   4.387   2.609   7.750  1.3552  1.7322 -1.8252
  645TP3      O13753   4.913   0.349   8.793 -0.5067 -0.0198 -0.8082
  645TP3     H113754   4.881   0.438   8.780  0.7859  0.8454  1.4368
  645TP3     H213755   4.845   0.294   8.754 -1.6478  1.8931 -1.7053
  646TP3      O13756   3.908   4.047   7.138  0.9839 -0.0545 -0.7896
  646TP3     H113757   3.967   3.973   7.151  1.0747  0.2604  0.8823
  646TP3     H213758   3.821   4.010   7.154  1.1820  0.6136  2.6479
  647TP3      O13759   3.784   1.623   7.162 -0.5448  0.3011  0.7211
  647TP3     H113760   3.767   1.624   7.256 -0.3137 -2.0956  0.8481
  647TP3     H213761   3.802   1.531   7.142  0.3255  0.9007 -1.5142
  648TP3      O13762   2.452   0.773   7.081 -0.1232  0.1156  0.7523
  648TP3     H113763   2.468   0.867   7.068  1.3027 -0.0221  1.4159
  648TP3     H213764   2.357   0.767   7.089 -0.5518  1.1043 -2.2629
  649TP3      O13765   1.498   1.690   0.317 -0.1690 -0.1449 -0.7424
  649TP3     H113766   1.587   1.662   0.293  0.1507  0.4937 -0.3057
  649TP3     H213767   1.451   1.608   0.332 -0.0174 -0.5472 -2.2263
  650TP3      O13768   1.418   4.856   1.008 -0.5110  0.5543 -0.0592
  650TP3     H113769   1.392   4.883   0.919  0.5688  1.5594 -0.0921
  650TP3     H213770   1.384   4.926   1.064 -0.0300  0.6069  0.1689
  651TP3      O13771   0.085   1.081   7.531  0.2527 -0.0049  0.0745
  651TP3     H113772   0.065   0.992   7.502  0.2471 -0.6349  1.8828
  651TP3     H213773   0.026   1.096   7.605  0.2787  1.5049 -0.1816
  652TP3      O13774   0.294   2.732   0.777  0.5596  0.4151  0.6018
  652TP3     H113775   0.334   2.816   0.800 -0.9461  1.8561 -1.5690
  652TP3     H213776   0.295   2.731   0.681  1.2251 -2.4464  0.5657
  653TP3      O13777   0.470   5.242   0.868  0.2597  0.3944 -0.0749
  653TP3     H113778   0.530   5.192   0.812 -1.1820  0.2057 -1.5388
  653TP3     H213779   0.491   5.215   0.957  0.0553 -2.3079 -0.7519
  654TP3      O13780   1.577   2.622   9.099  0.4534 -0.0724 -0.0383
  654TP3     H113781   1.492   2.625   9.143 -0.4371  2.1726 -1.7399
  654TP3     H213782   1.636   2.583   9.164 -1.6709 -0.9565  1.4847
  655TP3      O13783   3.684   3.801   0.708 -0.1972  0.0971  0.5730
  655TP3     H113784   3.749   3.803   0.638 -1.4565  0.1560 -0.6526
  655TP3     H213785   3.698   3.718   0.752 -0.0227 -0.4012 -0.4017
  656TP3      O13786   2.377   2.845   7.643 -0.0242 -0.4307 -1.1588
  656TP3     H113787   2.309   2.899   7.682  2.3479  1.5016  0.6391
  656TP3     H213788   2.418   2.900   7.577  2.2363  0.0547  0.4884
  657TP3      O13789   0.989   3.775   0.318 -0.3033  0.7170  0.0183
  657TP3     H113790   0.933   3.798   0.392 -1.1932  1.5202 -0.8838
  657TP3     H213791   1.058   3.721   0.357 -0.7768  1.0713  1.4225
  658TP3      O13792   0.028   2.843   1.381  0.1547 -0.0312 -0.7112
  658TP3     H113793  -0.014   2.765   1.417  1.5254 -0.2844  0.3953
  658TP3     H213794   0.090   2.870   1.448  0.5480  1.3338 -1.5877
  659TP3      O13795   5.068   4.547   8.528 -0.4602 -0.4998 -0.1578
  659TP3     H113796   5.113   4.464   8.539  1.7967  0.3612 -1.9862
  659TP3     H213797   4.978   4.523   8.504  0.4251 -2.4666 -1.7870
  660TP3      O13798   2.028   0.334   0.475  0.2124 -0.4256  0.6261
  660TP3     H113799   2.015   0.349   0.382 -1.5168  0.3528  0.9588
  660TP3     H213800   2.020   0.240   0.486  3.7980 -1.0071 -0.4268
  661TP3      O13801   0.782   1.632  10.092  0.1095 -0.1510  0.0690
  661TP3     H113802   0.807   1.602  10.005  0.2206  1.1689 -0.3699
  661TP3     H213803   0.832   1.712  10.105 -0.1634 -0.1497  1.2190
  662TP3      O13804   3.828   2.875   6.945 -0.3756 -0.5093 -0.3532
  662TP3     H113805   3.800   2.879   6.853 -3.0681 -2.7120  0.2449
  662TP3     H213806   3.858   2.785   6.957  1.7653  0.2504  0.5456
  663TP3      O13807   4.758   1.803   2.218 -0.4306  0.2279 -0.5926
  663TP3     H113808   4.851   1.790   2.233 -0.0743  2.0380 -0.9883
  663TP3     H213809   4.715   1.746   2.281  0.9528  0.4668  0.6182
  664TP3      O13810   0.542   0.401   0.156  0.6019  0.3508  0.7551
  664TP3     H113811   0.579   0.401   0.068 -2.4040 -0.7434 -0.6420
  664TP3     H213812   0.586   0.328   0.201  2.0279  0.8038  0.1431
  665TP3      O13813   4.954   1.427   7.972 -0.3976 -0.2692 -0.4988
  665TP3     H113814   4.997   1.446   7.888 -0.5266 -0.5301 -0.6259
  665TP3     H213815   5.019   1.376   8.020  0.7883  2.1594  0.6747
  666TP3      O13816   3.945   1.478   8.263 -0.3289 -0.4670  0.1705
  666TP3     H113817   3.866   1.427   8.244 -0.6897 -0.1033  0.6640
  666TP3     H213818   3.966   1.522   8.181 -0.2988 -1.0235 -0.1220
  667TP3      O13819   0.723   4.115   7.564  0.3384 -0.3783  0.1865
  667TP3     H113820   0.715   4.020   7.556 -0.3124 -0.2310 -1.3181
  667TP3     H213821   0.816   4.130   7.580  0.5066 -1.2617  0.0938
  668TP3      O13822   4.646   2.231   6.566 -0.6422  0.6621  0.0888
  668TP3     H113823   4.692   2.254   6.647 -1.7271 -0.4264  1.0426
  668TP3     H213824   4.717   2.212   6.504  0.3187 -2.3987  1.9173
  669TP3      O13825   4.015   4.513   7.909 -0.4859 -0.3550  0.3284
  669TP3     H113826   3.940   4.472   7.953  0.4951 -0.3686  2.0821
  669TP3     H213827   4.037   4.452   7.838  0.2775 -2.4448  2.2185
  670TP3      O13828   2.668   2.264   9.292 -0.1325  0.7499 -0.4516
  670TP3     H113829   2.701   2.326   9.357  0.5217  1.9900 -1.8933
  670TP3     H213830   2.725   2.188   9.301  1.0346  1.5570 -0.6334
  671TP3      O13831   2.806   1.010   9.174  0.2478  0.2652  0.3833
  671TP3     H113832   2.726   1.030   9.126  0.7590 -1.1753 -1.1972
  671TP3     H213833   2.777   0.985   9.262 -1.1467 -0.9687 -0.3876
  672TP3      O13834   4.986   3.698   0.767 -0.0555 -0.6531 -0.3411
  672TP3     H113835   4.945   3.614   0.789 -0.2167 -0.6100 -0.4698
  672TP3     H213836   4.952   3.719   0.680 -0.3165 -0.2697 -0.1545
  673TP3      O13837   4.961   4.224   1.600  0.0867 -0.0073 -0.0882
  673TP3     H113838   4.964   4.131   1.580  2.3247  0.6442 -3.6913
  673TP3     H213839   5.045   4.242   1.643 -0.4049  0.3502  0.7480
  674TP3      O13840   1.339   1.592   7.388  0.0391  0.7630 -0.2813
  674TP3     H113841   1.350   1.652   7.315  0.4841  0.8645 -0.1360
  674TP3     H213842   1.246   1.570   7.387 -0.0629  1.1857 -0.5449
  675TP3      O13843   3.554   0.309   9.572  0.0074 -0.3263 -0.1481
  675TP3     H113844   3.622   0.275   9.630 -0.5594 -1.7160 -0.2638
  675TP3     H213845   3.473   0.301   9.622 -0.0285  2.1601  0.3359
  676TP3      O13846   1.936   1.066   1.369  0.3174 -0.2366  0.0747
  676TP3     H113847   1.852   1.083   1.328  1.1976 -0.9600 -2.1951
  676TP3     H213848   1.994   1.133   1.335  0.4105  1.2070  2.7992
  677TP3      O13849   5.223   3.196   2.982 -0.7684 -0.2344  0.3053
  677TP3     H113850   5.209   3.207   2.888  1.4345  0.4755 -0.0146
  677TP3     H213851   5.301   3.142   2.988  0.3663  1.4491  1.6478
  678TP3      O13852   4.634   3.460   8.138 -0.5677  0.2241 -0.2703
  678TP3     H113853   4.727   3.480   8.139 -0.7970  1.5013 -1.4423
  678TP3     H213854   4.608   3.467   8.046 -2.0764  1.2422  0.1843
  679TP3      O13855   1.720   0.291   2.429 -0.0723  0.3476 -1.0597
  679TP3     H113856   1.711   0.386   2.431  0.4061  0.3997 -1.2298
  679TP3     H213857   1.814   0.275   2.439 -0.0173 -0.0658 -2.1155
  680TP3      O13858   5.209   1.410   3.207  0.1447 -0.3207  1.1409
  680TP3     H113859   5.271   1.340   3.225  0.6454 -0.6310 -1.4274
  680TP3     H213860   5.233   1.441   3.120 -2.5591  0.3577  0.5523
  681TP3      O13861   2.209   2.316   9.639 -0.3094 -0.1582 -0.7128
  681TP3     H113862   2.162   2.340   9.559 -1.9536  1.6362  0.7136
  681TP3     H213863   2.145   2.328   9.709  2.3392  3.2128  1.4667
  682TP3      O13864   0.367   1.166   9.726 -0.5383 -0.2288  0.2770
  682TP3     H113865   0.305   1.184   9.656 -0.0369 -1.8779 -0.6575
  682TP3     H213866   0.365   1.071   9.736  2.9474 -0.5880 -0.9085
  683TP3      O13867   1.797   2.184   2.087 -0.1968  0.0939  0.4399
  683TP3     H113868   1.718   2.137   2.061 -0.4698  1.4961 -1.5158
  683TP3     H213869   1.858   2.116   2.114 -0.3080 -1.5616 -2.9837
  684TP3      O13870   2.936   4.563   7.650  0.2299 -0.0360 -0.4903
  684TP3     H113871   2.849   4.603   7.647 -0.5568 -1.6797 -0.4946
  684TP3     H213872   2.976   4.585   7.566 -0.5421 -0.0253 -0.8646
  685TP3      O13873   0.537   2.077   8.659  0.2464  0.2661  0.6425
  685TP3     H113874   0.590   2.047   8.585  1.3625 -0.5002  1.7358
  685TP3     H213875   0.550   2.172   8.661 -0.7739  0.4791 -0.8695
  686TP3      O13876   1.633   4.351   0.756 -0.3409 -0.0812  0.1431
  686TP3     H113877   1.714   4.392   0.727 -0.2813 -0.0301  0.3867
  686TP3     H213878   1.600   4.408   0.825 -0.8757  0.2068 -0.3449
  687TP3      O13879   0.124   2.660   1.711 -0.3975 -0.1894 -0.0576
  687TP3     H113880   0.072   2.600   1.763 -1.7266  1.3342  0.4501
  687TP3     H213881   0.191   2.605   1.670 -2.1291 -2.1482 -0.3866
  688TP3      O13882   1.302   1.875   8.045 -0.0263 -0.7597  0.1203
  688TP3     H113883   1.222   1.823   8.042 -0.2728 -0.4220  0.6987
  688TP3     H213884   1.357   1.839   7.975 -1.1820 -0.1623 -1.1480
  689TP3      O13885   2.799   2.973   9.728 -0.1545  0.2643  0.0127
  689TP3     H113886   2.735   3.041   9.710 -0.3878 -0.0621 -0.4275
  689TP3     H213887   2.859   2.976   9.653  0.3983  0.6264  0.4639
  690TP3      O13888   0.139   2.019   2.271 -0.1734 -0.2230  0.2473
  690TP3     H113889   0.212   2.059   2.223  0.4996 -1.5194  0.1182
  690TP3     H213890   0.068   2.082   2.264 -0.1287 -0.3503 -2.5141
  691TP3      O13891   1.635   1.781   0.833  0.3181  0.1876  0.5570
  691TP3     H113892   1.558   1.838   0.828 -1.8767 -2.5147  0.7111
  691TP3     H213893   1.639   1.740   0.747 -0.0567 -1.6285  1.3676
  692TP3      O13894   4.245   2.113   7.129 -0.7473 -0.0881  0.1739
  692TP3     H113895   4.214   2.086   7.043 -1.0054  0.3415  0.1325
  692TP3     H213896   4.339   2.123   7.118 -0.9746  1.6004 -0.5071
  693TP3      O13897   3.114   1.857   8.055  0.5039  0.3561  0.4704
  693TP3     H113898   3.133   1.799   7.980  0.0055 -0.1860  0.7508
  693TP3     H213899   3.102   1.797   8.129  0.0854  0.8251  0.7925
  694TP3      O13900   1.751   4.750   9.356  0.5936 -0.3684  0.0878
  694TP3     H113901   1.787   4.662   9.346  0.2585 -0.4182 -0.8194
  694TP3     H213902   1.824   4.808   9.336  0.6059 -0.4575 -0.1357
  695TP3      O13903   2.195   3.073   1.201  0.5746 -0.4979 -0.1191
  695TP3     H113904   2.283   3.106   1.220  0.0850  0.4254  0.6516
  695TP3     H213905   2.203   3.031   1.115  1.6391  0.0432 -0.3046
  696TP3      O13906   1.849   2.882   8.784  0.4097  0.1647  0.2623
  696TP3     H113907   1.900   2.953   8.821  1.2190 -0.4965  0.4536
  696TP3     H213908   1.790   2.855   8.854  1.5008 -0.6699  0.8929
  697TP3      O13909   1.918   3.721   0.597  0.3138 -0.1291  0.1851
  697TP3     H113910   1.995   3.769   0.628 -0.7864  0.5738  1.9665
  697TP3     H213911   1.843   3.770   0.632 -0.9362 -1.1742 -0.9329
  698TP3      O13912   3.473   4.580   1.921 -0.2071 -0.0554  1.0702
  698TP3     H113913   3.482   4.545   2.009  1.5289  0.9627  1.3620
  698TP3     H213914   3.555   4.628   1.906 -0.7137  0.3147 -0.8625
  699TP3      O13915   2.737   2.300   1.074 -0.0518 -0.4249  0.7942
  699TP3     H113916   2.668   2.355   1.110  0.2968  0.5772 -0.0015
  699TP3     H213917   2.694   2.246   1.008 -0.1896 -0.2717  0.7599
  700TP3      O13918   4.798   2.831   8.305  0.0790 -0.3553 -0.2365
  700TP3     H113919   4.826   2.921   8.284  1.0434 -0.5485  0.2022
  700TP3     H213920   4.767   2.797   8.221  2.2337 -0.5092 -1.0473
  701TP3      O13921   3.138   2.785   8.274  0.3600  0.4767 -0.1829
  701TP3     H113922   3.056   2.756   8.234  0.6470  0.1987 -0.5760
  701TP3     H213923   3.200   2.787   8.202  0.4761  1.6006 -0.0797
  702TP3      O13924   2.421   4.490   1.789 -0.0281 -0.2618  0.2302
  702TP3     H113925   2.363   4.419   1.761 -0.1606  0.3904 -1.2643
  702TP3     H213926   2.463   4.519   1.708  0.9740  0.5285  1.0089
  703TP3      O13927   4.574   2.980   9.096 -0.8316  0.1307  0.0395
  703TP3     H113928   4.631   2.989   9.172  1.4043  1.2671 -1.6438
  703TP3     H213929   4.494   3.026   9.121 -0.6806 -0.6093  2.1105
  704TP3      O13930   1.847   3.002  10.025  0.6002  0.4127  0.6319
  704TP3     H113931   1.917   2.993   9.960  0.4147  1.7222  0.2318
  704TP3     H213932   1.833   3.096  10.033 -0.8048  0.1984  1.0451
  705TP3      O13933   0.217   0.573   0.023 -0.0195  0.1105 -0.9241
  705TP3     H113934   0.186   0.486   0.048  0.5880 -0.1033 -0.9003
  705TP3     H213935   0.180   0.632   0.089  1.0728 -0.3695  0.1493
  706TP3      O13936   2.085   4.378   7.376  0.0515  0.2265 -0.1563
  706TP3     H113937   2.167   4.391   7.424  0.3978  1.1735 -0.9787
  706TP3     H213938   2.050   4.295   7.410  1.1413  0.0205  0.4952
  707TP3      O13939   2.824   4.548   1.717 -0.6989  0.1811 -0.1067
  707TP3     H113940   2.862   4.526   1.802 -0.4879  0.6251 -0.0872
  707TP3     H213941   2.810   4.642   1.720 -0.2845  0.2695 -0.7266
  708TP3      O13942   1.733   1.365   1.384 -0.8519 -0.4594 -0.5237
  708TP3     H113943   1.672   1.424   1.338 -0.3708  1.8500  1.5825
  708TP3     H213944   1.819   1.390   1.351 -0.8029 -1.6462 -1.3197
  709TP3      O13945   0.177   0.969   8.960  0.1418 -0.4881  0.2539
  709TP3     H113946   0.102   0.910   8.960  1.5272 -2.3829 -0.9362
  709TP3     H213947   0.167   1.021   8.880 -1.4709  1.5333  1.6767
  710TP3      O13948   0.257   0.822   8.092 -0.6744  0.2501  0.2926
  710TP3     H113949   0.257   0.751   8.028 -1.7004 -1.1622  1.8001
  710TP3     H213950   0.259   0.902   8.039  2.5346 -0.8066 -1.4691
  711TP3      O13951   5.057   2.756   6.987 -0.7281  0.1144 -0.8343
  711TP3     H113952   5.100   2.711   6.914 -0.1067 -0.2606 -0.2549
  711TP3     H213953   4.966   2.729   6.983 -1.3460  2.2057 -3.0899
  712TP3      O13954   1.968   1.506  10.099 -0.3316 -0.0290  0.3618
  712TP3     H113955   1.904   1.531  10.032  0.9579 -1.6424 -1.6166
  712TP3     H213956   2.036   1.573  10.092  0.3991 -0.8614 -0.8965
  713TP3      O13957   3.464   3.446   8.664  0.4248 -0.0519 -0.0622
  713TP3     H113958   3.451   3.375   8.600 -0.1057 -0.2918  0.2956
  713TP3     H213959   3.558   3.448   8.679  0.5576  0.0482 -0.8991
  714TP3      O13960   3.265   2.881   1.420 -0.3001 -0.1130  0.0459
  714TP3     H113961   3.320   2.853   1.493 -0.1912 -0.5932 -0.2156
  714TP3     H213962   3.322   2.933   1.365  0.9968 -3.4439 -2.0861
  715TP3      O13963   1.568   0.410   0.454 -0.3962  0.0670 -0.0993
  715TP3     H113964   1.638   0.450   0.402 -0.3744  0.7929  0.4639
  715TP3     H213965   1.516   0.360   0.391  0.4546 -0.2351 -0.5714
  716TP3      O13966   2.923   4.200   2.671  0.5967 -0.0995  0.1761
  716TP3     H113967   2.969   4.121   2.641 -2.1063 -1.1287 -1.6343
  716TP3     H213968   2.944   4.265   2.604  0.3778 -0.2220 -0.0143
  717TP3      O13969   3.079   1.106   2.428 -0.0067  0.6417 -0.1833
  717TP3     H113970   3.034   1.036   2.382 -0.8983 -0.6848  2.5320
  717TP3     H213971   3.010   1.169   2.449  0.7112  2.2355 -2.1905
  718TP3      O13972   3.329   2.373   7.667 -0.3366  0.7060  0.0207
  718TP3     H113973   3.367   2.413   7.589  4.3594 -1.7566  0.7051
  718TP3     H213974   3.289   2.292   7.635 -0.2581  0.6996 -0.0611
  719TP3      O13975   1.757   1.982  10.056  0.1165  0.6983  0.1320
  719TP3     H113976   1.673   1.940  10.078  1.6510 -3.1652 -0.6538
  719TP3     H213977   1.810   1.973  10.135  0.4194  1.4198  0.0192
  720TP3      O13978   2.583   2.418   0.845 -0.1816 -0.5447  0.2234
  720TP3     H113979   2.595   2.451   0.934 -0.0569  0.0991 -0.0273
  720TP3     H213980   2.490   2.396   0.840 -0.6667  1.4301 -0.1410
  721TP3      O13981   2.449   4.675   8.083 -0.3283 -0.0944 -0.1501
  721TP3     H113982   2.453   4.643   8.173  0.0693  1.1399  0.2884
  721TP3     H213983   2.433   4.596   8.030  0.4856 -0.9859  0.8870
  722TP3      O13984   2.962   4.698   2.487  0.5250  0.2177 -0.9377
  722TP3     H113985   2.979   4.747   2.568  0.7249 -1.1857 -0.1066
  722TP3     H213986   2.970   4.764   2.418 -0.2780  1.5932  0.2092
  723TP3      O13987   2.911   1.761   7.524  1.0483  0.3064  0.3066
  723TP3     H113988   2.845   1.729   7.586 -0.4316  2.5482  0.0023
  723TP3     H213989   2.966   1.820   7.576  0.4715  1.3393 -0.2139
  724TP3      O13990   0.388   2.948   7.244  0.4291  0.0607  0.1972
  724TP3     H113991   0.450   2.892   7.197  0.3605 -0.3729  0.6270
  724TP3     H213992   0.303   2.923   7.210 -0.0163 -2.7666  3.0039
  725TP3      O13993   0.032   4.002   1.501  0.1565 -0.5695  0.3123
  725TP3     H113994  -0.029   4.073   1.519  0.5137 -0.4552  1.0857
  725TP3     H213995   0.119   4.042   1.509  0.3582 -1.0758  0.6719
  726TP3      O13996   3.344   4.705   2.594 -0.3603  0.0837 -0.2335
  726TP3     H113997   3.366   4.788   2.551 -0.3433  0.4928  0.5369
  726TP3     H213998   3.253   4.716   2.621  0.1323  0.5043  1.3200
  727TP3      O13999   2.877   3.048   8.786 -0.4781 -0.0822  0.0849
  727TP3     H114000   2.849   3.095   8.864 -1.9396  1.1756 -1.1151
  727TP3     H214001   2.877   2.956   8.811 -1.0895  0.2893  1.5131
  728TP3      O14002   0.391   3.707   9.304 -0.2285 -0.3123 -0.1639
  728TP3     H114003   0.446   3.677   9.232  0.1246  1.8865 -0.8933
  728TP3     H214004   0.303   3.710   9.266 -0.1307  0.3014 -0.3636
  729TP3      O14005   1.390   1.881   1.822  0.2275 -0.5424  0.3022
  729TP3     H114006   1.416   1.972   1.809  1.3738 -0.9263 -0.2164
  729TP3     H214007   1.320   1.867   1.759  0.6405 -0.2564 -0.2324
  730TP3      O14008   0.116   2.812   9.760  0.5885  0.0857  0.2852
  730TP3     H114009   0.071   2.732   9.733 -1.9214  1.3357  0.5100
  730TP3     H214010   0.157   2.845   9.680  0.4572 -0.6856 -0.1055
  731TP3      O14011   0.610   4.720   2.103  0.3103  0.5786  0.4493
  731TP3     H114012   0.527   4.766   2.096 -0.0943 -0.0921  0.7123
  731TP3     H214013   0.648   4.725   2.015 -0.9212 -0.7728 -0.2174
  732TP3      O14014   0.723   4.737   1.846  0.5900  0.1236 -0.1390
  732TP3     H114015   0.705   4.831   1.841 -0.4977 -0.0265  0.5888
  732TP3     H214016   0.816   4.732   1.869  0.3061  1.0744  1.3720
  733TP3      O14017   5.281   1.178   7.771 -0.5066 -0.5035 -0.4627
  733TP3     H114018   5.199   1.142   7.805 -0.7641  2.1294  2.0962
  733TP3     H214019   5.349   1.120   7.806 -1.0716 -0.2403  1.1576
  734TP3      O14020   0.575   4.985   0.109  0.1349  0.4200 -0.1230
  734TP3     H114021   0.572   5.027   0.023  0.2895 -1.3491 -1.0328
  734TP3     H214022   0.611   4.898   0.092  1.3869  0.4732  1.9351
  735TP3      O14023   0.736   0.029   2.220 -0.2123 -0.2778  0.2970
  735TP3     H114024   0.752   0.098   2.155 -1.1369  0.1461  0.5009
  735TP3     H214025   0.748  -0.053   2.172  0.0940  0.0259 -0.1547
  736TP3      O14026   3.116   4.079   0.239  0.2396 -0.0140  0.3417
  736TP3     H114027   3.023   4.098   0.226  0.2710 -0.6768 -0.9821
  736TP3     H214028   3.161   4.150   0.193  0.3727 -0.4519 -0.2148
  737TP3      O14029   0.937   2.916   7.396 -1.0031 -0.3824  0.5136
  737TP3     H114030   0.869   2.882   7.338 -0.4088 -1.5468  0.4728
  737TP3     H214031   0.943   3.009   7.373  0.2145 -1.0397 -2.3764
  738TP3      O14032   0.490   4.674   7.111 -0.1587  0.2038 -0.7941
  738TP3     H114033   0.525   4.608   7.052 -0.0503 -0.0826 -0.4115
  738TP3     H214034   0.428   4.723   7.057 -1.3863 -1.1714 -0.6839
  739TP3      O14035   0.904   1.040   0.137 -0.1114 -0.1329 -0.5341
  739TP3     H114036   0.956   1.117   0.114 -2.7220  1.3732 -1.8420
  739TP3     H214037   0.923   0.976   0.069 -1.0916  1.0149 -1.9618
  740TP3      O14038   3.963   4.937   7.534  0.4302  0.4721 -0.2120
  740TP3     H114039   4.024   4.982   7.593  1.2098  0.5546 -1.0505
  740TP3     H214040   4.019   4.883   7.479 -0.3155  0.1271 -0.6436
  741TP3      O14041   1.469   3.967   0.821  0.0531  0.2555 -0.6351
  741TP3     H114042   1.380   3.953   0.853 -0.1033 -1.3737 -1.6420
  741TP3     H214043   1.512   4.017   0.890 -1.1233 -0.4917  0.6876
  742TP3      O14044   4.168   2.874   9.035 -0.1174  0.5056 -0.2860
  742TP3     H114045   4.084   2.860   8.991 -0.3407 -0.9440  0.5392
  742TP3     H214046   4.210   2.943   8.984 -2.5633  2.6651  0.3758
  743TP3      O14047   3.601   2.796   7.081  0.3672 -0.0221 -0.2982
  743TP3     H114048   3.553   2.800   6.998  0.2605 -0.3587 -0.2525
  743TP3     H214049   3.689   2.827   7.059  0.2951  0.0374 -0.5052
  744TP3      O14050   4.780   2.101   2.172 -0.3782  0.4456  0.1279
  744TP3     H114051   4.785   2.016   2.217 -1.0086  0.2194 -0.2099
  744TP3     H214052   4.770   2.079   2.079 -0.2150  0.8935  0.0001
  745TP3      O14053   1.108   0.497   9.456 -0.0742 -0.2660  0.4332
  745TP3     H114054   1.202   0.489   9.473 -0.0755 -1.2590  0.0254
  745TP3     H214055   1.069   0.420   9.496 -0.6616 -0.0906  0.2103
  746TP3      O14056   0.905   5.282   8.470 -0.4431  0.0379  0.2204
  746TP3     H114057   0.820   5.245   8.445 -0.2805  0.2142 -0.6258
  746TP3     H214058   0.969   5.218   8.437 -0.2312  0.1500  0.4170
  747TP3      O14059   0.891   1.565   1.884 -0.0006 -0.1451  0.2806
  747TP3     H114060   0.807   1.586   1.926  0.7661  3.4528  0.3089
  747TP3     H214061   0.945   1.531   1.955 -0.2130  1.3803  1.2131
  748TP3      O14062   4.515   1.195   9.237 -0.2367  0.0404 -0.4149
  748TP3     H114063   4.435   1.187   9.289 -1.7511 -0.9513 -2.7280
  748TP3     H214064   4.555   1.277   9.268 -2.0643  0.5109  0.8976
  749TP3      O14065   4.993   2.373   0.937  0.2459  0.2508  0.5969
  749TP3     H114066   5.068   2.379   0.996  0.9461 -0.6977 -0.1394
  749TP3     H214067   4.917   2.369   0.994  0.7833  0.9489  1.3744
  750TP3      O14068   0.007   2.325   9.533 -0.5737 -0.2976 -0.2132
  750TP3     H114069  -0.078   2.364   9.512 -0.5552  0.3469  0.8614
  750TP3     H214070   0.048   2.386   9.594  0.7419 -0.5293 -0.8214
  751TP3      O14071   2.318   2.405   0.852  0.0658  0.6413 -0.3032
  751TP3     H114072   2.253   2.343   0.885 -0.3889  0.3872 -1.5891
  751TP3     H214073   2.277   2.491   0.862  0.3556  0.6745  0.7070
  752TP3      O14074   1.151   2.524   0.178 -0.3214  0.8584  0.2951
  752TP3     H114075   1.155   2.609   0.136  1.8866  0.7031  0.0915
  752TP3     H214076   1.241   2.506   0.205 -0.7082 -1.4496  0.2354
  753TP3      O14077   3.222   0.398   1.397  0.4170 -0.3510  0.2393
  753TP3     H114078   3.285   0.406   1.325 -0.5674  1.8005 -0.4534
  753TP3     H214079   3.145   0.357   1.357 -0.6406  2.0749 -0.3543
  754TP3      O14080   0.838   4.468   8.970  0.0451 -0.2486 -0.3274
  754TP3     H114081   0.750   4.454   9.006  0.7656 -1.8859  0.9067
  754TP3     H214082   0.843   4.408   8.895  0.1241 -0.2048 -0.3573
  755TP3      O14083   3.476   0.989   0.265 -0.1300  0.4377  0.3512
  755TP3     H114084   3.421   0.930   0.214  0.3203  0.6894 -0.4539
  755TP3     H214085   3.452   1.077   0.235 -2.3426  0.8948  3.0528
  756TP3      O14086   1.658   2.678   2.568  0.2503 -0.2392  0.6128
  756TP3     H114087   1.679   2.685   2.475  0.2916  0.5406  0.6778
  756TP3     H214088   1.678   2.764   2.604  1.0654 -0.7753  1.5099
  757TP3      O14089   0.570   3.600   8.467  0.1081 -0.2346 -0.0719
  757TP3     H114090   0.593   3.540   8.396  1.2586 -0.2829  0.3138
  757TP3     H214091   0.525   3.545   8.531 -2.0078  0.0338 -1.2289
  758TP3      O14092   2.871   4.468   6.714 -0.2541 -0.5660  0.4113
  758TP3     H114093   2.932   4.485   6.785 -0.0537 -0.3424  0.1836
  758TP3     H214094   2.795   4.428   6.757 -0.5340  0.4587  0.8847
  759TP3      O14095   2.912   0.787   1.605  0.0898  0.4536  0.5654
  759TP3     H114096   2.975   0.826   1.665  2.1886 -0.2395 -1.0598
  759TP3     H214097   2.944   0.698   1.591 -0.0145  0.7250 -1.8788
  760TP3      O14098   0.948   4.563   8.636 -0.4432  0.1029  0.4078
  760TP3     H114099   1.015   4.508   8.677 -1.2011 -0.2073  1.2642
  760TP3     H214100   0.986   4.587   8.551  0.2526 -1.0707  0.3557
  761TP3      O14101   0.770   3.216   9.902  0.1774 -0.2814 -0.1420
  761TP3     H114102   0.696   3.193   9.959 -0.9997  0.1358 -1.4477
  761TP3     H214103   0.770   3.311   9.900 -0.8037 -0.2727 -2.0387
  762TP3      O14104   0.875   0.692   8.929  0.1658  0.2422  0.2322
  762TP3     H114105   0.860   0.636   8.853 -0.3430  0.6003  0.0666
  762TP3     H214106   0.791   0.734   8.945  0.5724  1.0559  0.2840
  763TP3      O14107   0.818   1.240   7.114  0.2161 -0.6801  0.0403
  763TP3     H114108   0.785   1.323   7.080  0.7339  0.0353  1.2215
  763TP3     H214109   0.760   1.220   7.188  0.9884 -0.5994  0.6809
  764TP3      O14110   4.049   3.894   2.668 -0.5428  0.6070  0.1806
  764TP3     H114111   3.988   3.821   2.667 -1.9895  1.7724 -1.3401
  764TP3     H214112   4.082   3.896   2.758 -3.3345  0.3847  1.3109
  765TP3      O14113   0.431   4.614   8.316  0.4194  0.2543 -0.0151
  765TP3     H114114   0.350   4.571   8.287  1.0775 -0.5169 -0.7698
  765TP3     H214115   0.429   4.700   8.272  0.0044  0.2454 -0.0185
  766TP3      O14116   0.056   3.537  10.068  0.0437 -0.0458  0.4012
  766TP3     H114117   0.109   3.558   9.991  0.1177  0.1112  0.4931
  766TP3     H214118   0.029   3.623  10.102  1.6421  0.0193  1.6893
  767TP3      O14119   4.890   2.005   2.538  0.3341 -0.3989 -0.2313
  767TP3     H114120   4.804   1.974   2.511 -0.1019  1.2306 -0.8021
  767TP3     H214121   4.891   1.998   2.633 -0.6299  0.0574 -0.1836
  768TP3      O14122   5.064   5.182   8.043  0.0541  0.3835  0.1438
  768TP3     H114123   5.038   5.265   8.082  0.2157  2.3550 -3.5086
  768TP3     H214124   4.982   5.134   8.032 -0.2005  0.5764  1.1283
  769TP3      O14125   1.142   1.369   2.882 -0.4726 -0.1993 -0.0359
  769TP3     H114126   1.098   1.452   2.897 -2.7889 -1.2019 -0.7213
  769TP3     H214127   1.117   1.315   2.957  1.8788 -0.0096  0.9533
  770TP3      O14128   0.682   0.864   9.018  0.1415  0.5683  0.3174
  770TP3     H114129   0.623   0.938   9.010  1.0525  1.2362 -0.4907
  770TP3     H214130   0.729   0.878   9.100 -1.6517 -0.6287  1.6271
  771TP3      O14131   3.164   2.949   7.584 -0.8114  0.6106  0.3101
  771TP3     H114132   3.073   2.941   7.613 -0.6627 -0.6036  0.5093
  771TP3     H214133   3.212   2.975   7.663 -1.1791  2.8759 -0.1442
  772TP3      O14134   3.654   2.614   2.015 -0.0257  0.2226  0.3791
  772TP3     H114135   3.612   2.550   1.958  0.0749  0.8658 -0.4490
  772TP3     H214136   3.732   2.642   1.966  0.3205  0.4434  1.0436
  773TP3      O14137   4.159   1.522   8.586  0.0631 -0.1307 -0.5662
  773TP3     H114138   4.157   1.610   8.625  0.4276  0.7520 -2.4304
  773TP3     H214139   4.184   1.537   8.495  2.9095 -2.4194 -0.3040
  774TP3      O14140   5.090   2.459   7.938 -0.1597 -0.0667  0.2841
  774TP3     H114141   5.047   2.513   8.003  0.2015 -1.6651  1.9547
  774TP3     H214142   5.066   2.369   7.961 -0.6955 -0.6828 -2.3219
  775TP3      O14143   0.713   4.012   0.639  0.6568  0.3741  0.1933
  775TP3     H114144   0.684   4.043   0.553  1.2588 -1.6033 -0.7744
  775TP3     H214145   0.706   4.089   0.695  1.6377  2.1437 -1.9440
  776TP3      O14146   2.211   0.043   7.442 -0.2880 -0.0534 -0.0338
  776TP3     H114147   2.161   0.013   7.517 -0.1561 -0.8969 -0.2690
  776TP3     H214148   2.183   0.133   7.428  0.8742  0.7007  2.0268
  777TP3      O14149   2.423   4.132   2.240 -0.3257 -0.4792 -0.2771
  777TP3     H114150   2.446   4.220   2.270 -0.4720  0.4292 -2.6235
  777TP3     H214151   2.327   4.129   2.246 -0.2549 -0.8967  0.8171
  778TP3      O14152   1.907   1.186   8.787 -0.0790 -0.3611  0.9354
  778TP3     H114153   1.858   1.148   8.860 -2.6992  2.9855  1.1623
  778TP3     H214154   1.928   1.274   8.816  1.5012  0.0747 -1.2656
  779TP3      O14155   0.447   0.271   8.274 -0.0819  0.1561 -0.2433
  779TP3     H114156   0.540   0.250   8.265 -0.1289  0.0515 -0.4939
  779TP3     H214157   0.404   0.217   8.207 -0.7521 -2.7123  2.2959
  780TP3      O14158   5.147   2.147   8.206  0.1178 -1.1347 -0.0055
  780TP3     H114159   5.104   2.231   8.195 -0.2637 -1.2559  0.5312
  780TP3     H214160   5.172   2.145   8.298  3.0772 -0.2097 -0.6697
  781TP3      O14161   4.448   3.754   2.006  0.5012 -0.4946  0.6080
  781TP3     H114162   4.540   3.761   1.980  0.2923  1.4256  0.2046
  781TP3     H214163   4.435   3.828   2.066 -1.1872  0.3464 -0.7248
  782TP3      O14164   3.792   0.838   8.088  0.1459 -0.2763  0.0740
  782TP3     H114165   3.751   0.917   8.052 -0.4608 -0.7415 -0.2557
  782TP3     H214166   3.843   0.871   8.163  1.6099  0.7284 -1.2845
  783TP3      O14167   3.967   4.143   2.661 -0.4285 -0.2629  0.6068
  783TP3     H114168   3.886   4.159   2.613  0.3925  1.0963 -0.4014
  783TP3     H214169   3.989   4.052   2.641  0.3967  0.5045 -2.5225
  784TP3      O14170   0.832   1.630   9.812  0.3703  0.0927  0.3953
  784TP3     H114171   0.744   1.652   9.781  0.2819 -1.0831 -0.2329
  784TP3     H214172   0.887   1.702   9.779 -0.4637  1.3190  1.5582
  785TP3      O14173   4.104   1.887   0.989  0.5134 -0.0926 -0.4535
  785TP3     H114174   4.035   1.847   1.041  1.9045 -0.5857  1.1154
  785TP3     H214175   4.104   1.979   1.017 -2.3712  1.0923 -3.7154
  786TP3      O14176   1.476   1.494   7.616 -0.2557  0.0569  0.0736
  786TP3     H114177   1.529   1.574   7.621  0.5857 -0.5103  0.4333
  786TP3     H214178   1.434   1.499   7.530  1.6636 -0.2602 -0.9356
  787TP3      O14179   0.378   3.782   7.813 -0.2806 -0.2786  0.3718
  787TP3     H114180   0.304   3.779   7.874  0.2239  1.0853  1.0757
  787TP3     H214181   0.384   3.693   7.779 -3.1718 -0.1387 -0.8343
  788TP3      O14182   4.511   3.078   9.703 -0.0145  0.2154  0.2684
  788TP3     H114183   4.584   3.019   9.723  0.1733  0.5491  0.5994
  788TP3     H214184   4.461   3.033   9.636 -0.1657 -0.5542  0.8857
  789TP3      O14185   4.389   2.602   0.617  0.2066  0.0110  0.5504
  789TP3     H114186   4.374   2.508   0.602 -0.7191  0.0234  1.3476
  789TP3     H214187   4.330   2.645   0.555  0.5587  0.0716  0.2551
  790TP3      O14188   0.606   0.306   8.791 -0.1991 -0.1587 -0.7680
  790TP3     H114189   0.562   0.314   8.706 -0.6197  0.3545 -0.5069
  790TP3     H214190   0.638   0.216   8.793  1.0515  0.2268 -2.0656
  791TP3      O14191   1.792   0.572   0.892 -0.1610  1.1806 -0.0234
  791TP3     H114192   1.860   0.640   0.895 -0.2480  1.2984 -0.5628
  791TP3     H214193   1.789   0.546   0.800 -0.3041  0.6189  0.1367
  792TP3      O14194   1.228   2.155   0.079  0.0390  0.0594 -0.1468
  792TP3     H114195   1.228   2.216   0.153  1.4388  0.5238 -0.5036
  792TP3     H214196   1.166   2.086   0.105  0.4182  0.2670  1.4095
  793TP3      O14197   2.700   1.924   0.670 -0.1077 -0.2662 -0.3739
  793TP3     H114198   2.721   2.017   0.685 -0.2600 -0.4491  1.1212
  793TP3     H214199   2.642   1.901   0.743 -1.2795 -1.1627 -1.5342
  794TP3      O14200   1.866   2.842   8.319  0.4657 -0.4388 -0.0073
  794TP3     H114201   1.839   2.841   8.410 -0.5979  0.3947 -0.2974
  794TP3     H214202   1.945   2.896   8.318  1.9398 -2.4491  0.7620
  795TP3      O14203   1.746   2.314   0.054 -0.3031  0.4508 -0.1160
  795TP3     H114204   1.723   2.250   0.122  1.4207 -0.8305 -0.6533
  795TP3     H214205   1.755   2.396   0.101  1.1129 -0.4579  1.3349
  796TP3      O14206   3.290   4.996   8.377  0.0324  0.3252 -0.3385
  796TP3     H114207   3.343   4.953   8.309  1.3343 -0.0501  0.8511
  796TP3     H214208   3.278   4.928   8.443 -0.2737  0.9974  0.3048
  797TP3      O14209   1.303   5.259   7.173 -0.3287 -0.5455 -0.5710
  797TP3     H114210   1.221   5.210   7.183  0.6027 -1.8117  2.0376
  797TP3     H214211   1.371   5.192   7.183  1.0098  0.7153 -1.0651
  798TP3      O14212   1.945   1.812   1.859 -0.2783 -0.0666 -0.1458
  798TP3     H114213   1.883   1.841   1.926 -1.3711  2.9896 -2.1989
  798TP3     H214214   1.893   1.755   1.802 -0.9144  1.3881 -1.0933
  799TP3      O14215   4.936   3.177   1.156 -0.7089 -0.4658  0.1861
  799TP3     H114216   4.960   3.224   1.076  1.6546  1.6603  1.9822
  799TP3     H214217   4.991   3.099   1.155  1.8393  1.2016  1.1993
  800TP3      O14218   2.466   1.695   8.770 -0.1177  0.1413  0.2741
  800TP3     H114219   2.405   1.681   8.842 -1.7232  1.8979 -0.6306
  800TP3     H214220   2.471   1.611   8.725  0.2360 -0.7357  1.8801
  801TP3      O14221   3.620   4.054   2.662  0.5378 -0.6531 -0.2755
  801TP3     H114222   3.666   3.973   2.643  3.0534  0.2782  1.3496
  801TP3     H214223   3.547   4.028   2.718  0.6492 -1.8893 -0.6729
  802TP3      O14224   3.925   1.913   8.570  0.2493  0.3763  0.3307
  802TP3     H114225   3.922   1.874   8.482 -0.6074  0.3431  0.3674
  802TP3     H214226   3.840   1.955   8.580  0.8561  1.5778  0.6118
  803TP3      O14227   0.770   2.828   6.767 -0.8554 -0.2200  0.4666
  803TP3     H114228   0.780   2.923   6.770  0.9205 -0.3967  1.9098
  803TP3     H214229   0.854   2.796   6.733  0.5975 -1.4369  4.6468
  804TP3      O14230   1.560   4.267  10.060 -0.0972  0.4592  0.2194
  804TP3     H114231   1.642   4.220  10.077  0.3184 -0.0662 -2.7138
  804TP3     H214232   1.534   4.302  10.145  2.3645 -0.6427  1.5161
  805TP3      O14233   1.009   3.588   8.073 -0.4063  0.4742 -0.2856
  805TP3     H114234   1.042   3.563   8.159 -1.7521 -0.2384  0.0485
  805TP3     H214235   1.080   3.639   8.034  0.6501 -0.1198  0.8029
  806TP3      O14236   2.104   5.160   7.246 -0.0451 -0.8983  0.5486
  806TP3     H114237   2.128   5.229   7.307 -0.2262  0.7738 -1.1696
  806TP3     H214238   2.185   5.140   7.199 -0.1482 -1.3507  0.5567
  807TP3      O14239   1.535   4.121   7.486 -0.4668  0.1358  0.1616
  807TP3     H114240   1.578   4.044   7.523  0.8015  1.2865  1.2021
  807TP3     H214241   1.596   4.193   7.504 -0.4849  1.0369 -2.8512
  808TP3      O14242   4.287   0.085   7.541  0.0010  0.1427  0.5634
  808TP3     H114243   4.270   0.165   7.491  0.3600 -0.5283 -0.6725
  808TP3     H214244   4.300   0.017   7.475  4.4514 -0.0582  1.3323
  809TP3      O14245   3.700   5.009   0.789  0.1677  0.0371 -0.2063
  809TP3     H114246   3.713   5.099   0.819  0.1276 -0.0330  0.0250
  809TP3     H214247   3.750   5.003   0.708 -2.2838  1.1811 -1.9367
  810TP3      O14248   0.568   1.755   2.731 -0.6870  0.0177 -0.2109
  810TP3     H114249   0.525   1.706   2.801  1.7652 -1.0411  0.6507
  810TP3     H214250   0.661   1.750   2.751  0.0738  0.3643 -3.1173
  811TP3      O14251   2.997   4.608   8.375  0.4794 -0.4305  0.0071
  811TP3     H114252   2.956   4.602   8.461  0.7854  0.4849  0.2296
  811TP3     H214253   2.959   4.536   8.325 -0.8898 -0.0152  0.4100
  812TP3      O14254   1.228   2.649   1.144 -0.0611  0.5766  0.0578
  812TP3     H114255   1.290   2.579   1.128  1.4494  1.8712  0.0195
  812TP3     H214256   1.143   2.613   1.116  0.5854 -1.3536  0.4755
  813TP3      O14257   0.649   2.976   0.336 -0.1842  0.2400 -0.4204
  813TP3     H114258   0.558   3.002   0.353  0.0828  1.0732 -0.2317
  813TP3     H214259   0.641   2.888   0.298 -1.0135 -0.0906  0.4409
  814TP3      O14260   1.554   0.129   8.858 -0.3739  0.9187  0.6094
  814TP3     H114261   1.549   0.122   8.763  0.8571 -0.8134  0.6199
  814TP3     H214262   1.530   0.220   8.877  0.9332  1.7548 -1.4674
  815TP3      O14263   4.974   1.514   0.809  0.9509  0.8344 -0.1426
  815TP3     H114264   4.988   1.443   0.746 -0.8118 -0.7625  1.1482
  815TP3     H214265   4.941   1.586   0.755 -0.6913 -0.5474 -1.1259
  816TP3      O14266   4.795   4.554   9.035  0.0343  0.4441  0.0401
  816TP3     H114267   4.764   4.638   9.001  1.3726  0.8497 -0.2449
  816TP3     H214268   4.884   4.546   9.000 -0.1055 -1.1393 -0.0104
  817TP3      O14269   0.283   1.346   8.059 -0.4108 -0.2918  0.3200
  817TP3     H114270   0.244   1.382   8.139  0.9967 -0.1286  0.9588
  817TP3     H214271   0.373   1.377   8.060 -0.5204  0.2332 -1.6755
  818TP3      O14272   3.923   2.086   1.362 -0.3314 -0.0447 -0.0414
  818TP3     H114273   3.946   2.144   1.435 -1.0411  0.4756 -0.2192
  818TP3     H214274   3.972   2.006   1.378  0.4836  0.5236  0.3396
  819TP3      O14275   2.235   4.760   6.706 -0.5499  0.4183  0.4879
  819TP3     H114276   2.178   4.685   6.690 -1.1414  1.0606 -0.4727
  819TP3     H214277   2.199   4.830   6.652  3.4170 -0.2122 -3.5295
  820TP3      O14278   4.430   1.519   3.362 -0.6824  0.1748  0.8353
  820TP3     H114279   4.336   1.499   3.366 -0.3179 -1.4087  2.0180
  820TP3     H214280   4.445   1.575   3.438 -0.5426 -0.0555  0.9741
  821TP3      O14281   0.709   0.850   7.629  0.1529 -0.6893  0.8055
  821TP3     H114282   0.691   0.814   7.542  0.2564  1.1441 -0.0224
  821TP3     H214283   0.800   0.879   7.624  0.0509 -0.2488  1.4182
  822TP3      O14284   1.053   4.772   1.218 -0.0884  0.6311  0.1931
  822TP3     H114285   1.085   4.801   1.133  2.7007  2.8773  1.8477
  822TP3     H214286   1.020   4.851   1.260 -1.8779 -0.5139  1.1096
  823TP3      O14287   4.030   1.434   9.984  0.0779 -1.1021  0.0177
  823TP3     H114288   4.047   1.368   9.916  0.4891  0.3743 -1.3837
  823TP3     H214289   3.969   1.495   9.942 -1.0062 -1.0337  1.5961
  824TP3      O14290   3.201   1.695   1.334 -0.3934  0.0559  0.6451
  824TP3     H114291   3.258   1.643   1.390 -1.2253 -1.7001 -0.0514
  824TP3     H214292   3.147   1.746   1.395  0.7458  0.4588  1.3362
  825TP3      O14293   5.049   1.944   3.235 -0.2562 -0.3229  0.9070
  825TP3     H114294   5.056   1.931   3.330  0.5548  1.6723  1.1520
  825TP3     H214295   4.998   2.024   3.225 -1.2078 -1.0491 -0.3987
  826TP3      O14296   4.297   3.667   2.546 -0.1941  0.1544  0.4844
  826TP3     H114297   4.369   3.626   2.497  0.8864  0.0473  2.0856
  826TP3     H214298   4.263   3.734   2.486  1.9150  0.9057  0.0137
  827TP3      O14299   4.207   1.060   2.051  0.1038 -0.0418 -0.4101
  827TP3     H114300   4.282   1.013   2.014 -0.7368 -2.8563  1.1836
  827TP3     H214301   4.240   1.096   2.133 -0.0041 -0.3429 -0.2344
  828TP3      O14302   3.528   5.280   9.559  0.2846  0.2849 -0.5012
  828TP3     H114303   3.484   5.198   9.577  0.4110 -0.3443 -2.7648
  828TP3     H214304   3.473   5.347   9.601 -1.1735 -0.7397 -0.7084
  829TP3      O14305   2.262   4.740   2.164  0.8967  0.2658 -0.4150
  829TP3     H114306   2.196   4.713   2.229  0.2206  0.9715 -0.7827
  829TP3     H214307   2.273   4.663   2.108  0.9042 -0.0929  0.0741
  830TP3      O14308   4.158   1.903   2.803  0.3425  0.5061  0.4230
  830TP3     H114309   4.120   1.896   2.890 -2.3940  0.2280 -0.6868
  830TP3     H214310   4.109   1.840   2.750  1.3601  1.2369 -1.4949
  831TP3      O14311   1.742   4.496   6.835  0.3359  0.0375  0.0086
  831TP3     H114312   1.689   4.464   6.908  1.9759  1.2421  1.8303
  831TP3     H214313   1.810   4.430   6.824  1.6637  1.0880  1.4400
  832TP3      O14314   2.746   1.459   8.581  0.6899  0.4753 -0.3835
  832TP3     H114315   2.651   1.469   8.593  0.5989  0.4594 -1.0804
  832TP3     H214316   2.777   1.426   8.666 -0.1412 -0.9349 -0.6001
  833TP3      O14317   0.587   2.431   8.221 -0.0855 -0.0398  0.2483
  833TP3     H114318   0.658   2.474   8.173 -0.3094  0.4657  0.3643
  833TP3     H214319   0.507   2.470   8.186 -0.3479 -1.1056 -0.3710
  834TP3      O14320   4.834   2.825   0.857  0.4556  0.5048  0.0862
  834TP3     H114321   4.834   2.920   0.847  0.8998  0.4961 -0.0405
  834TP3     H214322   4.848   2.792   0.768 -0.8140  0.2893 -0.0520
  835TP3      O14323   1.447   3.470   9.877 -0.0617 -0.4114  0.1269
  835TP3     H114324   1.474   3.401   9.817 -0.0925 -1.9065  1.7567
  835TP3     H214325   1.420   3.543   9.820 -1.9685 -2.4219 -1.7357
  836TP3      O14326   0.547   4.105   8.286 -0.6779  0.2566  0.1366
  836TP3     H114327   0.642   4.115   8.282 -0.7119  0.8275  0.6503
  836TP3     H214328   0.515   4.192   8.306 -1.1399 -0.3831  2.5686
  837TP3      O14329   3.956   0.647   2.044  0.3014 -0.6851 -0.5929
  837TP3     H114330   3.964   0.736   2.009  1.1689 -0.6986 -0.4592
  837TP3     H214331   3.982   0.655   2.136 -1.6228 -0.7122 -0.0142
  838TP3      O14332   0.919   0.281   8.730 -0.5371 -0.9968 -0.0743
  838TP3     H114333   0.890   0.246   8.814  0.7580 -2.4622 -0.1812
  838TP3     H214334   0.861   0.354   8.712 -0.7302 -0.5441  2.1776
  839TP3      O14335   5.164   1.509   3.453  0.0092  0.0554  0.1525
  839TP3     H114336   5.148   1.479   3.364  0.5936 -2.2951  0.7622
  839TP3     H214337   5.215   1.438   3.494 -0.7111  0.7863  2.5153
  840TP3      O14338   4.373   5.002   0.105  0.6788  0.6057  0.0401
  840TP3     H114339   4.439   5.071   0.100 -0.1515  1.4094 -0.2896
  840TP3     H214340   4.350   4.997   0.198  0.0605  1.4728 -0.0490
  841TP3      O14341   3.373   3.103   7.452 -0.2053  0.6337  0.1832
  841TP3     H114342   3.277   3.097   7.460 -0.1790 -2.1720 -0.5555
  841TP3     H214343   3.387   3.154   7.372 -1.2040 -0.9218 -1.0616
  842TP3      O14344   2.854   0.797   0.657  0.5348  0.0458  0.2085
  842TP3     H114345   2.928   0.740   0.638  0.9691  0.8372 -0.5649
  842TP3     H214346   2.868   0.826   0.747  1.0679  0.0414  0.1290
  843TP3      O14347   0.806   3.858   8.190 -0.1834  0.7577 -0.0673
  843TP3     H114348   0.884   3.811   8.160 -0.1439 -0.2337  1.4874
  843TP3     H214349   0.794   3.830   8.280 -0.8877  2.8181  0.5492
  844TP3      O14350   4.984   1.831   9.452 -0.2957 -0.2605  0.6096
  844TP3     H114351   4.959   1.898   9.515  0.0513  0.0398  0.4321
  844TP3     H214352   4.902   1.808   9.407 -0.4618 -0.1560  0.8627
  845TP3      O14353   1.078   1.550   7.391 -0.3374  0.1327 -0.1458
  845TP3     H114354   1.099   1.470   7.440  0.4063  0.8448  0.7176
  845TP3     H214355   1.010   1.593   7.443 -0.5214  0.2213 -0.4534
  846TP3      O14356   2.618   4.370   8.883  0.2520 -0.0746  0.3086
  846TP3     H114357   2.696   4.332   8.923 -0.1633  0.4189  1.6422
  846TP3     H214358   2.627   4.464   8.896 -0.5940 -0.0163  0.5281
  847TP3      O14359   1.155   0.793   7.852 -0.2770  0.8422 -0.3708
  847TP3     H114360   1.197   0.792   7.766  0.5093  0.7843  0.0043
  847TP3     H214361   1.220   0.754   7.911  0.5180  3.7244  0.8403
  848TP3      O14362   2.965   1.591   9.189 -0.9340 -0.1949 -0.3351
  848TP3     H114363   3.032   1.524   9.188  0.8290  1.4979 -1.1421
  848TP3     H214364   2.913   1.575   9.110 -0.8276 -0.8787 -0.2683
  849TP3      O14365   0.746   4.709   8.142  0.3077 -0.1806 -0.1690
  849TP3     H114366   0.717   4.619   8.124  1.5919 -0.4194 -1.2275
  849TP3     H214367   0.665   4.757   8.161 -0.6616 -1.0611 -1.8248
  850TP3      O14368   2.744   2.741   6.778 -0.1696  0.2685 -0.2831
  850TP3     H114369   2.764   2.694   6.697  0.4966 -0.8564  0.5231
  850TP3     H214370   2.819   2.726   6.835 -0.5225  1.2407  0.4834
  851TP3      O14371   4.973   1.122   1.551  0.9879 -0.0199 -0.1430
  851TP3     H114372   4.891   1.159   1.519  0.4570 -0.0714  1.0841
  851TP3     H214373   4.990   1.168   1.633  1.5295 -0.8805  0.2433
  852TP3      O14374   1.369   1.705   8.634  0.2202 -0.6163 -0.1210
  852TP3     H114375   1.315   1.774   8.595  0.6172  0.3081  0.9281
  852TP3     H214376   1.315   1.626   8.628  0.4754 -0.6773 -3.0487
  853TP3      O14377   4.294   3.863   7.833 -0.4925  0.4719 -0.3481
  853TP3     H114378   4.379   3.883   7.872  0.3408 -0.7940 -1.4154
  853TP3     H214379   4.284   3.928   7.763 -0.1494  0.3313 -0.5357
  854TP3      O14380   5.086   2.978   1.262 -0.3593 -0.6138  0.3485
  854TP3     H114381   5.084   2.887   1.234  0.7014 -0.2796 -0.9182
  854TP3     H214382   5.173   2.990   1.300  0.7836  0.6181 -2.4030
  855TP3      O14383   2.618   5.069   7.693 -0.1957  0.0997 -0.2918
  855TP3     H114384   2.575   5.094   7.775 -0.9287  2.8631 -1.3898
  855TP3     H214385   2.710   5.062   7.715 -0.3453  1.1210  0.7553
  856TP3      O14386   2.691   4.327   2.713  0.2482  0.6579 -0.9051
  856TP3     H114387   2.671   4.301   2.802  0.1757  0.5963 -0.9389
  856TP3     H214388   2.769   4.277   2.690  0.8468  1.3999 -0.5399
  857TP3      O14389   0.916   3.702   1.246 -0.5996  1.0372 -0.0229
  857TP3     H114390   0.988   3.648   1.212 -1.8540 -0.1683 -0.8583
  857TP3     H214391   0.903   3.769   1.178  0.8699  2.4050  0.9545
  858TP3      O14392   3.623   5.154   9.313 -0.1622 -0.6728  0.0923
  858TP3     H114393   3.627   5.181   9.405 -1.8283  1.6767 -0.4227
  858TP3     H214394   3.688   5.209   9.270  0.6413 -1.7993 -0.1522
  859TP3      O14395   0.310   2.208   1.037  0.0204 -0.1243 -0.1003
  859TP3     H114396   0.307   2.285   0.980  2.5021  0.0962 -0.0185
  859TP3     H214397   0.401   2.201   1.064 -0.4108 -2.2917  1.0413
  860TP3      O14398   1.387   4.807   8.637 -0.6123  0.6315  0.7090
  860TP3     H114399   1.435   4.862   8.698 -2.1570 -0.3087  2.8933
  860TP3     H214400   1.411   4.717   8.660 -0.2597  0.2562 -0.9450
  861TP3      O14401   1.991   2.865   1.103  0.3013  0.0318 -0.3656
  861TP3     H114402   2.046   2.796   1.066 -1.5832 -3.0276  2.0081
  861TP3     H214403   1.913   2.866   1.048 -1.1217 -2.2844  1.4148
  862TP3      O14404   1.250   2.734   8.681 -0.2096  0.0197 -0.6140
  862TP3     H114405   1.160   2.712   8.705 -0.2120  0.8058  0.1499
  862TP3     H214406   1.244   2.765   8.591 -0.8175  0.7444 -0.3279
  863TP3      O14407   5.084   4.421   7.841 -0.3578  0.5696 -0.0703
  863TP3     H114408   5.010   4.476   7.814 -1.9072 -1.4733 -0.2354
  863TP3     H214409   5.130   4.402   7.759 -0.0172  1.3128 -0.0580
  864TP3      O14410   1.727   2.198   9.238  0.2787 -0.0426  0.0148
  864TP3     H114411   1.792   2.145   9.192 -0.0716  0.7916 -1.4949
  864TP3     H214412   1.777   2.274   9.269  0.5107 -0.5952  1.0377
  865TP3      O14413   0.057   2.486   1.133  0.9311 -0.6433  0.5721
  865TP3     H114414   0.141   2.494   1.178  0.7301  0.2979  0.7965
  865TP3     H214415   0.053   2.562   1.075 -0.0551 -0.3078  1.0568
  866TP3      O14416   1.860   5.184   9.395  0.0858 -0.6665 -0.2702
  866TP3     H114417   1.871   5.199   9.489  0.5194 -2.5350  0.0193
  866TP3     H214418   1.948   5.165   9.363 -0.1695 -0.8006 -0.9190
  867TP3      O14419   4.935   0.880   3.411  0.0607  0.4576 -0.3060
  867TP3     H114420   4.849   0.884   3.368  0.4653  0.4050 -1.1532
  867TP3     H214421   4.917   0.903   3.502 -0.8960  0.1712 -0.4037
  868TP3      O14422   4.935   1.732   0.619  0.4639 -0.7147  0.3612
  868TP3     H114423   4.967   1.808   0.669  0.6019 -2.0047  2.3483
  868TP3     H214424   4.840   1.743   0.618  0.4409 -0.7715  1.1196
  869TP3      O14425   2.988   3.900   0.422 -0.0848  0.3794  0.0392
  869TP3     H114426   3.055   3.919   0.355 -0.2489 -0.0125 -0.2420
  869TP3     H214427   3.025   3.827   0.472  0.5388  1.3873  1.1083
  870TP3      O14428   0.875   1.707   7.514  0.0561  0.2182  0.4052
  870TP3     H114429   0.944   1.743   7.570  0.9469 -2.6630  1.3593
  870TP3     H214430   0.795   1.746   7.547  1.0264  2.3605  0.3924
  871TP3      O14431   4.646   3.807   8.923  0.0846 -0.0509  0.5233
  871TP3     H114432   4.739   3.788   8.908  0.0050 -0.2977  0.3228
  871TP3     H214433   4.644   3.899   8.949  0.2213  0.4576 -1.1659
  872TP3      O14434   4.194   0.501   0.818 -0.0450 -0.3061  0.1457
  872TP3     H114435   4.202   0.552   0.738 -1.1703  2.6998  1.7711
  872TP3     H214436   4.103   0.473   0.821  0.2959 -1.4841 -0.1940
  873TP3      O14437   2.242   2.424   6.649 -0.0539 -0.0595 -0.2179
  873TP3     H114438   2.333   2.397   6.653  0.3213  1.1789  0.1861
  873TP3     H214439   2.227   2.467   6.733 -1.1590 -0.6701 -0.0828
  874TP3      O14440   0.925   4.156   8.485  0.0062 -0.4800  0.4164
  874TP3     H114441   0.980   4.162   8.563 -1.0837 -1.0150  1.2598
  874TP3     H214442   0.864   4.084   8.504 -1.2255  0.3340 -0.2991
  875TP3      O14443   2.975   1.769   6.788 -0.4166 -0.4649  0.4738
  875TP3     H114444   2.885   1.737   6.777 -0.4953  0.0543 -0.5032
  875TP3     H214445   3.029   1.690   6.786 -0.8958 -0.8644  1.9131
  876TP3      O14446   1.702   0.883   8.311  0.1199  0.1289 -0.3756
  876TP3     H114447   1.629   0.823   8.296  0.2558  0.1757 -1.2465
  876TP3     H214448   1.668   0.969   8.285 -0.8205  0.9009  2.8447
  877TP3      O14449   4.630   0.925   9.169 -0.1314  0.3643  0.2305
  877TP3     H114450   4.662   1.010   9.138 -0.6798  0.7059  0.5738
  877TP3     H214451   4.648   0.865   9.097  3.0444  0.0958  1.0993
  878TP3      O14452   4.219   0.429   0.500  0.0183 -0.2458  0.5365
  878TP3     H114453   4.186   0.427   0.410 -0.3026  3.0691  0.4397
  878TP3     H214454   4.313   0.442   0.490  0.1422 -0.9678  0.7191
  879TP3      O14455   4.741   3.967   1.735 -0.0527 -0.3293 -0.8049
  879TP3     H114456   4.667   3.987   1.677  2.0289  1.4447 -3.0516
  879TP3     H214457   4.818   3.993   1.685  2.0490 -0.8619  1.9496
  880TP3      O14458   1.335   5.089   9.942  0.2482 -0.3303 -0.4564
  880TP3     H114459   1.274   5.034   9.892 -2.7995  0.0110  2.5720
  880TP3     H214460   1.334   5.173   9.895 -2.0961 -0.1804 -0.2803
  881TP3      O14461   0.267   3.458   9.089  0.0077 -0.1103 -0.2792
  881TP3     H114462   0.221   3.489   9.167  0.9669 -2.0762  1.1758
  881TP3     H214463   0.360   3.466   9.110  0.3341  0.7766 -1.8752
  882TP3      O14464   2.399   5.236   8.079  0.3315  0.5314  0.2504
  882TP3     H114465   2.458   5.164   8.057  0.8492  0.3220  2.1052
  882TP3     H214466   2.449   5.288   8.142 -1.0727  0.9577  1.0513
  883TP3      O14467   2.183   3.933   8.102 -0.0413 -0.4784  0.1089
  883TP3     H114468   2.272   3.968   8.112 -0.1326  0.6565 -2.1913
  883TP3     H214469   2.196   3.846   8.065  0.1359 -0.4752  0.1607
  884TP3      O14470   2.300   3.554   2.011 -0.0941 -0.3354 -0.1034
  884TP3     H114471   2.393   3.545   1.994 -0.0353 -2.3525  1.0257
  884TP3     H214472   2.270   3.619   1.947  2.2107  1.0056  0.0806
  885TP3      O14473   5.104   0.516   7.462  0.2011  0.6082  0.3418
  885TP3     H114474   5.080   0.482   7.376  0.7689 -0.3692  0.5536
  885TP3     H214475   5.200   0.516   7.462  0.2039  0.8620  0.8669
  886TP3      O14476   1.248   3.723   8.048  0.0001 -0.0179  0.3228
  886TP3     H114477   1.337   3.698   8.025 -0.0006  1.6433 -1.7746
  886TP3     H214478   1.249   3.728   8.144  2.0602 -0.3615  0.3654
  887TP3      O14479   2.960   3.444   0.130 -0.5091 -0.2549 -0.4058
  887TP3     H114480   3.035   3.477   0.081  0.2128  1.3836  1.6512
  887TP3     H214481   2.924   3.375   0.074  1.0062  0.5951 -2.5906
  888TP3      O14482   2.335   2.564   3.046 -0.0610 -0.0988 -0.0161
  888TP3     H114483   2.337   2.512   2.966 -0.3288 -2.3872  1.3624
  888TP3     H214484   2.427   2.571   3.072 -0.1181 -1.3499  0.6218
  889TP3      O14485   2.273   4.962   7.719 -0.0645 -0.0173 -0.1574
  889TP3     H114486   2.338   4.933   7.655 -0.0413  0.4874 -0.3696
  889TP3     H214487   2.306   4.929   7.803 -0.4433 -1.2530 -0.4802
  890TP3      O14488   1.188   0.349   9.780 -0.3800 -0.4754 -0.4406
  890TP3     H114489   1.218   0.279   9.837 -2.1551  0.0215  1.1880
  890TP3     H214490   1.120   0.309   9.725 -0.1222 -0.4579 -0.7765
  891TP3      O14491   4.283   4.913   8.277  0.4648  0.8339  0.0452
  891TP3     H114492   4.196   4.874   8.287  0.7697  0.3066  0.7053
  891TP3     H214493   4.319   4.913   8.366  1.6180 -0.1130 -0.4000
  892TP3      O14494   4.102   4.611   0.850  0.1861 -0.3277 -0.1498
  892TP3     H114495   4.053   4.691   0.828 -1.7229 -0.9345  1.5005
  892TP3     H214496   4.140   4.630   0.936  0.6297 -0.8139 -0.2393
  893TP3      O14497   0.282   2.935   1.309 -0.8296  0.2963 -0.4638
  893TP3     H114498   0.194   2.922   1.274 -0.5463  0.1154 -1.1250
  893TP3     H214499   0.313   3.016   1.268 -1.9570  2.3444  2.3730
  894TP3      O14500   1.689   3.620   0.959 -0.0938  0.2958  0.5397
  894TP3     H114501   1.702   3.540   0.909 -1.7557  0.3652 -0.0565
  894TP3     H214502   1.763   3.675   0.935 -0.0652 -0.2541 -0.7041
  895TP3      O14503   3.419   1.152   0.893  0.0542  0.1675  0.4883
  895TP3     H114504   3.427   1.073   0.947 -0.4439  0.4798  1.0152
  895TP3     H214505   3.411   1.224   0.955 -0.4471  0.5389  0.0001
  896TP3      O14506   3.323   2.650   7.866 -0.4644  0.0579 -0.0137
  896TP3     H114507   3.260   2.589   7.905 -1.2191  0.0990 -1.1300
  896TP3     H214508   3.324   2.627   7.773  1.0243  0.2027 -0.0605
  897TP3      O14509   0.432   0.273   9.211  0.2354  0.1265 -0.3646
  897TP3     H114510   0.391   0.267   9.298 -0.9238 -1.4802 -0.9805
  897TP3     H214511   0.525   0.289   9.230 -0.0338  0.0541  1.1672
  898TP3      O14512   1.602   1.965   7.855 -0.5043  0.4193  0.2821
  898TP3     H114513   1.546   1.890   7.834 -0.4043 -0.0307  1.5275
  898TP3     H214514   1.649   1.983   7.774  0.6833 -1.9415  0.3399
  899TP3      O14515   1.516   4.218   7.787  0.3584 -0.5817 -0.2859
  899TP3     H114516   1.584   4.177   7.840  0.8347  1.4078  0.7465
  899TP3     H214517   1.434   4.177   7.815  1.0260 -2.4627 -0.9964
  900TP3      O14518   5.068   1.364   0.599 -0.1380  0.1833 -0.0140
  900TP3     H114519   5.160   1.369   0.576 -0.1024 -1.2161 -0.2566
  900TP3     H214520   5.023   1.344   0.517 -0.4107 -1.1410  0.4244
  901TP3      O14521   2.456   3.048   1.187  0.1933 -0.3930 -0.0403
  901TP3     H114522   2.468   3.043   1.093 -0.2679  0.5455 -0.1706
  901TP3     H214523   2.538   3.017   1.224  1.1769  1.1713 -0.7968
  902TP3      O14524   3.826   2.933   0.633 -0.1055  0.7449 -0.6045
  902TP3     H114525   3.782   2.857   0.596  1.3420  0.2663 -1.4590
  902TP3     H214526   3.812   2.926   0.727  1.1167 -1.3735 -0.5244
  903TP3      O14527   2.641   4.852   0.072  0.2686  0.4797 -0.0545
  903TP3     H114528   2.655   4.778   0.132  1.6040  1.3768  0.8101
  903TP3     H214529   2.567   4.825   0.017  1.0503 -1.7029 -0.1298
  904TP3      O14530   3.808   5.163   1.470 -0.5531 -0.2194 -0.0750
  904TP3     H114531   3.787   5.151   1.563 -1.8822  3.0868  0.2092
  904TP3     H214532   3.837   5.254   1.464 -0.3952 -0.3728 -2.8864
  905TP3      O14533   3.836   1.546   0.390 -0.1884 -0.0436 -0.6800
  905TP3     H114534   3.865   1.483   0.324 -2.2640 -0.5351 -1.1907
  905TP3     H214535   3.751   1.578   0.358 -1.0098  0.1007  1.4650
  906TP3      O14536   4.157   2.025   6.897 -0.0990  0.3312 -0.0187
  906TP3     H114537   4.195   1.963   6.835 -0.8585 -2.3297  1.9843
  906TP3     H214538   4.070   2.043   6.862 -1.6899 -3.4452  1.4846
  907TP3      O14539   0.501   2.815   1.429 -0.0009 -0.3665 -0.0266
  907TP3     H114540   0.414   2.845   1.403  0.6995  0.9718 -0.9523
  907TP3     H214541   0.551   2.811   1.347  0.9419 -0.6250  0.5466
  908TP3      O14542   0.913   2.927   0.709  0.5537 -0.4200  0.0924
  908TP3     H114543   0.915   2.975   0.792  0.5160 -0.2050 -0.0313
  908TP3     H214544   0.864   2.847   0.729  1.8574 -1.1116  0.6750
  909TP3      O14545   2.223   3.871   8.699  0.2358  0.6620  0.1904
  909TP3     H114546   2.157   3.863   8.630 -1.6855  0.8775  1.8900
  909TP3     H214547   2.224   3.964   8.721  1.2247  0.6789  0.1215
  910TP3      O14548   2.127   5.061   8.615  0.2442  0.4172  0.2245
  910TP3     H114549   2.073   5.054   8.693  0.7045  0.7955  0.5833
  910TP3     H214550   2.172   5.145   8.624 -0.6222  1.0547 -1.0564
  911TP3      O14551   0.183   0.822   7.416  0.6650  0.4068 -0.5330
  911TP3     H114552   0.275   0.842   7.397  1.2657 -2.7924 -1.4886
  911TP3     H214553   0.186   0.746   7.473 -1.3976 -0.3348 -1.3328
  912TP3      O14554   1.728   2.674   0.984  0.0857  0.9393  0.0421
  912TP3     H114555   1.785   2.614   0.935 -0.4120 -1.2018  1.8933
  912TP3     H214556   1.640   2.654   0.953 -0.0177  1.3028  0.0972
  913TP3      O14557   4.788   1.762   9.296  0.5602 -0.4828 -0.1376
  913TP3     H114558   4.717   1.824   9.312 -1.6679 -2.4656 -1.6507
  913TP3     H214559   4.806   1.770   9.202  1.5650 -0.7964  0.0159
  914TP3      O14560   5.170   1.254   2.733 -0.6128 -0.0617 -0.1139
  914TP3     H114561   5.122   1.333   2.757  1.5448  0.8326  1.5814
  914TP3     H214562   5.238   1.285   2.672  2.4966  0.2694  3.1495
  915TP3      O14563   0.167   0.741   1.663  0.0233  0.2515 -0.2860
  915TP3     H114564   0.100   0.676   1.679 -0.3709  0.7401  0.0717
  915TP3     H214565   0.144   0.780   1.579  0.1958  0.0173 -0.4454
  916TP3      O14566   3.521   4.651   8.320  0.0741 -0.0847  0.2049
  916TP3     H114567   3.552   4.614   8.403 -0.9291 -2.1763 -0.2727
  916TP3     H214568   3.431   4.679   8.339  0.4862  1.2662  0.2865
  917TP3      O14569   0.300   3.342   8.252  0.2749  0.6201  0.1041
  917TP3     H114570   0.392   3.367   8.261  1.4727 -1.6354 -3.6056
  917TP3     H214571   0.275   3.372   8.164 -1.2789 -2.1177 -0.4972
  918TP3      O14572   0.347   3.247   1.527  0.0144 -0.3546  0.7537
  918TP3     H114573   0.413   3.179   1.509 -0.1326 -0.1228 -0.8619
  918TP3     H214574   0.342   3.297   1.445 -1.5282  0.1830  1.1408
  919TP3      O14575   2.231   0.261   8.000 -0.1908 -0.2085  0.2680
  919TP3     H114576   2.303   0.208   7.966  0.5895  0.8264  0.2500
  919TP3     H214577   2.183   0.203   8.058  0.5012 -0.9952  0.0650
  920TP3      O14578   0.977   2.918   9.177 -0.3227 -0.3656 -0.2275
  920TP3     H114579   1.041   2.989   9.170  1.1274 -1.6410 -0.5352
  920TP3     H214580   0.907   2.954   9.230  0.1328  1.4501 -0.7808
  921TP3      O14581   2.875   4.938   7.422  0.2268  0.0607  0.4888
  921TP3     H114582   2.901   4.948   7.330 -0.3229  0.8832  0.4182
  921TP3     H214583   2.861   4.844   7.432  2.8363 -0.4197  0.4266
  922TP3      O14584   3.904   1.017   0.682 -0.4920  0.6850 -0.3323
  922TP3     H114585   3.910   1.089   0.619 -2.1288  3.1580  2.1162
  922TP3     H214586   3.813   1.017   0.711  0.6701  1.6563  4.0326
  923TP3      O14587   4.706   4.609   1.184 -0.0080 -0.0483  0.3650
  923TP3     H114588   4.616   4.633   1.163 -0.0681  0.2237  0.9014
  923TP3     H214589   4.753   4.692   1.189 -0.1716 -0.0177  2.0356
  924TP3      O14590   3.157   5.232   8.090  0.7874 -0.2794 -0.5165
  924TP3     H114591   3.110   5.314   8.074 -0.2097 -0.8690 -0.7013
  924TP3     H214592   3.196   5.243   8.177  0.7767  0.4380 -0.5978
  925TP3      O14593   3.972   3.631   9.453 -0.0157 -0.6255  0.3055
  925TP3     H114594   3.926   3.710   9.428 -2.8726 -2.0636  0.6402
  925TP3     H214595   4.060   3.642   9.418 -0.7500  2.0302 -0.8913
  926TP3      O14596   5.189   1.921   9.300  0.2615  0.0276 -0.1292
  926TP3     H114597   5.107   1.921   9.350  0.4038  0.1706  0.1044
  926TP3     H214598   5.258   1.931   9.366  0.3768  1.8914 -0.4633
  927TP3      O14599   4.196   4.509   9.070 -0.1839  0.6545  0.5634
  927TP3     H114600   4.254   4.522   9.145  1.1618  1.8543 -0.6087
  927TP3     H214601   4.235   4.562   9.000  0.4524 -2.8426 -1.9920
  928TP3      O14602   3.286   0.433   9.403  0.4230 -0.2577 -0.0449
  928TP3     H114603   3.201   0.454   9.444  1.4046  0.1431  1.9251
  928TP3     H214604   3.265   0.417   9.311 -1.9840 -1.4239  0.6277
  929TP3      O14605   1.532   3.481   8.400  0.2055 -0.2857  0.3612
  929TP3     H114606   1.486   3.401   8.375  0.2179 -0.4359  0.8047
  929TP3     H214607   1.503   3.498   8.490 -0.4514  0.6822 -0.0157
  930TP3      O14608   2.779   0.189   2.558  0.2536  0.0630  0.1256
  930TP3     H114609   2.842   0.233   2.502  0.6837  1.0008  1.3154
  930TP3     H214610   2.752   0.112   2.508  0.4541  0.9782 -1.4508
  931TP3      O14611   3.822   4.378   9.099  0.2929 -0.2466 -0.2023
  931TP3     H114612   3.792   4.469   9.104  0.6239 -0.1793  0.8617
  931TP3     H214613   3.798   4.349   9.011 -0.1512  0.7522 -0.4193
  932TP3      O14614   0.350   0.854   0.718  0.1235  0.1782  0.1202
  932TP3     H114615   0.435   0.871   0.758 -0.7038 -0.1100  2.0937
  932TP3     H214616   0.354   0.900   0.634  2.7435 -1.0454 -0.5223
  933TP3      O14617   2.271   1.781   7.912 -0.0747 -0.0677 -0.3665
  933TP3     H114618   2.208   1.790   7.984 -0.8724  2.1269 -1.2404
  933TP3     H214619   2.276   1.687   7.896 -1.0115 -0.4955  1.5597
  934TP3      O14620   4.955   4.745   9.924  0.0706 -0.4160  0.3311
  934TP3     H114621   4.962   4.679   9.855 -0.1433 -2.1403  1.9043
  934TP3     H214622   4.867   4.781   9.913  0.5590  0.4087 -1.1881
  935TP3      O14623   2.843   1.770   8.788 -0.0249  0.3227  0.4198
  935TP3     H114624   2.937   1.761   8.775 -0.5016 -2.6521 -2.1652
  935TP3     H214625   2.810   1.806   8.706 -1.3905 -1.3630  0.1791
  936TP3      O14626   4.983   2.352   9.541 -0.1378 -0.1553  0.0978
  936TP3     H114627   4.891   2.328   9.556  0.2018 -1.2386  0.5472
  936TP3     H214628   4.980   2.445   9.518 -1.2623  0.0854  1.0998
  937TP3      O14629   2.745   0.499   8.746 -0.0269  0.7100 -0.6871
  937TP3     H114630   2.764   0.413   8.782 -2.1903  0.6090  0.3826
  937TP3     H214631   2.827   0.548   8.754  0.4657 -0.3736  1.3514
  938TP3      O14632   3.821   2.878   0.153 -0.2982 -0.0449  0.1396
  938TP3     H114633   3.793   2.891   0.063 -0.0291  1.1771  0.2111
  938TP3     H214634   3.912   2.851   0.146 -1.3030 -3.9638 -0.0901
  939TP3      O14635   0.459   0.947   0.477  0.4331  0.0016 -0.2351
  939TP3     H114636   0.553   0.945   0.459  0.4242 -0.5245 -0.2280
  939TP3     H214637   0.419   0.959   0.391  0.5781  2.3492 -0.0269
  940TP3      O14638   0.125   0.648   2.277 -0.0400 -0.1883 -0.2841
  940TP3     H114639   0.198   0.586   2.273  1.7692  1.5192  2.8289
  940TP3     H214640   0.069   0.613   2.347  0.0931  0.7317  0.2953
  941TP3      O14641   0.528   4.961   8.884 -0.6500  0.2817  0.0498
  941TP3     H114642   0.621   4.979   8.894 -0.4711  0.2040 -1.2544
  941TP3     H214643   0.485   5.043   8.908 -0.1817  0.6355 -0.2979
  942TP3      O14644   3.519   3.222   7.824 -0.1163 -0.2153 -0.5584
  942TP3     H114645   3.492   3.287   7.889  0.0503  0.5646 -1.2380
  942TP3     H214646   3.592   3.175   7.865  0.9701  1.2594 -0.7062
  943TP3      O14647   2.846   2.799   9.924 -0.0659 -0.4245 -0.6724
  943TP3     H114648   2.766   2.750   9.945  0.6862 -1.7691 -0.7853
  943TP3     H214649   2.817   2.867   9.863 -1.0918 -1.0195 -0.8751
  944TP3      O14650   0.168   2.763   7.560  0.1301 -0.4768 -0.3169
  944TP3     H114651   0.248   2.738   7.514 -0.2432  1.1091 -1.9372
  944TP3     H214652   0.130   2.680   7.589  2.0710 -1.2895  0.0514
  945TP3      O14653   2.412   3.452   0.774  0.6299 -0.6875 -0.4550
  945TP3     H114654   2.323   3.433   0.744 -0.2972  1.3878  0.8066
  945TP3     H214655   2.468   3.401   0.715 -1.2430  0.0128 -3.0325
  946TP3      O14656   1.183   5.140   1.686  0.3960 -0.1469  0.0777
  946TP3     H114657   1.089   5.158   1.684 -0.0775 -2.2807  0.1580
  946TP3     H214658   1.197   5.079   1.613  1.7137  0.1321  0.0825
  947TP3      O14659   0.324   4.439   9.344  0.4744 -0.2118  0.2530
  947TP3     H114660   0.309   4.391   9.263  2.4150  2.0444 -1.5706
  947TP3     H214661   0.290   4.527   9.327 -0.2649 -0.0172  2.4015
  948TP3      O14662   0.523   5.117   2.585 -0.1756 -0.2989  0.1037
  948TP3     H114663   0.542   5.162   2.503 -3.2110  2.5809  0.8159
  948TP3     H214664   0.605   5.122   2.634  1.2555 -0.7717 -2.0925
  949TP3      O14665   1.627   2.214   7.983  0.2036 -0.2369  0.8252
  949TP3     H114666   1.686   2.270   7.933  0.1916 -0.5903  0.4080
  949TP3     H214667   1.622   2.133   7.932 -1.7409  0.2823  0.1149
  950TP3      O14668   3.700   4.369   9.901 -0.6627 -0.6966  0.2118
  950TP3     H114669   3.716   4.369   9.807  0.8140  1.3360  0.3917
  950TP3     H214670   3.612   4.406   9.910 -0.7718 -0.8056 -0.3621
  951TP3      O14671   2.095   0.551   2.248 -0.3824 -0.4550 -0.3739
  951TP3     H114672   2.113   0.473   2.196 -0.9208 -1.2659  0.6154
  951TP3     H214673   2.034   0.602   2.194  0.7890 -0.1820 -1.4790
  952TP3      O14674   1.173   2.427   8.120  0.3839 -0.2426  0.6544
  952TP3     H114675   1.144   2.435   8.029 -0.5951  0.4509  1.0087
  952TP3     H214676   1.267   2.441   8.117  0.0884  1.9966 -0.0010
  953TP3      O14677   3.139   2.752   7.364 -0.0769  0.0892 -0.2269
  953TP3     H114678   3.222   2.779   7.324  0.4009 -1.9890 -0.7547
  953TP3     H214679   3.142   2.788   7.452  1.7880 -0.5854  0.0291
  954TP3      O14680   3.690   2.121   9.854  0.3386 -0.5653  0.0439
  954TP3     H114681   3.726   2.174   9.783  1.0897 -1.2486 -0.1015
  954TP3     H214682   3.757   2.054   9.870 -0.3348 -1.1158  0.6119
  955TP3      O14683   2.751   3.844   9.519  0.5130  0.1799 -0.0354
  955TP3     H114684   2.788   3.915   9.572  2.5887  1.4436 -2.9180
  955TP3     H214685   2.671   3.882   9.482 -0.5889 -0.4849  1.5446
  956TP3      O14686   1.687   1.417   2.661  0.3964  0.0365  0.0438
  956TP3     H114687   1.775   1.390   2.685  1.3762 -0.3288 -3.3326
  956TP3     H214688   1.652   1.344   2.611 -0.8655  1.0886 -0.6944
  957TP3      O14689   2.604   2.720   7.719  0.1290  0.7284  0.3847
  957TP3     H114690   2.587   2.696   7.810 -0.5514  0.9911  0.3292
  957TP3     H214691   2.525   2.766   7.691  1.0066  2.2113  0.2058
  958TP3      O14692   2.077   1.364   8.031  0.0605  0.1298 -0.1800
  958TP3     H114693   2.140   1.292   8.037  0.7534  0.7225 -0.2320
  958TP3     H214694   2.116   1.424   7.968 -0.0926  0.9673  0.5075
  959TP3      O14695   5.255   2.910   9.497  0.3801  0.0413 -0.8934
  959TP3     H114696   5.287   2.822   9.477 -1.2371 -0.6235 -0.6844
  959TP3     H214697   5.313   2.968   9.446  1.1506 -1.1508 -1.4385
  960TP3      O14698   3.147   2.257   0.863  0.4739 -0.1345  0.2427
  960TP3     H114699   3.098   2.263   0.945 -0.6431 -2.4659 -0.1765
  960TP3     H214700   3.139   2.344   0.824 -3.8574 -0.4306 -0.0188
  961TP3      O14701   3.258   5.042   0.345  0.5938 -0.4357  0.6314
  961TP3     H114702   3.312   5.095   0.404 -0.6662  2.0186 -0.2957
  961TP3     H214703   3.172   5.083   0.348 -0.4899 -2.5145 -0.1095
  962TP3      O14704   4.697   2.750   1.659  0.1029  0.5628 -0.2499
  962TP3     H114705   4.783   2.749   1.618 -0.1639 -0.7760 -0.8286
  962TP3     H214706   4.711   2.793   1.743  1.5282 -0.4986  0.0803
  963TP3      O14707   3.981   3.988   0.112  0.3315 -0.2278 -0.2204
  963TP3     H114708   3.957   3.895   0.113  0.2300 -0.2413  2.2305
  963TP3     H214709   3.919   4.028   0.050  0.6602 -1.8077 -1.6443
  964TP3      O14710   1.936   5.187   6.992  0.8716  0.6232 -0.0298
  964TP3     H114711   1.916   5.272   6.955  2.4511  1.0557  0.0583
  964TP3     H214712   1.901   5.190   7.081  0.6523  1.0574 -0.1319
  965TP3      O14713   4.798   2.230   0.336  0.3499 -0.5057  1.1699
  965TP3     H114714   4.729   2.183   0.289  1.5557 -0.7666 -0.4079
  965TP3     H214715   4.785   2.322   0.313 -0.5679 -0.3109  2.3675
  966TP3      O14716   5.158   2.563   9.154  0.3844  0.0958 -0.0687
  966TP3     H114717   5.234   2.506   9.144 -0.7771 -1.6438  0.6026
  966TP3     H214718   5.124   2.543   9.241  0.5187  2.6054  0.6374
  967TP3      O14719   3.764   0.706   9.079  0.1185  0.4561  0.2728
  967TP3     H114720   3.699   0.652   9.123  0.0650  1.1895  1.1206
  967TP3     H214721   3.714   0.758   9.015 -0.0248  0.4685  0.3943
  968TP3      O14722   0.035   4.511   9.134  0.2929 -0.0874 -0.1229
  968TP3     H114723   0.033   4.595   9.181  0.9000 -0.1552  0.0377
  968TP3     H214724   0.127   4.500   9.110  0.1708 -0.5869 -0.3686
  969TP3      O14725   0.362   4.390   2.445 -0.3549  0.2616 -0.1780
  969TP3     H114726   0.356   4.294   2.445  0.0092  0.2386 -0.1131
  969TP3     H214727   0.406   4.411   2.362 -0.7302  0.3918 -0.3451
  970TP3      O14728   2.920   0.020   2.739 -0.0903 -0.2200 -0.2832
  970TP3     H114729   2.861   0.093   2.720 -0.2275  0.2900  1.7752
  970TP3     H214730   3.008   0.058   2.731 -0.1223 -0.1901 -0.5015
  971TP3      O14731   2.736   0.943   6.935 -0.3514  0.0055 -0.4519
  971TP3     H114732   2.823   0.963   6.971  0.1035 -0.9164 -1.0016
  971TP3     H214733   2.752   0.928   6.842 -0.8740 -1.5183 -0.3141
  972TP3      O14734   0.105   2.790   9.200 -0.3495 -0.7054  0.0150
  972TP3     H114735   0.066   2.725   9.259 -1.6864 -1.4341 -1.5812
  972TP3     H214736   0.060   2.776   9.117  1.5289  0.2073 -1.2217
  973TP3      O14737   4.274   2.472   2.204  0.4100  0.3663  0.4076
  973TP3     H114738   4.305   2.383   2.185  1.2176  0.5088  0.9945
  973TP3     H214739   4.218   2.494   2.130  0.3291 -0.5729  0.1735
  974TP3      O14740   0.409   5.031   9.990 -0.0533  0.3944 -0.1336
  974TP3     H114741   0.426   4.937  10.000 -1.0196  0.0969 -1.1958
  974TP3     H214742   0.342   5.037   9.923 -1.3037  1.7590  1.1659
  975TP3      O14743   2.635   3.471   1.532  0.0048 -0.8605 -0.4941
  975TP3     H114744   2.647   3.565   1.517 -2.6894 -0.3877 -0.2304
  975TP3     H214745   2.586   3.440   1.456  1.4692 -2.2558 -0.9178
  976TP3      O14746   2.240   4.008   7.269 -0.2310 -0.1747 -0.1337
  976TP3     H114747   2.240   4.030   7.176  0.2477  0.4234  0.0082
  976TP3     H214748   2.303   3.936   7.277  0.2725  0.2610 -0.1584
  977TP3      O14749   0.075   1.623   8.605 -0.3322 -0.2612  0.1530
  977TP3     H114750   0.133   1.611   8.680  0.1467 -0.6340 -0.2659
  977TP3     H214751   0.126   1.674   8.542 -1.6659  2.4318  1.1184
  978TP3      O14752   5.028   4.149   2.497  0.3478 -0.4080  0.1983
  978TP3     H114753   5.039   4.107   2.582  0.0882  2.3230  1.6974
  978TP3     H214754   4.934   4.168   2.491  0.2701 -1.0292 -0.9735
  979TP3      O14755   5.095   0.924   1.837  0.2603 -0.0310  0.1503
  979TP3     H114756   5.077   1.006   1.792  0.4662 -0.6436 -1.0924
  979TP3     H214757   5.167   0.944   1.897 -0.3904  0.9320  0.6259
  980TP3      O14758   1.880   0.054   7.481  0.7222 -0.3152 -0.0207
  980TP3     H114759   1.859  -0.027   7.527 -0.2676 -0.3452 -0.4885
  980TP3     H214760   1.885   0.120   7.550 -1.1918 -0.2693  0.1487
  981TP3      O14761   2.695   3.037   6.749 -0.8039 -0.2243 -0.2841
  981TP3     H114762   2.704   2.942   6.746 -1.3661 -0.3336  0.9633
  981TP3     H214763   2.632   3.058   6.680  1.4405 -0.4198 -2.5323
  982TP3      O14764   4.555   3.929   7.943  0.2505  0.0432  0.1117
  982TP3     H114765   4.531   4.005   7.996 -0.2036  1.6565 -2.2767
  982TP3     H214766   4.595   3.868   8.006  1.5230  2.6046  1.9855
  983TP3      O14767   1.303   1.022   7.014 -0.3161  0.2338  0.5792
  983TP3     H114768   1.325   0.949   7.072 -0.1752  1.0229  1.5694
  983TP3     H214769   1.317   0.989   6.926 -0.3132 -0.9450  1.0094
  984TP3      O14770   1.104   1.544   1.698  0.6880  0.2825 -1.0748
  984TP3     H114771   1.062   1.497   1.625 -2.4733  1.5508 -0.2305
  984TP3     H214772   1.032   1.565   1.757  2.4930  3.0826  0.3276
  985TP3      O14773   4.205   1.706   1.843  0.2366  0.1740 -0.1780
  985TP3     H114774   4.162   1.752   1.915 -1.3900 -0.7680 -0.4953
  985TP3     H214775   4.252   1.634   1.885 -0.8788 -0.4989 -0.0167
  986TP3      O14776   3.951   2.118   1.959 -0.1375 -0.2623  0.1412
  986TP3     H114777   3.910   2.180   1.899 -0.8082 -1.5733 -0.8067
  986TP3     H214778   3.884   2.100   2.024 -0.0288 -0.1749  0.2780
  987TP3      O14779   2.034   2.574   7.803  0.4209  0.1791 -0.0163
  987TP3     H114780   2.037   2.640   7.872  0.0699  0.5025 -0.2986
  987TP3     H214781   1.992   2.620   7.729  0.0804 -0.3902 -0.1790
  988TP3      O14782   1.316   4.237   8.557 -0.2620  0.4203 -0.2202
  988TP3     H114783   1.260   4.200   8.625  1.4442 -0.3126  0.8407
  988TP3     H214784   1.255   4.270   8.491 -1.9158 -1.6369  0.1861
  989TP3      O14785   5.172   3.614   9.253 -0.2547  0.0631  0.3121
  989TP3     H114786   5.194   3.539   9.198 -1.2490 -2.3087  2.8789
  989TP3     H214787   5.076   3.615   9.254 -0.2577  0.3911  1.5062
  990TP3      O14788   4.404   3.023   8.072 -0.8362 -0.0132 -0.2253
  990TP3     H114789   4.366   3.047   8.157 -0.5566  0.4274 -0.2203
  990TP3     H214790   4.332   3.034   8.010 -0.6703  1.0572 -0.2534
  991TP3      O14791   0.640   1.112   7.622 -0.0167  0.5315  0.4625
  991TP3     H114792   0.662   1.164   7.699  1.9768  2.0666 -1.0470
  991TP3     H214793   0.673   1.024   7.643  0.3420  0.8767  1.4082
  992TP3      O14794   1.436   1.524   8.358  0.0274  0.3962 -0.2830
  992TP3     H114795   1.498   1.485   8.420 -0.3492 -0.6138 -0.5339
  992TP3     H214796   1.371   1.568   8.414 -0.1786 -0.3060  0.0452
  993TP3      O14797   1.700   5.066   1.005  0.4245  0.1447  0.1293
  993TP3     H114798   1.703   5.114   1.088  1.1362 -0.3259  0.3828
  993TP3     H214799   1.607   5.062   0.984  0.3107  1.1805  0.3611
  994TP3      O14800   0.911   4.820   8.714  0.2249  1.0570 -0.2924
  994TP3     H114801   0.866   4.860   8.639 -0.0833  1.5505  0.1434
  994TP3     H214802   0.948   4.739   8.680  0.1406  1.3048 -0.9944
  995TP3      O14803   4.441   4.920   1.580  1.0377 -0.3467 -0.2523
  995TP3     H114804   4.455   4.825   1.577 -0.2483 -0.5617 -0.1433
  995TP3     H214805   4.347   4.930   1.568  1.3484  1.0196 -1.8875
  996TP3      O14806   2.803   3.330   7.340  0.2038 -0.0725  0.4446
  996TP3     H114807   2.734   3.332   7.274  1.7661 -0.1855 -1.2871
  996TP3     H214808   2.882   3.356   7.292  1.8296 -2.2996  1.7039
  997TP3      O14809   0.067   3.479   9.477  0.2811  0.2598 -0.3099
  997TP3     H114810   0.118   3.409   9.438 -0.2383 -0.4930  0.3236
  997TP3     H214811   0.005   3.504   9.409  0.5860  0.2298 -0.6005
  998TP3      O14812   0.944   1.449   8.550  0.1922 -0.0065 -0.6926
  998TP3     H114813   0.961   1.465   8.643  0.0648  0.4404 -0.7470
  998TP3     H214814   0.992   1.369   8.531 -1.1084 -1.0562  0.1799
  999TP3      O14815   0.650   4.897   7.885  0.7331  0.4234  0.5412
  999TP3     H114816   0.627   4.982   7.848  0.7211 -0.2304 -1.0229
  999TP3     H214817   0.611   4.833   7.825 -1.4669 -0.7379  3.0421
 1000TP3      O14818   3.051   2.148   8.620 -0.0241 -0.1575  0.2258
 1000TP3     H114819   3.131   2.153   8.568 -0.2024  0.0815 -0.0284
 1000TP3     H214820   2.980   2.142   8.556 -0.1798 -0.8504  0.4564
 1001TP3      O14821   0.827   1.826   7.917  0.3982  0.7642  0.4586
 1001TP3     H114822   0.824   1.868   8.003  0.8112  0.6687  0.5241
 1001TP3     H214823   0.848   1.897   7.857 -1.4811  1.1518  0.1990
 1002TP3      O14824   2.043   4.311   8.090  0.3235  0.0577 -0.0059
 1002TP3     H114825   1.950   4.287   8.083  0.8112 -1.9836 -0.2857
 1002TP3     H214826   2.061   4.358   8.009 -0.0169 -1.3427 -0.9402
 1003TP3      O14827   2.870   3.597   0.518  0.2479  0.1152  0.0919
 1003TP3     H114828   2.961   3.573   0.538  1.0422  1.2799 -1.8621
 1003TP3     H214829   2.835   3.522   0.471  1.1795  0.7801 -1.7429
 1004TP3      O14830   3.037   0.307   8.159 -0.2469 -0.2729 -0.2390
 1004TP3     H114831   3.026   0.226   8.209  0.1287  0.2993  0.8088
 1004TP3     H214832   3.001   0.376   8.216  0.0223  0.3823 -0.8386
 1005TP3      O14833   4.092   0.926   9.597  0.5164 -0.5040  0.3642
 1005TP3     H114834   4.179   0.917   9.558  0.7803 -0.9702  1.0417
 1005TP3     H214835   4.031   0.905   9.526  0.8614  1.7301 -0.6903
 1006TP3      O14836   2.424   3.947   9.873 -0.2326  0.5249  0.0408
 1006TP3     H114837   2.394   3.998   9.948 -1.7730  0.1415 -0.2619
 1006TP3     H214838   2.483   3.882   9.909  3.5704  3.6838  0.2227
 1007TP3      O14839   4.359   3.283   7.215 -0.2124 -0.0555  0.2043
 1007TP3     H114840   4.318   3.291   7.129  0.5837 -1.1117 -0.2895
 1007TP3     H214841   4.444   3.324   7.204 -0.3176  0.2885  0.6522
 1008TP3      O14842   2.945   4.329   1.427 -0.7422 -0.1733  0.1829
 1008TP3     H114843   2.886   4.287   1.489  0.7652 -2.4696  0.2049
 1008TP3     H214844   3.009   4.261   1.405 -0.4266  0.9482 -2.8802
 1009TP3      O14845   2.957   3.187   6.758  0.1211  0.9152  0.6878
 1009TP3     H114846   3.028   3.123   6.757 -0.3313  0.4000  1.0324
 1009TP3     H214847   2.880   3.139   6.727  0.0789  1.6771 -0.4611
 1010TP3      O14848   3.745   3.282   8.532  0.4163  0.0792  0.1817
 1010TP3     H114849   3.833   3.267   8.565 -0.4544 -1.0526  2.1807
 1010TP3     H214850   3.704   3.195   8.532 -1.0270  0.7306  0.3213
 1011TP3      O14851   4.655   3.903   7.476 -0.2961 -0.2370  0.5133
 1011TP3     H114852   4.597   3.864   7.542  0.4636  0.2049  1.4595
 1011TP3     H214853   4.599   3.966   7.430 -0.1787  1.4665  2.5820
 1012TP3      O14854   4.260   0.644   7.787  0.3946 -0.5695 -0.3662
 1012TP3     H114855   4.175   0.610   7.758  0.6431 -2.2430  0.7038
 1012TP3     H214856   4.287   0.703   7.717 -1.3063 -0.5580 -1.0756
 1013TP3      O14857   5.062   2.863   6.573 -0.4855  0.2582  0.0403
 1013TP3     H114858   5.123   2.910   6.630 -1.0779  1.2420 -0.1170
 1013TP3     H214859   4.980   2.861   6.623 -0.8381  0.5969 -0.5118
 1014TP3      O14860   1.692   1.492   7.211 -0.7328 -0.4072 -0.3212
 1014TP3     H114861   1.660   1.567   7.162  0.5021 -0.0990 -0.6993
 1014TP3     H214862   1.776   1.471   7.170 -1.2349 -2.2525 -0.4827
 1015TP3      O14863   1.449   4.127   0.301  0.0189  0.0113 -0.4796
 1015TP3     H114864   1.386   4.119   0.373  0.6839 -0.9838  0.0291
 1015TP3     H214865   1.466   4.221   0.293 -0.2750  0.1542  0.4909
 1016TP3      O14866   2.905   2.163   9.865  0.0318 -0.3863 -0.5538
 1016TP3     H114867   2.970   2.227   9.835  1.4480 -1.0012  1.0408
 1016TP3     H214868   2.938   2.079   9.833  1.0580 -0.9283  1.7321
 1017TP3      O14869   2.476   5.101   9.136 -0.2332 -0.0349  0.0445
 1017TP3     H114870   2.513   5.161   9.199  0.9648 -0.4272 -0.2521
 1017TP3     H214871   2.482   5.015   9.177  1.7038 -0.4712 -1.0339
 1018TP3      O14872   4.276   3.518   0.591 -0.2975  0.0664  0.3425
 1018TP3     H114873   4.197   3.519   0.645 -0.8194 -1.3188 -0.3422
 1018TP3     H214874   4.347   3.538   0.652 -0.7650 -2.2605  1.7728
 1019TP3      O14875   4.480   4.482   9.119  0.4776 -0.0024  0.1552
 1019TP3     H114876   4.477   4.561   9.066  0.8465 -0.5273 -0.6822
 1019TP3     H214877   4.564   4.487   9.164  0.3291  0.2697  0.3985
 1020TP3      O14878   3.878   4.762   7.258 -0.4994 -0.9899 -0.2426
 1020TP3     H114879   3.903   4.749   7.166  0.1461 -1.3184 -0.0246
 1020TP3     H214880   3.961   4.770   7.304 -0.8082 -1.6167  0.4321
 1021TP3      O14881   0.680   4.051   0.350  0.0075  0.1771 -0.5962
 1021TP3     H114882   0.588   4.066   0.371  0.1197 -2.5809  2.5781
 1021TP3     H214883   0.720   4.138   0.357 -1.9956  1.1273 -0.1274
 1022TP3      O14884   0.241   2.890   8.381  0.5141  0.0598  0.0318
 1022TP3     H114885   0.183   2.945   8.434  1.3441  0.2098  0.8096
 1022TP3     H214886   0.274   2.825   8.442  1.1654 -0.0202 -0.4028
 1023TP3      O14887   3.066   1.433   0.632  0.2059 -0.6078  0.0077
 1023TP3     H114888   2.974   1.456   0.621  0.3632 -0.8918 -2.5704
 1023TP3     H214889   3.071   1.340   0.610  1.3010 -0.2266 -1.5788
 1024TP3      O14890   5.052   3.791   6.513 -0.3824 -0.2918  0.0669
 1024TP3     H114891   5.131   3.745   6.484 -0.5466 -0.2365 -0.4773
 1024TP3     H214892   4.985   3.722   6.518 -0.4632 -0.2253 -0.1080
 1025TP3      O14893   0.611   4.681   9.542 -0.1258  0.1617  0.1704
 1025TP3     H114894   0.625   4.644   9.455 -1.5578  1.1639 -0.5134
 1025TP3     H214895   0.604   4.605   9.600 -0.3380 -0.5477 -0.7710
 1026TP3      O14896   3.864   3.504   8.401 -0.3750 -0.4585  0.0198
 1026TP3     H114897   3.805   3.475   8.471 -1.9324 -0.9091 -1.4258
 1026TP3     H214898   3.906   3.582   8.437 -1.1891 -0.6248  1.4301
 1027TP3      O14899   3.968   0.630   6.379  0.0188 -0.2321 -0.2876
 1027TP3     H114900   3.941   0.539   6.368 -2.8712  0.4287  0.3254
 1027TP3     H214901   4.027   0.629   6.455 -3.1510 -1.2400  2.4326
 1028TP3      O14902   1.500   2.227   2.803  0.4570 -0.2949 -0.0920
 1028TP3     H114903   1.504   2.321   2.788  0.8976 -0.1713  0.7282
 1028TP3     H214904   1.586   2.204   2.838  0.0833 -0.8495  0.4982
 1029TP3      O14905   1.054   4.808   7.112  0.0456  0.5577 -0.3866
 1029TP3     H114906   0.984   4.873   7.106 -0.3536  0.3287  1.3838
 1029TP3     H214907   1.129   4.857   7.146  0.7073  0.7282 -1.9656
 1030TP3      O14908   5.126   1.435   9.072  0.5172 -0.4089  0.3101
 1030TP3     H114909   5.106   1.495   9.144  1.8257 -0.3776  0.6729
 1030TP3     H214910   5.155   1.491   9.001 -0.5643 -0.4572 -0.1889
 1031TP3      O14911   1.935   0.149   2.862 -0.4332 -0.2993 -0.5769
 1031TP3     H114912   2.026   0.174   2.876 -0.5708 -0.5539  0.9860
 1031TP3     H214913   1.940   0.059   2.830 -0.1208 -0.2168 -0.7628
 1032TP3      O14914   2.733   0.511   0.611 -0.0402  0.0377 -0.6813
 1032TP3     H114915   2.814   0.515   0.559 -0.5051 -2.1375 -1.7116
 1032TP3     H214916   2.730   0.421   0.642 -1.0578  0.6482  1.1216
 1033TP3      O14917   1.664   0.346   7.623  0.4582  0.1206  0.2648
 1033TP3     H114918   1.615   0.294   7.559 -0.1539  1.0781 -0.0747
 1033TP3     H214919   1.754   0.314   7.616  0.3314 -0.0382 -0.8299
 1034TP3      O14920   3.610   3.145   0.306 -0.3913 -0.1570  0.3720
 1034TP3     H114921   3.582   3.095   0.383 -0.9146 -0.2461  0.1288
 1034TP3     H214922   3.705   3.134   0.303 -0.3136  0.1602  1.2244
 1035TP3      O14923   2.203   0.091   1.407 -0.2624 -0.0517  0.0276
 1035TP3     H114924   2.211   0.064   1.316 -0.9046  0.2999 -0.1411
 1035TP3     H214925   2.109   0.106   1.420 -0.1521  0.1380  0.6746
 1036TP3      O14926   5.099   4.282   1.968 -0.0227 -0.2772 -0.1487
 1036TP3     H114927   5.077   4.357   1.913 -0.1008 -0.5069 -0.4357
 1036TP3     H214928   5.187   4.300   2.000 -0.9549  1.1385  1.8350
 1037TP3      O14929   4.705   4.035   7.119 -0.1252 -0.8827 -0.2644
 1037TP3     H114930   4.769   4.105   7.114 -0.9126 -0.1924 -1.0106
 1037TP3     H214931   4.627   4.075   7.156 -0.6675 -1.2860 -0.9306
 1038TP3      O14932   2.725   0.344   2.130  0.0774 -0.1184  0.0423
 1038TP3     H114933   2.717   0.361   2.036  1.2071  0.1245 -0.0341
 1038TP3     H214934   2.636   0.327   2.160 -0.0370 -3.0496 -1.6130
 1039TP3      O14935   0.504   1.261   9.433 -0.0292 -0.3643  0.0401
 1039TP3     H114936   0.500   1.174   9.394  1.2850 -0.6099  0.4184
 1039TP3     H214937   0.494   1.247   9.527  0.4390 -0.1336  0.1260
 1040TP3      O14938   3.127   1.356   8.259  0.4013 -0.0401  0.7728
 1040TP3     H114939   3.072   1.404   8.321  1.6818  1.4866  0.7909
 1040TP3     H214940   3.168   1.287   8.310 -0.0230  0.0087  1.1829
 1041TP3      O14941   0.062   3.983   8.869  0.8995  0.2908 -0.0655
 1041TP3     H114942   0.076   3.892   8.844  3.0843  0.4992  0.2201
 1041TP3     H214943   0.091   3.989   8.960  0.6121  1.2299 -0.0176
 1042TP3      O14944   2.400   5.274   0.952 -0.2748  0.1916  0.2337
 1042TP3     H114945   2.334   5.304   0.889 -0.6657  0.9345  0.9844
 1042TP3     H214946   2.431   5.190   0.916 -0.9423  0.2980 -0.6143
 1043TP3      O14947   1.652   4.972   1.444 -0.3416  0.0546 -0.5992
 1043TP3     H114948   1.736   5.014   1.426  0.0471 -0.2875  0.3308
 1043TP3     H214949   1.651   4.894   1.389 -0.0573  0.0676 -0.6219
 1044TP3      O14950   2.507   0.663   0.634  0.6518  0.5388 -0.1355
 1044TP3     H114951   2.465   0.578   0.627  0.2794  0.4422  2.2421
 1044TP3     H214952   2.601   0.644   0.635  0.5714  0.1328  0.3591
 1045TP3      O14953   0.906   1.875   1.723  0.5121 -0.3852  0.8009
 1045TP3     H114954   0.859   1.837   1.649 -1.4527  0.8294  1.3348
 1045TP3     H214955   0.905   1.807   1.790  2.8136 -1.7092 -0.4005
 1046TP3      O14956   1.273   0.007   8.648 -0.2840  0.2343 -0.1429
 1046TP3     H114957   1.233  -0.080   8.644  0.7185 -0.2317 -0.4332
 1046TP3     H214958   1.201   0.067   8.631 -0.6907 -0.6254 -1.7381
 1047TP3      O14959   3.299   2.087   9.511 -0.3418  0.3946 -0.1586
 1047TP3     H114960   3.302   2.181   9.530 -1.6293  0.0652  1.9907
 1047TP3     H214961   3.389   2.057   9.523 -0.0060  1.2607 -0.4168
 1048TP3      O14962   3.827   5.055   8.682  0.1207 -0.4874 -0.0806
 1048TP3     H114963   3.863   5.048   8.593 -0.8440  1.5591 -0.7018
 1048TP3     H214964   3.740   5.017   8.675  0.2778 -0.8951  0.1578
 1049TP3      O14965   5.002   2.554   7.210  0.2390  0.5905 -0.1093
 1049TP3     H114966   5.011   2.529   7.118 -1.1462 -0.5484  0.0201
 1049TP3     H214967   4.912   2.530   7.232  0.4240  1.2160  1.4361
 1050TP3      O14968   4.035   2.724   0.583  0.3741  0.1095 -0.2956
 1050TP3     H114969   3.996   2.799   0.628 -0.8399  0.5634 -2.0259
 1050TP3     H214970   3.962   2.684   0.535  1.5210 -0.6624 -1.4476
 1051TP3      O14971   2.378   3.649   8.692  0.3585  0.0126 -0.2906
 1051TP3     H114972   2.325   3.576   8.658  1.3230  0.1041 -2.1260
 1051TP3     H214973   2.318   3.723   8.694 -0.1083 -0.3521 -0.4102
 1052TP3      O14974   2.824   2.596   0.467  0.2168 -0.3150 -0.2322
 1052TP3     H114975   2.798   2.584   0.559  0.5256 -0.6998 -0.1887
 1052TP3     H214976   2.919   2.608   0.471  0.0394  1.4173 -0.3552
 1053TP3      O14977   3.538   0.511   2.244  0.3081 -0.0976 -0.1258
 1053TP3     H114978   3.485   0.587   2.221 -0.8776 -0.0889  2.3307
 1053TP3     H214979   3.593   0.541   2.317 -0.7719 -1.7300  1.4616
 1054TP3      O14980   3.311   4.245   8.169  0.4636  0.5739  0.2772
 1054TP3     H114981   3.231   4.252   8.117  1.3345  1.7583 -0.9645
 1054TP3     H214982   3.377   4.212   8.108  1.1553  0.5106  1.0426
 1055TP3      O14983   3.591   5.268   8.753 -0.1949  0.2184 -0.2344
 1055TP3     H114984   3.573   5.329   8.681  1.9305  2.4954  0.9906
 1055TP3     H214985   3.686   5.269   8.762 -0.3088 -0.9366  1.8365
 1056TP3      O14986   4.866   1.542   2.504  0.0205  0.2402 -0.0295
 1056TP3     H114987   4.896   1.548   2.595  0.0790  0.8447 -0.0843
 1056TP3     H214988   4.793   1.604   2.499 -0.3733 -0.2342 -0.2434
 1057TP3      O14989   0.061   4.658   2.366 -0.4974 -0.6226  0.3515
 1057TP3     H114990   0.149   4.650   2.402 -1.5105 -0.2685  3.1857
 1057TP3     H214991   0.010   4.698   2.437 -2.9524 -0.8509 -1.1724
 1058TP3      O14992   1.611   4.182   9.802  0.1030  0.1776 -0.3199
 1058TP3     H114993   1.694   4.138   9.823  1.0203  1.7302 -0.4815
 1058TP3     H214994   1.595   4.239   9.877 -0.9761 -0.2945 -0.1800
 1059TP3      O14995   2.721   1.258   3.506  0.1162 -0.4772 -0.2335
 1059TP3     H114996   2.748   1.349   3.504 -0.4639 -0.2661  0.7288
 1059TP3     H214997   2.648   1.253   3.444 -0.7669  0.0521  0.7219
 1060TP3      O14998   0.096   4.646   8.773  0.0984  0.1748 -0.4004
 1060TP3     H114999   0.132   4.565   8.808 -0.4697 -0.2228 -0.7270
 1060TP3     H215000   0.163   4.712   8.792  0.9907 -0.5442 -0.9699
 1061TP3      O15001   3.070   1.973   6.946  0.4678 -0.3645  0.3244
 1061TP3     H115002   3.050   1.917   6.871 -0.8623  1.4676 -0.7735
 1061TP3     H215003   3.161   2.000   6.932  0.1501  0.1623 -0.7902
 1062TP3      O15004   4.586   0.044   9.710 -0.3131 -0.8591 -0.5796
 1062TP3     H115005   4.527   0.040   9.634  0.7277 -1.1685 -1.3927
 1062TP3     H215006   4.531   0.019   9.784 -1.8520  1.2469 -0.8938
 1063TP3      O15007   0.908   3.660   8.885 -0.2158  0.4969 -0.0338
 1063TP3     H115008   0.926   3.631   8.974 -1.8351 -0.8590 -0.0804
 1063TP3     H215009   0.819   3.628   8.868  0.0413  0.7640 -2.1115
 1064TP3      O15010   4.351   0.814   9.131 -0.0385  0.2373 -0.0727
 1064TP3     H115011   4.429   0.862   9.157 -0.5377  1.6649 -1.1003
 1064TP3     H215012   4.383   0.748   9.069  0.7931 -1.5462  2.1189
 1065TP3      O15013   2.723   1.831   0.124 -0.3361  0.2295 -0.0155
 1065TP3     H115014   2.652   1.822   0.061 -0.4679 -0.1915  0.1934
 1065TP3     H215015   2.679   1.847   0.208 -0.1874 -0.1327  0.1314
 1066TP3      O15016   3.684   4.175   1.692 -0.0812  0.2247  0.3279
 1066TP3     H115017   3.616   4.242   1.691 -1.5663 -1.2364 -0.2770
 1066TP3     H215018   3.758   4.217   1.737 -1.2792  1.9188  0.8194
 1067TP3      O15019   0.742   2.306   2.182 -0.4080  0.7267 -0.2167
 1067TP3     H115020   0.818   2.302   2.124 -1.1752  1.8911 -1.3603
 1067TP3     H215021   0.706   2.217   2.180 -2.4055  1.3507 -4.4186
 1068TP3      O15022   2.587   3.216   7.468 -0.1962  0.3222  0.7793
 1068TP3     H115023   2.656   3.271   7.431  0.0824 -0.2036  0.5081
 1068TP3     H215024   2.512   3.274   7.478 -0.7537  0.1697 -1.9245
 1069TP3      O15025   5.023   3.423   8.682 -0.2268 -0.4196  0.2154
 1069TP3     H115026   5.065   3.342   8.713 -1.1411 -0.8364  0.4177
 1069TP3     H215027   5.074   3.493   8.721  1.0749 -0.8761 -0.6030
 1070TP3      O15028   1.927   3.061   8.010  0.0464 -0.3842  0.2130
 1070TP3     H115029   1.913   3.041   7.917  1.0907 -0.5696  0.0785
 1070TP3     H215030   2.018   3.089   8.015 -0.6665  1.9967  0.8220
 1071TP3      O15031   3.432   3.251   8.484  0.4599 -0.3189  0.5030
 1071TP3     H115032   3.498   3.264   8.417  2.1577 -1.4011  1.8905
 1071TP3     H215033   3.414   3.157   8.484  0.7200 -0.3898  1.7458
 1072TP3      O15034   2.081   1.293   1.247  0.3292 -0.4464  0.3029
 1072TP3     H115035   2.130   1.278   1.166 -0.3957  0.7748 -0.3908
 1072TP3     H215036   2.031   1.373   1.230 -1.8808 -1.6258  0.9976
 1073TP3      O15037   0.205   4.947   8.652  0.3936 -0.1037  0.0899
 1073TP3     H115038   0.215   5.029   8.604 -2.3748 -0.4358 -1.2894
 1073TP3     H215039   0.265   4.886   8.610  1.8104  0.9485  0.5308
 1074TP3      O15040   0.101   2.605   6.254  0.1517 -0.1457 -0.3759
 1074TP3     H115041   0.104   2.551   6.333  0.6259  0.7254  0.2153
 1074TP3     H215042   0.014   2.646   6.257 -1.0430 -2.3665 -1.8771
 1075TP3      O15043   0.632   3.356   0.221 -0.0139 -0.0947 -0.0919
 1075TP3     H115044   0.588   3.285   0.268  0.1743 -1.7377 -2.2276
 1075TP3     H215045   0.563   3.418   0.201 -0.9855 -1.5312 -1.4172
 1076TP3      O15046   4.826   0.683   1.016  0.5872  0.6068 -0.1825
 1076TP3     H115047   4.763   0.723   1.076 -2.3719  0.9498 -3.2248
 1076TP3     H215048   4.891   0.752   1.000 -2.2282  3.0065 -2.2629
 1077TP3      O15049   1.897   1.661   8.296 -0.0331 -0.0695  0.4442
 1077TP3     H115050   1.817   1.714   8.299  0.1368  0.3570 -1.2551
 1077TP3     H215051   1.944   1.684   8.376 -0.9797  0.7087  0.8033
 1078TP3      O15052   4.883   2.362   2.144 -0.0699 -1.0085  0.6206
 1078TP3     H115053   4.858   2.270   2.156 -3.5352  0.0589  3.2308
 1078TP3     H215054   4.881   2.399   2.232 -1.1813  2.0684 -0.5733
 1079TP3      O15055   4.020   4.794   8.276  0.3131 -0.3520 -0.4206
 1079TP3     H115056   3.981   4.874   8.309  1.3591  0.3882 -0.9167
 1079TP3     H215057   3.948   4.732   8.271 -0.4356  0.4385  0.3443
 1080TP3      O15058   2.471   0.347   9.407  0.1121  0.3522  0.7071
 1080TP3     H115059   2.501   0.278   9.465 -2.8899 -0.2454  1.7446
 1080TP3     H215060   2.444   0.418   9.465  2.3986  2.1969 -0.3071
 1081TP3      O15061   4.691   2.671   0.578 -0.0564  0.2955 -0.0010
 1081TP3     H115062   4.610   2.657   0.626  0.5337 -0.8805  0.7099
 1081TP3     H215063   4.693   2.765   0.560 -1.5729  0.3363 -0.0557
 1082TP3      O15064   1.206   2.567   8.935  0.6576 -0.0429  0.3511
 1082TP3     H115065   1.144   2.552   8.864  0.8662 -1.8817  0.5107
 1082TP3     H215066   1.164   2.634   8.990 -0.4802 -0.1589 -0.3509
 1083TP3      O15067   1.206   3.750   9.568  0.3735  0.2149  0.0353
 1083TP3     H115068   1.221   3.749   9.662 -0.8960 -0.5974  0.2563
 1083TP3     H215069   1.218   3.659   9.541 -0.0390  0.2992 -0.4462
 1084TP3      O15070   3.929   1.861   2.082 -0.2133 -0.2158 -0.4833
 1084TP3     H115071   3.931   1.852   1.987 -1.2169  1.4341 -0.6837
 1084TP3     H215072   3.865   1.930   2.099  1.3115  0.8642  1.2814
 1085TP3      O15073   0.604   2.699   8.806  0.2413 -0.3284 -0.6635
 1085TP3     H115074   0.636   2.609   8.797  0.9935 -0.2769  1.1410
 1085TP3     H215075   0.674   2.745   8.852 -0.0866  1.2351 -1.6588
 1086TP3      O15076   3.969   4.435   8.705 -0.2271 -0.2879 -0.2911
 1086TP3     H115077   3.881   4.412   8.735  0.1273 -1.1806  0.0945
 1086TP3     H215078   3.962   4.527   8.679 -1.3508 -0.4379 -0.5747
 1087TP3      O15079   4.774   1.653   7.294 -0.7816 -0.4392  0.0494
 1087TP3     H115080   4.807   1.738   7.266 -0.3037 -0.3830  0.7509
 1087TP3     H215081   4.745   1.610   7.214  0.6942 -0.3473 -0.5513
 1088TP3      O15082   5.074   1.355   1.401  0.5770  0.1883  0.3252
 1088TP3     H115083   5.068   1.450   1.394 -2.5426  0.4135  3.3541
 1088TP3     H215084   5.066   1.337   1.494 -0.6098 -3.1048 -0.2720
 1089TP3      O15085   2.049   4.572   6.651  0.1678  0.4348 -0.8161
 1089TP3     H115086   1.964   4.596   6.613 -0.3742 -1.1931 -0.7414
 1089TP3     H215087   2.038   4.480   6.674  0.3895  1.2984  3.4331
 1090TP3      O15088   2.231   2.175   8.435 -0.1191  0.4073 -0.0327
 1090TP3     H115089   2.219   2.228   8.356 -0.6236 -1.3047 -1.1613
 1090TP3     H215090   2.178   2.219   8.501 -2.1269  0.2737 -1.4519
 1091TP3      O15091   3.708   1.572   9.211  0.3278  0.3772  0.4259
 1091TP3     H115092   3.772   1.563   9.281  1.0376  0.8059 -0.1517
 1091TP3     H215093   3.761   1.582   9.132 -0.4376  1.8364  0.0697
 1092TP3      O15094   2.549   1.162   9.368  0.4832 -0.1711  0.0680
 1092TP3     H115095   2.536   1.212   9.448  1.1202  0.1365 -0.0161
 1092TP3     H215096   2.613   1.212   9.318 -0.0914 -0.2202 -0.7563
 1093TP3      O15097   1.997   0.809   1.508  0.6513 -0.1434 -0.3553
 1093TP3     H115098   1.963   0.893   1.476 -0.1268 -0.4954 -0.4743
 1093TP3     H215099   2.033   0.829   1.594 -0.5186  0.1200  0.0987
 1094TP3      O15100   4.228   5.229   8.110 -0.2627  0.3414 -0.5314
 1094TP3     H115101   4.265   5.252   8.195 -0.9828 -1.6730  0.4113
 1094TP3     H215102   4.290   5.264   8.046  1.5567 -0.1097  0.8951
 1095TP3      O15103   1.608   4.761   1.261  0.2757  0.3595  0.3099
 1095TP3     H115104   1.618   4.792   1.171 -0.8991 -0.4136 -0.1086
 1095TP3     H215105   1.644   4.673   1.260  1.8145  0.9466  1.0278
 1096TP3      O15106   1.532   2.410   2.369 -0.1710  0.0593  0.0144
 1096TP3     H115107   1.469   2.398   2.440 -1.7913 -1.4069 -1.5602
 1096TP3     H215108   1.615   2.378   2.405 -0.8373 -0.2176  1.3732
 1097TP3      O15109   4.002   3.098   3.429 -0.3581 -0.7822  0.2626
 1097TP3     H115110   3.995   3.077   3.522 -0.8486  1.8844  0.9182
 1097TP3     H215111   3.931   3.049   3.388 -2.9258  1.1677  2.0202
 1098TP3      O15112   4.487   2.174   9.655 -0.0340  0.1247 -0.0691
 1098TP3     H115113   4.431   2.117   9.603  1.1535 -1.2912  0.1196
 1098TP3     H215114   4.434   2.198   9.731  0.6661 -4.3343  2.1529
 1099TP3      O15115   2.113   0.888   9.405  0.8800  0.1333  0.2977
 1099TP3     H115116   2.141   0.952   9.470 -0.0593 -0.1865  1.0501
 1099TP3     H215117   2.059   0.826   9.454 -0.5575  0.3414 -0.9316
 1100TP3      O15118   0.830   2.299   2.752 -0.1165 -0.2017  0.8817
 1100TP3     H115119   0.802   2.212   2.780 -0.1950 -0.9382 -1.3017
 1100TP3     H215120   0.757   2.356   2.774 -0.4942 -0.8785  1.4031
 1101TP3      O15121   5.064   0.642   9.381 -0.3008 -0.0471  0.0164
 1101TP3     H115122   5.100   0.700   9.449 -1.4577  0.3789  0.2985
 1101TP3     H215123   4.997   0.696   9.338  0.3524 -0.3540 -1.4069
 1102TP3      O15124   3.348   2.108   8.127 -0.4270 -0.1991  0.3711
 1102TP3     H115125   3.388   2.154   8.053 -1.7161  0.6751  0.1843
 1102TP3     H215126   3.402   2.030   8.138  0.1992 -0.0079 -1.0535
 1103TP3      O15127   1.126   0.669   0.223  0.3215  0.1296 -0.0518
 1103TP3     H115128   1.117   0.581   0.185 -1.4078  0.8993 -1.6230
 1103TP3     H215129   1.102   0.728   0.151 -0.0725  1.8243  1.3971
 1104TP3      O15130   3.166   5.203   8.482  0.3247 -0.0193 -0.1430
 1104TP3     H115131   3.123   5.142   8.543  1.7447  0.0122  0.9408
 1104TP3     H215132   3.226   5.147   8.432 -1.8583 -0.3083 -2.6216
 1105TP3      O15133   4.649   1.687   8.377  0.1261  0.0400 -0.2363
 1105TP3     H115134   4.570   1.642   8.346 -0.5765 -0.0164  1.5110
 1105TP3     H215135   4.718   1.621   8.373  0.0260 -0.0018 -1.4876
 1106TP3      O15136   1.329   0.429  10.100 -0.0867  0.0266  0.1951
 1106TP3     H115137   1.322   0.372  10.023  0.7078 -1.1812  0.9857
 1106TP3     H215138   1.292   0.513  10.072 -2.1078 -1.1321 -0.7354
 1107TP3      O15139   2.787   1.963   1.902  0.6558 -0.4789 -0.1418
 1107TP3     H115140   2.851   1.958   1.974  1.3406 -1.8653 -0.8020
 1107TP3     H215141   2.784   2.056   1.879  1.2127 -0.1631  0.9822
 1108TP3      O15142   2.143   0.038   3.693  0.2323  0.3084 -0.7753
 1108TP3     H115143   2.154  -0.050   3.657  0.6524  0.0485 -0.0305
 1108TP3     H215144   2.229   0.080   3.682  0.1445  0.4888 -0.7799
 1109TP3      O15145   3.633   3.550   9.007 -0.9246  0.3672  0.2851
 1109TP3     H115146   3.542   3.577   9.020 -0.6975  0.9097  0.7711
 1109TP3     H215147   3.666   3.606   8.937 -0.9912  0.0943  0.0301
 1110TP3      O15148   2.200   3.126   9.388  0.5072  0.1061  0.3324
 1110TP3     H115149   2.131   3.092   9.332  0.9690  0.3497 -0.3996
 1110TP3     H215150   2.175   3.100   9.476 -1.1792  1.2821  0.2419
 1111TP3      O15151   0.665   2.742   0.242 -0.0960  0.2073  0.0365
 1111TP3     H115152   0.729   2.761   0.172  0.8237  0.3941  0.9038
 1111TP3     H215153   0.699   2.663   0.284 -0.0276  0.7342  0.9811
 1112TP3      O15154   2.686   1.812   1.173 -0.3943  0.0667  0.3789
 1112TP3     H115155   2.745   1.882   1.203 -0.6214  0.1208  0.7012
 1112TP3     H215156   2.706   1.803   1.080 -0.2335  0.4374  0.3736
 1113TP3      O15157   4.044   5.167   2.121 -0.6936 -0.0166  0.1345
 1113TP3     H115158   3.970   5.128   2.167 -0.6417  2.4335  2.4688
 1113TP3     H215159   4.010   5.247   2.082  0.5119  0.7612  0.6008
 1114TP3      O15160   3.815   2.613   6.925  0.2875  0.0666 -0.4375
 1114TP3     H115161   3.869   2.544   6.887 -1.0016 -1.8028  0.9262
 1114TP3     H215162   3.727   2.596   6.891 -0.0670  1.0441 -0.0571
 1115TP3      O15163   3.400   0.761   7.991  0.3488  0.1668 -0.6992
 1115TP3     H115164   3.323   0.707   8.012  1.9338 -2.0433 -0.2412
 1115TP3     H215165   3.387   0.786   7.900 -0.6224 -0.7360 -0.8314
 1116TP3      O15166   3.126   2.508  10.087  0.9601 -0.0773 -0.1033
 1116TP3     H115167   3.213   2.522  10.123  0.7379  0.1599  0.3635
 1116TP3     H215168   3.073   2.482  10.163 -0.1450  3.0199  0.3664
 1117TP3      O15169   3.730   0.723   7.286 -0.0313 -0.2014  0.3404
 1117TP3     H115170   3.669   0.678   7.226  1.1316 -3.5369  1.4190
 1117TP3     H215171   3.678   0.738   7.365 -0.2083 -0.5751  0.3011
 1118TP3      O15172   1.150   3.537   2.017  0.5442 -0.0761 -0.5805
 1118TP3     H115173   1.208   3.487   2.075  0.5478 -1.7325 -1.9237
 1118TP3     H215174   1.067   3.539   2.064  1.0017  0.0966  0.2379
 1119TP3      O15175   4.869   3.603   6.581 -0.3036 -0.3483  0.1042
 1119TP3     H115176   4.870   3.514   6.616  0.6961 -0.8992 -1.2468
 1119TP3     H215177   4.776   3.620   6.561 -0.6187 -0.7365  1.1723
 1120TP3      O15178   4.606   2.865   1.270  0.5506 -0.0958  0.5033
 1120TP3     H115179   4.660   2.926   1.320 -2.9877  1.5039  2.7548
 1120TP3     H215180   4.625   2.886   1.178  2.8608  1.0824  1.1722
 1121TP3      O15181   0.217   1.807   0.543  0.2229 -0.1894  0.0372
 1121TP3     H115182   0.192   1.876   0.603 -0.2761  0.1234 -0.5200
 1121TP3     H215183   0.221   1.728   0.597  2.0938  0.4715  0.9487
 1122TP3      O15184   4.899   1.829   1.169  0.5050 -0.0409 -0.1898
 1122TP3     H115185   4.847   1.749   1.176  1.0697 -0.6546 -2.1503
 1122TP3     H215186   4.865   1.886   1.237 -1.8983 -0.8782 -0.5885
 1123TP3      O15187   0.493   3.774   8.262 -0.2077 -0.0087  0.3331
 1123TP3     H115188   0.530   3.745   8.345  0.2398 -0.6140 -0.0626
 1123TP3     H215189   0.507   3.869   8.261 -0.6737  0.0751  1.1582
 1124TP3      O15190   1.174   2.133   0.940 -0.5442  0.4499 -0.1182
 1124TP3     H115191   1.104   2.113   1.001 -0.5770  0.1176 -0.2622
 1124TP3     H215192   1.246   2.075   0.966 -1.3149 -1.3647 -1.7804
 1125TP3      O15193   1.469   2.132  10.017  0.6404 -0.0775 -0.4297
 1125TP3     H115194   1.436   2.116   9.929  1.5904 -1.0072 -0.6281
 1125TP3     H215195   1.395   2.111  10.075  0.4336 -0.7662 -0.9345
 1126TP3      O15196   2.429   0.832   8.747  0.6847 -0.0556 -0.0425
 1126TP3     H115197   2.497   0.792   8.800  0.8340  2.1329  1.5802
 1126TP3     H215198   2.351   0.780   8.764  0.9794 -0.0180  1.5211
 1127TP3      O15199   5.271   0.628   0.587  0.0218  0.1035  0.4928
 1127TP3     H115200   5.287   0.546   0.542 -0.5945  1.7157 -3.0192
 1127TP3     H215201   5.175   0.638   0.585  0.0209  0.4879  1.7268
 1128TP3      O15202   2.331   0.323  10.060 -0.1666  0.4628  0.0718
 1128TP3     H115203   2.398   0.345  10.124 -0.1657  0.4748  0.0673
 1128TP3     H215204   2.266   0.272  10.109 -1.0584  1.9470  0.4944
 1129TP3      O15205   1.831   1.662   7.386  0.6034  0.5443  0.2604
 1129TP3     H115206   1.837   1.733   7.322 -1.3818  0.8395  0.3221
 1129TP3     H215207   1.782   1.593   7.341 -0.8229  0.7535  1.3957
 1130TP3      O15208   1.808   1.402   8.178  0.2550  0.0968 -0.0818
 1130TP3     H115209   1.821   1.490   8.212  0.2298  0.6767 -1.5162
 1130TP3     H215210   1.892   1.378   8.138  0.2875 -0.5618  0.3583
 1131TP3      O15211   2.820   0.871   7.486 -0.5537 -1.0032 -0.1517
 1131TP3     H115212   2.844   0.903   7.399 -1.4809 -1.0029 -0.4113
 1131TP3     H215213   2.876   0.921   7.546  0.7068 -1.5924 -0.7779
 1132TP3      O15214   3.834   3.922   2.418 -0.2115 -0.4458  0.0064
 1132TP3     H115215   3.803   3.892   2.332 -0.5098  1.1309 -0.4755
 1132TP3     H215216   3.897   3.991   2.397  1.0570 -1.2481  1.0469
 1133TP3      O15217   0.679   2.908   2.112  0.0445 -0.6499  0.1615
 1133TP3     H115218   0.728   2.887   2.033  1.1553  0.4946  0.5173
 1133TP3     H215219   0.660   2.823   2.151  0.7118 -1.1679 -0.6066
 1134TP3      O15220   1.706   3.565   2.244 -0.5856  0.1184 -0.4886
 1134TP3     H115221   1.746   3.515   2.173 -0.0875 -0.2052  0.0064
 1134TP3     H215222   1.779   3.614   2.283 -0.9685  0.7962 -0.6077
 1135TP3      O15223   1.221   3.325   3.092  0.7579  0.0377  1.0259
 1135TP3     H115224   1.316   3.339   3.089  0.6990  0.5002  1.1332
 1135TP3     H215225   1.209   3.232   3.074  1.0945  0.4380 -1.6639
 1136TP3      O15226   3.995   4.057   7.453  0.0519 -0.7499 -0.1677
 1136TP3     H115227   3.979   4.119   7.382  0.4241 -0.2625  0.1643
 1136TP3     H215228   3.909   4.020   7.472 -0.2948  0.1095  0.0218
 1137TP3      O15229   2.664   1.305   1.381  0.2314 -0.1627 -0.2230
 1137TP3     H115230   2.595   1.280   1.320 -0.4471 -0.9142  0.8109
 1137TP3     H215231   2.646   1.253   1.459  1.4517  0.2971  0.3869
 1138TP3      O15232   0.726   4.271   9.355 -0.1211  0.4222 -0.1785
 1138TP3     H115233   0.680   4.302   9.277  0.7411  1.0587 -0.4375
 1138TP3     H215234   0.662   4.215   9.399 -0.3683 -0.5754 -1.7362
 1139TP3      O15235   0.325   2.389   7.005  0.5152  0.4335  0.2496
 1139TP3     H115236   0.306   2.465   6.951  0.4535  0.1140 -0.1861
 1139TP3     H215237   0.283   2.316   6.959  1.6215 -0.0646 -0.0098
 1140TP3      O15238   2.973   0.526   1.552 -0.8233  0.3510 -0.4580
 1140TP3     H115239   2.973   0.449   1.495 -0.0301  1.3704 -1.9111
 1140TP3     H215240   3.058   0.525   1.594 -0.8156  0.4112 -0.4712
 1141TP3      O15241   3.253   1.862   2.354 -0.1939 -0.2626 -0.0720
 1141TP3     H115242   3.271   1.952   2.383 -2.0655 -0.2567  1.2184
 1141TP3     H215243   3.213   1.820   2.429 -0.4419 -1.8484 -1.0459
 1142TP3      O15244   1.191   4.464   2.537 -0.0381 -0.4174  0.0544
 1142TP3     H115245   1.127   4.535   2.524 -0.5531 -0.7118  0.8854
 1142TP3     H215246   1.262   4.485   2.477 -0.4364  0.5073 -0.1168
 1143TP3      O15247   0.026   1.219   1.715  0.1530  0.5655  0.6209
 1143TP3     H115248   0.038   1.296   1.771 -2.4784  0.2580  1.7502
 1143TP3     H215249   0.071   1.149   1.761  0.6115  0.9412  0.7559
 1144TP3      O15250   4.941   3.698   2.551 -0.4074 -0.7120  0.6411
 1144TP3     H115251   4.902   3.634   2.611 -1.4808 -1.6783 -0.9891
 1144TP3     H215252   5.021   3.656   2.520 -0.5277 -0.7919  0.4325
 1145TP3      O15253   3.787   2.196   1.027  0.1738  0.0050 -0.0290
 1145TP3     H115254   3.784   2.101   1.035  0.5697 -0.1973 -1.7050
 1145TP3     H215255   3.873   2.220   1.061  0.8426 -0.4929 -1.2740
 1146TP3      O15256   1.507   3.416   9.088 -0.0139 -0.1846  0.4264
 1146TP3     H115257   1.439   3.423   9.021 -0.6099  1.7794  1.1683
 1146TP3     H215258   1.588   3.439   9.043  0.2870 -2.8513 -0.5419
 1147TP3      O15259   1.475   2.002   8.219  0.1770 -0.8267 -0.2072
 1147TP3     H115260   1.427   2.000   8.302  1.6426 -1.1725  0.6536
 1147TP3     H215261   1.421   1.950   8.159 -1.1342 -0.1943  0.3714
 1148TP3      O15262   0.707   3.609   6.833 -0.1612 -0.3591  0.0154
 1148TP3     H115263   0.766   3.654   6.773  1.0248 -0.8387  0.7725
 1148TP3     H215264   0.743   3.520   6.839 -2.3649 -1.4262 -1.3516
 1149TP3      O15265   4.661   0.719   8.961  0.0017 -0.5859 -0.0510
 1149TP3     H115266   4.581   0.704   8.910 -0.3586 -1.6856  0.7976
 1149TP3     H215267   4.651   0.664   9.038  1.9254 -1.3519 -0.2839
 1150TP3      O15268   1.632   0.952   8.590  0.6210  0.2322  0.0320
 1150TP3     H115269   1.692   1.010   8.542  0.2765  0.5807  0.0187
 1150TP3     H215270   1.664   0.863   8.571 -0.5479  0.2407 -2.3256
 1151TP3      O15271   1.557   0.966   2.324  0.1926  0.1298 -0.0701
 1151TP3     H115272   1.530   0.970   2.232 -1.0566  0.9042  0.3144
 1151TP3     H215273   1.651   0.983   2.322  0.3539 -0.7793 -1.2809
 1152TP3      O15274   4.659   4.858   0.017  0.2559 -0.0394  0.2316
 1152TP3     H115275   4.602   4.916   0.067  0.4909  1.1346 -0.7946
 1152TP3     H215276   4.619   4.772   0.026  0.2007  0.1529  2.2558
 1153TP3      O15277   1.253   1.483   8.048  0.1150  0.4519 -1.1203
 1153TP3     H115278   1.345   1.501   8.065  0.0321 -1.1360  1.3975
 1153TP3     H215279   1.211   1.569   8.052  0.9236  0.8172  2.1249
 1154TP3      O15280   2.128   2.047   1.405 -0.2969  0.3260  0.1738
 1154TP3     H115281   2.119   2.006   1.491 -0.1609  1.0216  0.5265
 1154TP3     H215282   2.203   2.106   1.414 -0.7792  1.0099 -0.1756
 1155TP3      O15283   4.077   2.819   0.134  0.8016 -0.5176 -0.2451
 1155TP3     H115284   4.151   2.859   0.087 -0.1576 -0.5278 -1.8473
 1155TP3     H215285   4.109   2.732   0.158  2.5841  0.7589  2.4376
 1156TP3      O15286   4.361   1.636   9.655 -0.2275  0.1209 -0.2110
 1156TP3     H115287   4.353   1.564   9.718 -1.7598  1.4953  1.2662
 1156TP3     H215288   4.444   1.620   9.610 -1.1679 -3.3842 -1.0447
 1157TP3      O15289   4.498   5.089   7.453  0.5269 -0.3867 -0.2680
 1157TP3     H115290   4.411   5.055   7.470  0.3371  0.6587  1.0450
 1157TP3     H215291   4.545   5.079   7.536  1.2404  0.2104 -0.5797
 1158TP3      O15292   4.162   2.798   9.319 -0.0552  0.0317  0.8899
 1158TP3     H115293   4.175   2.705   9.341  1.8070 -0.0295 -0.2959
 1158TP3     H215294   4.140   2.798   9.226  2.6770  0.8906  0.1716
 1159TP3      O15295   5.179   3.876   8.143  0.5513  0.4770  0.3313
 1159TP3     H115296   5.206   3.844   8.229  2.6954  0.4948 -0.2742
 1159TP3     H215297   5.249   3.847   8.084 -1.3668 -0.4354 -1.6212
 1160TP3      O15298   2.874   4.153   7.335  0.0908  0.1172 -0.0867
 1160TP3     H115299   2.933   4.223   7.305  1.2217 -1.3708 -1.5072
 1160TP3     H215300   2.855   4.176   7.426  1.5098  1.5550 -0.0924
 1161TP3      O15301   4.730   1.285   2.569  0.5746 -0.4545 -0.1713
 1161TP3     H115302   4.767   1.373   2.566  2.6116 -1.2403  0.1552
 1161TP3     H215303   4.800   1.229   2.536 -0.6470 -1.9722 -0.2826
 1162TP3      O15304   3.613   4.195   8.426  0.1205 -0.4624 -0.5493
 1162TP3     H115305   3.520   4.201   8.448  0.3734  2.0932  0.1735
 1162TP3     H215306   3.626   4.103   8.404 -2.0440 -1.4356  1.6876
 1163TP3      O15307   1.017   2.673   2.094 -0.1679 -0.1436  0.5182
 1163TP3     H115308   1.085   2.625   2.048  0.7765  0.3794  1.3235
 1163TP3     H215309   0.957   2.703   2.025  1.1897  0.6132 -0.3671
 1164TP3      O15310   1.075   0.767  10.095  0.0506 -0.1393 -0.2774
 1164TP3     H115311   1.040   0.729  10.015 -1.3796  0.7894 -0.1264
 1164TP3     H215312   1.106   0.854  10.068  1.0150 -0.4184 -0.1203
 1165TP3      O15313   1.000   0.633   1.173 -0.3703 -0.0958  0.2767
 1165TP3     H115314   1.031   0.692   1.242  2.5885 -0.8775 -0.2096
 1165TP3     H215315   1.007   0.546   1.211  0.8050 -0.4951 -0.7581
 1166TP3      O15316   2.668   0.490   8.218 -0.4078  0.3779 -0.2213
 1166TP3     H115317   2.591   0.475   8.163 -0.4260  0.0113 -0.0949
 1166TP3     H215318   2.642   0.462   8.305 -0.0370 -0.0295 -0.2375
 1167TP3      O15319   4.755   0.083  10.006  0.6591  0.1076  0.4193
 1167TP3     H115320   4.824   0.037   9.958  0.0702 -1.0037  0.6030
 1167TP3     H215321   4.800   0.123  10.081  1.4471  1.1840 -0.5800
 1168TP3      O15322   0.239   1.160   1.481  0.4050 -0.4468  0.2594
 1168TP3     H115323   0.254   1.237   1.536  0.3837 -0.4244  0.2336
 1168TP3     H215324   0.153   1.174   1.443 -0.0377 -0.9639  1.0522
 1169TP3      O15325   0.657   3.461   2.810 -0.1897  0.2020 -0.0699
 1169TP3     H115326   0.612   3.525   2.865  0.5373 -0.2537  1.0936
 1169TP3     H215327   0.592   3.436   2.745 -1.2328  0.4470  0.8394
 1170TP3      O15328   0.132   3.408   8.012 -0.4017  0.2158 -0.3640
 1170TP3     H115329   0.123   3.501   7.994  0.3376  0.1039 -1.4614
 1170TP3     H215330   0.080   3.365   7.944  1.8464 -0.2115 -1.9540
 1171TP3      O15331   0.065   3.198   1.940  0.6183  0.1258 -0.3611
 1171TP3     H115332   0.092   3.224   1.852  2.5573 -0.5787 -0.0281
 1171TP3     H215333   0.141   3.219   1.995  0.4633 -1.8502  0.6863
 1172TP3      O15334   3.181   0.197   8.754  0.5381 -0.0250 -0.3941
 1172TP3     H115335   3.263   0.171   8.795 -0.3270 -0.3412  1.2495
 1172TP3     H215336   3.114   0.174   8.819 -0.8574  0.1274 -1.7239
 1173TP3      O15337   2.074   0.630   2.526  0.0366 -0.3375  0.2369
 1173TP3     H115338   2.079   0.593   2.437  0.0901 -0.6674  0.3769
 1173TP3     H215339   2.056   0.555   2.582 -1.1697  0.0310  0.3784
 1174TP3      O15340   1.099   0.853   1.034  0.0327  0.4181 -0.0383
 1174TP3     H115341   1.047   0.844   0.954 -1.4246  2.1472  0.6354
 1174TP3     H215342   1.094   0.767   1.076  0.1819 -0.2903 -1.4134
 1175TP3      O15343   3.249   0.505   0.539  0.5181 -0.5080 -0.2502
 1175TP3     H115344   3.315   0.549   0.486  0.5515  0.5621  0.6502
 1175TP3     H215345   3.278   0.518   0.629 -0.0765 -1.4126  0.0863
 1176TP3      O15346   2.683   2.685   9.633  0.5289 -0.2278 -0.5624
 1176TP3     H115347   2.600   2.698   9.589  0.5805 -0.7788 -0.8364
 1176TP3     H215348   2.660   2.643   9.716  0.5313 -0.3417 -0.6199
 1177TP3      O15349   4.468   0.856   0.061  0.3070 -0.0264  0.2114
 1177TP3     H115350   4.431   0.917   0.124  0.2070 -0.0217  0.1481
 1177TP3     H215351   4.431   0.771   0.084  0.9904 -0.1893  0.7394
 1178TP3      O15352   1.549   0.626   8.085  0.0321 -0.4948  0.4773
 1178TP3     H115353   1.601   0.596   8.160  1.1799  0.7329  0.2110
 1178TP3     H215354   1.584   0.578   8.010  0.0396 -0.4754  0.4687
 1179TP3      O15355   4.717   0.905   2.696  0.3159  0.1706 -0.1469
 1179TP3     H115356   4.714   0.861   2.612  0.1355 -0.9686  0.4434
 1179TP3     H215357   4.634   0.884   2.738  0.7968 -0.0727  0.7121
 1180TP3      O15358   4.164   4.439   7.443 -0.7497 -0.2181  0.3242
 1180TP3     H115359   4.231   4.402   7.386 -1.4386  0.5346 -1.0090
 1180TP3     H215360   4.082   4.430   7.394 -1.3036  0.7551  1.0316
 1181TP3      O15361   5.256   3.670   3.107  0.0814  0.2083  0.0215
 1181TP3     H115362   5.231   3.740   3.168  1.1967  0.4334  0.2335
 1181TP3     H215363   5.227   3.590   3.150 -0.8809  0.5034 -0.0535
 1182TP3      O15364   3.237   5.204   0.075  0.2717  0.3236  0.4411
 1182TP3     H115365   3.235   5.228   0.168  0.8266 -1.2289  0.8857
 1182TP3     H215366   3.247   5.287   0.029 -1.5933  1.2977  1.6630
 1183TP3      O15367   1.655   2.529   8.068 -0.2467 -0.6136  0.3972
 1183TP3     H115368   1.736   2.492   8.033 -1.0988 -0.9944 -1.2950
 1183TP3     H215369   1.656   2.507   8.161  0.9549 -1.7773  0.1323
 1184TP3      O15370   0.059   0.052   8.315 -0.5110 -0.6374  0.1490
 1184TP3     H115371   0.119   0.114   8.275 -0.7823 -0.1237  0.5291
 1184TP3     H215372   0.047   0.084   8.404 -0.5881 -1.2829  0.3810
 1185TP3      O15373   1.739   2.810   8.556  0.9376  0.1104 -0.0780
 1185TP3     H115374   1.781   2.824   8.641  0.5583 -2.1922  0.5602
 1185TP3     H215375   1.666   2.751   8.575  0.2351  0.3511 -1.8684
 1186TP3      O15376   4.967   4.140   0.859 -0.5910 -0.2652 -0.0228
 1186TP3     H115377   5.062   4.144   0.858 -0.5029 -1.4954 -1.1869
 1186TP3     H215378   4.943   4.129   0.767 -1.8664  0.1340  0.2404
 1187TP3      O15379   0.995   3.761   9.999 -0.5877 -0.2937 -0.1368
 1187TP3     H115380   0.946   3.772   9.917 -2.7340  1.1884  1.2334
 1187TP3     H215381   0.940   3.704  10.053  1.0507 -1.6891  0.1528
 1188TP3      O15382   4.181   1.605   6.676  0.2242 -0.0378  0.6212
 1188TP3     H115383   4.213   1.694   6.679  0.4514 -0.1376  3.3845
 1188TP3     H215384   4.127   1.596   6.755 -0.7340 -2.0126 -0.1798
 1189TP3      O15385   4.443   4.235   7.835  0.0557  0.0430 -0.5176
 1189TP3     H115386   4.523   4.284   7.850  2.8250 -3.4129 -2.5420
 1189TP3     H215387   4.415   4.259   7.747 -0.1018 -0.0781 -0.5035
 1190TP3      O15388   2.389   4.862   9.209 -0.2678  0.1645  0.3035
 1190TP3     H115389   2.423   4.816   9.286 -0.5391 -1.0675 -0.2847
 1190TP3     H215390   2.311   4.812   9.184  0.6544 -0.3671 -1.6691
 1191TP3      O15391   0.271   0.151   2.011  0.3310  0.2051 -0.1232
 1191TP3     H115392   0.273   0.204   1.930 -0.8798  0.5907  0.0892
 1191TP3     H215393   0.178   0.141   2.031  0.5743  2.1480  2.5368
 1192TP3      O15394   2.590   1.439   7.529 -0.6794 -0.7109  0.7647
 1192TP3     H115395   2.629   1.436   7.442 -0.4426  0.8299  0.7888
 1192TP3     H215396   2.603   1.351   7.564 -0.2052 -1.1672 -0.5032
 1193TP3      O15397   4.700   0.744   1.744  0.1668 -0.4215  0.2883
 1193TP3     H115398   4.736   0.665   1.704 -1.2764 -0.6394 -0.6689
 1193TP3     H215399   4.741   0.748   1.831  2.1363 -0.8384 -0.5643
 1194TP3      O15400   0.124   2.049   7.567  0.0564 -0.7386  0.1187
 1194TP3     H115401   0.177   2.037   7.646 -1.2181  2.4698  1.6192
 1194TP3     H215402   0.109   1.960   7.534  2.5963 -2.0262  2.1017
 1195TP3      O15403   3.765   3.450   7.902  0.0808  0.1689  0.1129
 1195TP3     H115404   3.749   3.374   7.958  1.3144 -0.6759 -0.6088
 1195TP3     H215405   3.678   3.478   7.874 -0.3666 -1.9995 -0.8908
 1196TP3      O15406   0.695   2.678   6.976 -0.0665 -1.0268  0.6299
 1196TP3     H115407   0.764   2.619   7.009  1.1607  1.4953  3.0202
 1196TP3     H215408   0.738   2.729   6.907  1.1058  1.4636  2.9996
 1197TP3      O15409   4.605   4.346   8.720  0.6335 -0.5155  0.5014
 1197TP3     H115410   4.545   4.368   8.791  0.3745 -1.0132  0.4325
 1197TP3     H215411   4.658   4.426   8.709  0.8321 -0.5086  1.4071
 1198TP3      O15412   1.673   3.643   8.217 -0.2945  0.3975 -0.1534
 1198TP3     H115413   1.608   3.588   8.260 -0.1717  0.3510 -0.0275
 1198TP3     H215414   1.738   3.662   8.285  1.3718 -1.9150 -0.9587
 1199TP3      O15415   0.640   5.250   0.223 -0.1816 -0.2591  0.3287
 1199TP3     H115416   0.635   5.256   0.318  0.9683 -0.4183  0.4184
 1199TP3     H215417   0.616   5.159   0.203  0.6462 -0.5445  0.5769
 1200TP3      O15418   0.871   2.569   7.704  1.0435 -0.7082  0.2721
 1200TP3     H115419   0.810   2.641   7.717  2.3499  0.1508  1.9760
 1200TP3     H215420   0.819   2.490   7.720 -0.1382 -0.1145 -0.5443
 1201TP3      O15421   4.611   5.138   2.219 -0.0293  0.3754 -0.3687
 1201TP3     H115422   4.565   5.131   2.136 -2.4580  0.2776  0.8906
 1201TP3     H215423   4.633   5.047   2.242  0.3973  0.3779 -0.7642
 1202TP3      O15424   0.420   3.721   8.768  0.2487 -0.0738 -0.2866
 1202TP3     H115425   0.478   3.648   8.791  1.1557  0.2080 -1.5869
 1202TP3     H215426   0.375   3.692   8.690 -0.7719  0.0467  0.2466
 1203TP3      O15427   2.616   2.376   8.389  0.3183 -0.1414  0.5551
 1203TP3     H115428   2.665   2.293   8.394  1.5439  0.5843  1.2732
 1203TP3     H215429   2.683   2.442   8.372 -0.5762  0.7678  0.4629
 1204TP3      O15430   4.271   2.232   7.599  0.9808 -0.4191 -0.1425
 1204TP3     H115431   4.222   2.232   7.681  0.7613 -0.5247 -0.2742
 1204TP3     H215432   4.305   2.322   7.592 -0.3383  0.0610 -0.7340
 1205TP3      O15433   1.388   0.912   0.929 -0.0346  0.4492 -0.1128
 1205TP3     H115434   1.454   0.843   0.938 -0.2556  0.3907  1.2404
 1205TP3     H215435   1.318   0.872   0.877 -0.8460 -0.8963  1.9176
 1206TP3      O15436   2.569   2.390   0.038  0.6417  0.0211 -0.3432
 1206TP3     H115437   2.627   2.313   0.029  0.1653 -0.4418  0.4882
 1206TP3     H215438   2.581   2.419   0.128 -0.1115  0.1695 -0.2834
 1207TP3      O15439   4.173   4.865   9.633 -0.5734  0.1650  0.4577
 1207TP3     H115440   4.230   4.811   9.688 -1.4305 -1.6407 -0.3069
 1207TP3     H215441   4.094   4.811   9.621 -0.5543  0.5784 -2.2080
 1208TP3      O15442   2.900   3.507   6.530 -0.0994 -0.2167  0.2462
 1208TP3     H115443   2.827   3.568   6.540 -0.3975 -0.5657  0.2105
 1208TP3     H215444   2.897   3.453   6.608 -1.1327 -1.5601 -0.6814
 1209TP3      O15445   2.071   1.781   7.549 -0.9461  0.3144 -0.7540
 1209TP3     H115446   2.052   1.748   7.637 -0.4929  0.0345 -0.7594
 1209TP3     H215447   1.997   1.751   7.497 -0.5536 -0.7071 -0.7572
 1210TP3      O15448   1.734   0.398   8.092  0.2645 -0.0588  0.2217
 1210TP3     H115449   1.742   0.427   8.001  0.6059 -0.6247  0.0675
 1210TP3     H215450   1.773   0.311   8.092 -3.1766 -1.7588  0.0691
 1211TP3      O15451   3.133   1.311   9.050 -0.0648  0.4151 -0.2607
 1211TP3     H115452   3.111   1.227   9.090  0.7025 -0.4141 -1.5097
 1211TP3     H215453   3.102   1.304   8.960 -0.0460  1.5001 -0.3631
 1212TP3      O15454   1.636   2.116   0.240  0.5293  0.3872  0.3502
 1212TP3     H115455   1.656   2.048   0.304  1.4660  1.0702  0.8126
 1212TP3     H215456   1.576   2.074   0.179 -0.2917 -0.3228  1.5946
 1213TP3      O15457   1.604   2.697   9.394  0.3677 -0.4651 -0.0030
 1213TP3     H115458   1.641   2.610   9.378  1.0178 -0.4980  1.4623
 1213TP3     H215459   1.515   2.691   9.361  0.5196 -1.5759 -0.2792
 1214TP3      O15460   3.393   1.209   7.603  0.2005 -0.2466  0.5919
 1214TP3     H115461   3.466   1.159   7.640  0.0530 -1.0727 -0.1713
 1214TP3     H215462   3.324   1.204   7.669  0.8141  0.5272  1.3118
 1215TP3      O15463   3.535   3.991   0.182 -0.3782 -0.1597 -0.1659
 1215TP3     H115464   3.583   4.064   0.222 -2.3064  0.6999  0.7091
 1215TP3     H215465   3.531   4.013   0.089  0.6974 -0.1344 -0.2151
 1216TP3      O15466   4.211   1.844   9.878 -0.4385 -0.4834  0.1210
 1216TP3     H115467   4.294   1.880   9.910  0.5215 -2.5405  0.1195
 1216TP3     H215468   4.193   1.892   9.798  1.9410 -1.4326 -1.0887
 1217TP3      O15469   1.158   1.145   0.650  0.2893  0.0485 -0.0062
 1217TP3     H115470   1.113   1.122   0.570 -0.9070  1.5819  0.1811
 1217TP3     H215471   1.089   1.151   0.716  1.0566  0.2538  0.7977
 1218TP3      O15472   4.532   2.899   7.875  0.3404  0.1095 -0.1728
 1218TP3     H115473   4.484   2.946   7.943  0.9836  0.4969  0.0257
 1218TP3     H215474   4.574   2.967   7.823  1.4025 -0.2254  0.2027
 1219TP3      O15475   2.944   4.588   0.552  0.4457  0.5695  0.5418
 1219TP3     H115476   2.863   4.625   0.588  0.7521 -0.2946  2.1944
 1219TP3     H215477   3.006   4.660   0.553  0.2136  0.7692  1.0173
 1220TP3      O15478   5.197   4.812   9.157  0.2930 -0.4598 -0.3987
 1220TP3     H115479   5.188   4.796   9.063 -0.8595  0.2777 -0.4342
 1220TP3     H215480   5.111   4.788   9.193 -0.3474  2.1781  0.0050
 1221TP3      O15481   1.701   3.100   8.156  0.0673 -0.0111 -0.0850
 1221TP3     H115482   1.765   3.112   8.086 -0.4469  0.4730 -0.4712
 1221TP3     H215483   1.728   3.019   8.199  0.8531  0.1078 -0.3394
 1222TP3      O15484   3.070   0.131   9.014  0.4584  0.3171  1.0856
 1222TP3     H115485   3.138   0.064   9.006 -0.5634 -0.7400  0.8351
 1222TP3     H215486   3.039   0.123   9.104 -0.6810 -0.6179  0.6436
 1223TP3      O15487   4.684   0.077   8.940 -0.8489 -0.2515  1.1651
 1223TP3     H115488   4.606   0.089   8.995 -1.1276  1.0138  0.5331
 1223TP3     H215489   4.719   0.166   8.930 -1.3137 -0.2833 -1.4284
 1224TP3      O15490   4.854   4.672   2.398  0.2726  0.2960 -0.0751
 1224TP3     H115491   4.841   4.634   2.311  0.5424  0.1010 -0.0325
 1224TP3     H215492   4.845   4.597   2.458  2.0490  0.0272 -0.0726
 1225TP3      O15493   4.828   1.985   8.708 -0.4779 -0.7531  0.6036
 1225TP3     H115494   4.859   1.900   8.739  1.2930 -1.2958 -2.2497
 1225TP3     H215495   4.823   1.976   8.613  2.8826  3.1608 -0.2351
 1226TP3      O15496   3.527   5.075   0.475 -0.2854 -0.5976  0.1097
 1226TP3     H115497   3.492   4.987   0.490 -1.9249  0.2563  1.6449
 1226TP3     H215498   3.567   5.070   0.388 -2.4357 -2.2368 -0.8840
 1227TP3      O15499   3.072   1.086   9.178 -0.9367  0.7079  0.0732
 1227TP3     H115500   3.126   1.007   9.172 -0.1668  1.2785 -0.9040
 1227TP3     H215501   2.984   1.056   9.157 -0.9018 -0.1220  1.0208
 1228TP3      O15502   4.684   2.640   8.464 -0.5043 -0.5137 -0.1635
 1228TP3     H115503   4.708   2.727   8.434  1.8706 -0.7804  0.6864
 1228TP3     H215504   4.645   2.597   8.388  1.2178  0.2780 -1.5698
 1229TP3      O15505   1.860   2.055   8.465  0.1413 -0.2138 -0.3014
 1229TP3     H115506   1.923   2.070   8.536 -1.1447 -2.1110  1.3498
 1229TP3     H215507   1.785   2.014   8.508 -1.8834  1.1072 -2.3385
 1230TP3      O15508   5.162   2.867   7.195 -0.2946 -0.2918 -0.2796
 1230TP3     H115509   5.179   2.800   7.261 -0.0746  0.3981  0.3792
 1230TP3     H215510   5.134   2.818   7.118  3.8780 -1.5572 -1.2707
 1231TP3      O15511   2.368   5.288   9.417  0.3413 -0.2366  0.2341
 1231TP3     H115512   2.335   5.309   9.330  0.8376  0.6825  0.2489
 1231TP3     H215513   2.440   5.350   9.430  1.2652 -1.3825  0.6809
 1232TP3      O15514   0.803   3.099   7.067 -0.6620 -0.0589  0.5477
 1232TP3     H115515   0.840   3.184   7.091  1.1134 -0.4959 -0.4648
 1232TP3     H215516   0.791   3.103   6.972 -2.5385 -0.2350  0.7342
 1233TP3      O15517   2.193   0.349   8.413 -0.0368  0.4141  0.6876
 1233TP3     H115518   2.232   0.271   8.453 -0.1170  0.7067  1.3604
 1233TP3     H215519   2.263   0.414   8.413  0.2085  0.1669 -0.4285
 1234TP3      O15520   0.971   2.536   3.367  0.0330  0.2162  0.6935
 1234TP3     H115521   0.951   2.549   3.460 -1.7106  2.4323  0.0998
 1234TP3     H215522   0.886   2.515   3.327  0.4256  1.0497 -0.6491
 1235TP3      O15523   5.221   0.575   1.718 -0.0035  0.0868 -0.3214
 1235TP3     H115524   5.193   0.570   1.810 -0.1788  0.8100 -0.3299
 1235TP3     H215525   5.197   0.489   1.682 -2.6168  0.7668 -0.4222
 1236TP3      O15526   3.985   3.202   9.253  0.0331 -0.4783  0.1707
 1236TP3     H115527   4.047   3.275   9.263 -0.3802 -0.1594  0.4121
 1236TP3     H215528   3.955   3.209   9.162 -2.3205  1.5396  0.9926
 1237TP3      O15529   0.742   2.458   9.734  0.4761  0.4084  0.0723
 1237TP3     H115530   0.692   2.503   9.666  0.7994  0.5117 -0.0988
 1237TP3     H215531   0.833   2.465   9.706  0.4048 -2.2277 -1.0980
 1238TP3      O15532   4.193   4.046   3.263  0.1484 -0.2043  0.0598
 1238TP3     H115533   4.257   4.114   3.240 -1.6412  1.4919 -0.0921
 1238TP3     H215534   4.230   3.966   3.225  2.9479  0.3720  1.3133
 1239TP3      O15535   1.936   1.362   2.185  0.1111  0.2946  0.7435
 1239TP3     H115536   1.858   1.308   2.171  0.7742 -0.5588  0.2205
 1239TP3     H215537   1.978   1.323   2.262  0.0783  0.6807  0.9559
 1240TP3      O15538   0.161   2.788   8.000 -0.0982 -0.5840 -0.5906
 1240TP3     H115539   0.122   2.861   8.048 -0.9523 -1.6823  0.4712
 1240TP3     H215540   0.154   2.812   7.908  1.6635  1.6343 -0.2235
 1241TP3      O15541   2.048   2.431   9.834  0.3755 -0.0026  0.0090
 1241TP3     H115542   2.075   2.503   9.778  0.1521  0.8051  0.9183
 1241TP3     H215543   2.031   2.471   9.919 -1.4185 -0.8421  0.0863
 1242TP3      O15544   0.386   1.861   7.429  0.1778 -0.9265  0.0702
 1242TP3     H115545   0.359   1.953   7.427 -0.4629 -1.1228 -0.7051
 1242TP3     H215546   0.364   1.827   7.342  0.4516 -1.8036  0.3295
 1243TP3      O15547   1.568   0.469   9.170  0.8648  0.1569 -0.0847
 1243TP3     H115548   1.631   0.445   9.101  0.4935 -1.0611 -0.0298
 1243TP3     H215549   1.524   0.387   9.191  1.2634  0.4142  1.9260
 1244TP3      O15550   1.768   2.736   7.852  0.2634 -0.2852 -0.4957
 1244TP3     H115551   1.795   2.826   7.836  1.4780 -0.3671  0.9639
 1244TP3     H215552   1.836   2.699   7.908 -0.4539 -1.9735 -0.6646
 1245TP3      O15553   2.014   3.116   1.888  0.1209  0.2278 -0.2156
 1245TP3     H115554   2.030   3.170   1.965  1.0805  1.5464 -1.3004
 1245TP3     H215555   2.031   3.026   1.918  1.3459  0.7922  0.8914
 1246TP3      O15556   4.218   3.402   6.990 -0.5852 -0.0748 -0.3211
 1246TP3     H115557   4.175   3.481   7.022 -2.1517 -0.9168 -0.2807
 1246TP3     H215558   4.206   3.405   6.895  0.2301  0.2035 -0.4322
 1247TP3      O15559   4.362   0.616   0.090 -0.2094 -0.2096  0.0972
 1247TP3     H115560   4.370   0.536   0.142  0.6658 -0.7014 -0.7828
 1247TP3     H215561   4.350   0.586   0.000  1.5057  0.6219 -0.4517
 1248TP3      O15562   0.592   4.501   6.918 -0.0481  0.7597 -0.3157
 1248TP3     H115563   0.628   4.416   6.946 -0.4436  0.8620  0.5377
 1248TP3     H215564   0.663   4.540   6.867 -0.3298 -0.6331 -1.8662
 1249TP3      O15565   2.082   3.098   8.657  0.1277 -0.1905 -0.5233
 1249TP3     H115566   2.057   3.063   8.572  0.8867  0.5481 -1.0725
 1249TP3     H215567   2.049   3.188   8.656  2.1005  0.5792 -0.9855
 1250TP3      O15568   2.401   3.381   2.576  0.0012 -0.2176  0.2809
 1250TP3     H115569   2.448   3.307   2.614 -1.4099 -1.1265  0.3062
 1250TP3     H215570   2.329   3.398   2.638  0.0073  0.8487  0.0148
 1251TP3      O15571   4.592   0.048   7.372  0.0218 -0.1048 -0.1334
 1251TP3     H115572   4.523   0.085   7.316  0.5177 -1.6573 -1.8943
 1251TP3     H215573   4.560  -0.040   7.393  0.3843  0.0439  1.0826
 1252TP3      O15574   1.968   2.589   8.276 -0.1415  0.2000 -0.6497
 1252TP3     H115575   1.898   2.529   8.302  1.1572 -1.0660  0.1127
 1252TP3     H215576   1.930   2.676   8.284 -1.3364 -0.4072  0.6643
 1253TP3      O15577   1.861   3.616   2.605  0.0123  0.0544 -0.2878
 1253TP3     H115578   1.871   3.677   2.532 -1.3884  2.9239  1.7623
 1253TP3     H215579   1.951   3.586   2.623  0.4778 -0.1486 -2.6140
 1254TP3      O15580   3.114   4.111   3.332 -0.1007 -0.0461 -0.1922
 1254TP3     H115581   3.108   4.034   3.275 -0.3498 -1.6251  1.8414
 1254TP3     H215582   3.026   4.120   3.368  0.2688  0.3484  0.6334
 1255TP3      O15583   1.869   0.244   8.505  0.1770 -0.2009 -0.2909
 1255TP3     H115584   1.900   0.171   8.558 -0.5296  0.5473  1.2179
 1255TP3     H215585   1.775   0.246   8.519  0.0941  0.5885 -0.8674
 1256TP3      O15586   0.943   0.280   6.988  0.0313 -0.4754  0.3549
 1256TP3     H115587   1.017   0.271   7.049  1.0864  2.2879 -0.4014
 1256TP3     H215588   0.949   0.203   6.932  1.5690 -0.9520  1.1143
 1257TP3      O15589   0.316   4.376   2.064  0.2858  0.6324 -0.0811
 1257TP3     H115590   0.370   4.441   2.109 -0.0006  1.3769 -0.7899
 1257TP3     H215591   0.304   4.307   2.128 -0.9653  2.1070  1.3551
 1258TP3      O15592   2.615   1.869   7.656  0.7641  0.2745 -0.4776
 1258TP3     H115593   2.648   1.783   7.681 -0.2992 -0.3153 -1.0010
 1258TP3     H215594   2.564   1.898   7.733 -1.8079 -1.1687 -1.4901
 1259TP3      O15595   1.105   4.606   8.419  0.4774 -0.0665  0.2391
 1259TP3     H115596   1.197   4.624   8.398  0.4072  3.2784  2.0638
 1259TP3     H215597   1.056   4.665   8.363 -0.7103 -2.1034 -1.0028
 1260TP3      O15598   2.573   2.877   8.274  0.3289  0.0717 -0.8256
 1260TP3     H115599   2.621   2.959   8.284 -0.5391  0.8885 -2.8285
 1260TP3     H215600   2.483   2.898   8.299  0.0667 -0.2223 -1.5077
 1261TP3      O15601   0.385   0.524   8.106 -0.0480 -0.1522  0.0937
 1261TP3     H115602   0.393   0.440   8.152  0.3616 -1.0293 -1.5068
 1261TP3     H215603   0.330   0.578   8.163 -0.6384 -1.6421  0.9796
 1262TP3      O15604   0.419   4.104   0.457  0.2982 -0.4266 -0.8169
 1262TP3     H115605   0.439   4.181   0.510  0.8034  0.4808 -2.2574
 1262TP3     H215606   0.353   4.134   0.395  0.9498 -0.9677 -1.8002
 1263TP3      O15607   3.258   4.258   2.018 -0.5417 -0.6427 -0.1925
 1263TP3     H115608   3.188   4.216   2.067 -0.2459 -1.6289 -0.5921
 1263TP3     H215609   3.270   4.202   1.941 -0.6893  0.6242 -1.1668
 1264TP3      O15610   3.255   2.779   2.115 -0.3248  0.4782 -0.6086
 1264TP3     H115611   3.334   2.749   2.161 -0.4701  0.2547 -0.5032
 1264TP3     H215612   3.186   2.718   2.143 -0.5635  0.7508 -0.6032
 1265TP3      O15613   3.439   2.241   7.388  0.6101 -0.2394 -1.1801
 1265TP3     H115614   3.412   2.174   7.450 -0.5346 -1.8325 -3.2524
 1265TP3     H215615   3.534   2.229   7.379  0.9591  0.6482  0.8738
 1266TP3      O15616   1.081   1.548   7.797  0.0311 -0.0162  0.0714
 1266TP3     H115617   1.008   1.486   7.804 -0.0474 -0.1263 -1.5034
 1266TP3     H215618   1.132   1.533   7.876 -1.9797  0.5123  1.5690
 1267TP3      O15619   0.049   3.948   9.967  0.2094  0.2741  0.0283
 1267TP3     H115620   0.122   3.888   9.948 -1.0677 -1.5114  0.5309
 1267TP3     H215621  -0.012   3.896  10.019 -1.3180  1.8027 -0.1494
 1268TP3      O15622   2.390   4.982   6.951  0.4303  0.2587  0.2576
 1268TP3     H115623   2.320   5.023   6.900  1.3791  0.4523 -0.9549
 1268TP3     H215624   2.397   5.034   7.030 -0.0350  0.9360 -0.1357
 1269TP3      O15625   2.718   1.336   2.216  0.1011 -0.5577  0.5749
 1269TP3     H115626   2.662   1.262   2.189 -0.0431 -0.4110  0.4735
 1269TP3     H215627   2.794   1.331   2.159 -0.3458 -0.0598 -0.0689
 1270TP3      O15628   2.975   2.733   9.614 -0.1460  0.6626  0.0176
 1270TP3     H115629   2.992   2.716   9.706 -1.0677  0.2077  0.1137
 1270TP3     H215630   2.884   2.761   9.611  0.2594  1.9813 -0.6003
 1271TP3      O15631   4.910   2.476   0.719  0.0448  0.5789 -0.4596
 1271TP3     H115632   4.822   2.490   0.755 -0.7520 -1.1314 -1.5891
 1271TP3     H215633   4.960   2.438   0.791 -0.8183 -0.5398 -0.4322
 1272TP3      O15634   4.294   2.492   7.527 -0.5195 -0.3515 -0.8545
 1272TP3     H115635   4.283   2.512   7.434 -1.1733 -0.2486 -0.7558
 1272TP3     H215636   4.233   2.550   7.572  0.2091  0.0136 -0.3137
 1273TP3      O15637   3.788   0.080   9.457  0.1642 -0.1206  0.1897
 1273TP3     H115638   3.706   0.083   9.506  0.1206 -0.8757  0.1726
 1273TP3     H215639   3.854   0.109   9.520  0.0342 -0.5628  0.5317
 1274TP3      O15640   2.276   0.830   1.743  0.1305  0.1539 -0.3131
 1274TP3     H115641   2.226   0.749   1.751  0.3591 -0.2070 -2.1215
 1274TP3     H215642   2.355   0.815   1.796  0.0717 -0.7351 -0.4673
 1275TP3      O15643   3.669   5.174   8.412  0.0009 -0.1708  0.7199
 1275TP3     H115644   3.592   5.226   8.435 -0.2928 -1.2222  2.2349
 1275TP3     H215645   3.673   5.178   8.316 -0.9133  1.3167  0.7102
 1276TP3      O15646   4.081   3.917   8.672  0.0018 -0.2184  0.0589
 1276TP3     H115647   4.081   3.870   8.755  0.5658 -2.5443 -1.1740
 1276TP3     H215648   4.044   3.855   8.609  1.3905  0.7058 -1.7875
 1277TP3      O15649   2.231   3.054   6.689  0.0478 -0.4947 -0.0181
 1277TP3     H115650   2.207   3.075   6.780  0.0350 -2.0876  0.3787
 1277TP3     H215651   2.165   2.990   6.662 -0.4312  0.5529 -1.4607
 1278TP3      O15652   0.415   2.468   0.917 -0.3929  0.7492 -0.0401
 1278TP3     H115653   0.506   2.453   0.893 -0.3437  1.8249 -0.6133
 1278TP3     H215654   0.383   2.530   0.851 -1.1246  1.4956  0.9760
 1279TP3      O15655   4.167   3.555   8.281  0.0795  0.1949  0.0591
 1279TP3     H115656   4.226   3.630   8.289  1.7402 -0.8266 -1.6099
 1279TP3     H215657   4.111   3.576   8.206  1.0554 -0.5007 -0.8937
 1280TP3      O15658   2.033   1.430   9.509 -0.0455 -0.6772 -0.4033
 1280TP3     H115659   2.076   1.439   9.593 -0.4179  0.8132 -0.3401
 1280TP3     H215660   1.949   1.388   9.529 -0.6934  0.8192  0.1883
 1281TP3      O15661   2.997   1.857   0.078  0.0576  0.1930  0.8317
 1281TP3     H115662   3.013   1.951   0.084 -0.2520  0.3621 -0.7266
 1281TP3     H215663   2.901   1.849   0.077 -0.0011  0.1637 -2.3321
 1282TP3      O15664   4.925   3.960   8.053 -0.0526  0.1069 -0.6513
 1282TP3     H115665   5.000   3.937   8.109 -1.3469  0.7307  1.4416
 1282TP3     H215666   4.932   3.900   7.979  2.5655  0.2134 -0.6086
 1283TP3      O15667   0.154   2.561   0.118 -0.1959 -0.1656  0.4283
 1283TP3     H115668   0.065   2.583   0.091 -1.4850 -3.5225  1.3091
 1283TP3     H215669   0.153   2.572   0.214  0.5269  0.3012  0.3893
 1284TP3      O15670   2.778   2.632   8.364 -0.1348  0.3338 -0.0050
 1284TP3     H115671   2.820   2.684   8.432  0.4810  1.2686 -1.0682
 1284TP3     H215672   2.774   2.690   8.288 -0.9159 -0.6390 -0.7361
 1285TP3      O15673   3.946   1.841   8.853 -0.7025 -0.1231  0.0547
 1285TP3     H115674   3.929   1.844   8.759 -0.9551  0.5725  0.1130
 1285TP3     H215675   4.034   1.877   8.863 -0.9805  0.5415  0.1493
 1286TP3      O15676   0.261   3.598   7.396  0.3142 -0.1726 -0.2040
 1286TP3     H115677   0.285   3.625   7.308 -0.0800 -0.1001 -0.2945
 1286TP3     H215678   0.316   3.652   7.454  0.7596 -0.4082 -0.4063
 1287TP3      O15679   1.295   3.376   7.377  0.1248 -0.2150  0.7145
 1287TP3     H115680   1.385   3.353   7.357  0.1286  0.3264  0.0691
 1287TP3     H215681   1.286   3.468   7.349 -0.3127  0.0916  1.7901
 1288TP3      O15682   0.522   2.667   3.062 -0.2143  0.1503 -0.2315
 1288TP3     H115683   0.612   2.699   3.064 -0.4434  1.0809 -2.2624
 1288TP3     H215684   0.527   2.584   3.015 -0.4895  0.5548 -0.9927
 1289TP3      O15685   4.497   2.024   6.878  0.1913  0.5613 -0.0197
 1289TP3     H115686   4.567   2.088   6.888  0.7943  0.0861 -0.9910
 1289TP3     H215687   4.538   1.940   6.900 -0.3898  0.4051  0.5147
 1290TP3      O15688   4.731   4.180   2.396 -0.3151  0.3521  0.0235
 1290TP3     H115689   4.638   4.200   2.388 -0.2565  0.5820 -0.0909
 1290TP3     H215690   4.738   4.087   2.375 -0.4738  0.4105 -0.2877
 1291TP3      O15691   3.866   2.804   2.665  0.0633  0.1210  0.4992
 1291TP3     H115692   3.882   2.710   2.676 -0.7885 -0.0578  0.2610
 1291TP3     H215693   3.926   2.830   2.595  2.5812  0.4283  2.6570
 1292TP3      O15694   2.981   0.424   8.929 -0.2517 -0.1968  0.0599
 1292TP3     H115695   2.978   0.483   8.854 -0.0750  0.2892  0.4321
 1292TP3     H215696   3.066   0.380   8.922 -0.5116 -0.6433 -0.3878
 1293TP3      O15697   2.551   0.835   8.093  0.4044 -0.0900 -0.3357
 1293TP3     H115698   2.631   0.792   8.124 -0.3261 -0.7093  0.7883
 1293TP3     H215699   2.516   0.775   8.028  0.0709 -0.5808  0.2830
 1294TP3      O15700   3.210   3.896   7.274 -0.2465 -0.2305  0.2386
 1294TP3     H115701   3.143   3.849   7.324  0.7425  0.4848  2.3973
 1294TP3     H215702   3.162   3.942   7.206 -1.6307 -1.6808  0.1715
 1295TP3      O15703   2.307   2.223   1.466 -0.4507 -0.5012 -0.4246
 1295TP3     H115704   2.354   2.234   1.384 -1.8596 -0.4523 -1.2549
 1295TP3     H215705   2.375   2.228   1.534  0.3657  3.0608 -1.3088
 1296TP3      O15706   4.976   0.119   8.546  0.4489  0.0596  0.3418
 1296TP3     H115707   4.990   0.081   8.633  0.9262 -1.1639 -0.2432
 1296TP3     H215708   5.064   0.123   8.507  0.4930  2.2115  0.5203
 1297TP3      O15709   3.427   0.599   6.577  0.0995  0.5695 -0.1083
 1297TP3     H115710   3.366   0.563   6.512 -0.9786  1.2587  0.4953
 1297TP3     H215711   3.418   0.541   6.653  1.5884 -0.4192 -0.6519
 1298TP3      O15712   5.110   0.791   7.468  0.0023  0.0562 -0.1885
 1298TP3     H115713   5.059   0.839   7.402  1.0345  1.8806  0.2517
 1298TP3     H215714   5.103   0.700   7.442 -2.4388  0.3530 -0.8353
 1299TP3      O15715   4.162   2.067   8.384  0.1628 -0.3000 -0.2371
 1299TP3     H115716   4.074   2.093   8.356  1.1140  2.2942 -1.1337
 1299TP3     H215717   4.167   2.095   8.475  0.3051  0.2865 -0.4212
 1300TP3      O15718   4.092   0.562  10.011 -0.1487 -0.4452  0.4726
 1300TP3     H115719   4.029   0.589  10.078  2.1458  2.0095  1.8127
 1300TP3     H215720   4.103   0.639   9.956  3.1359 -0.0022  1.5285
 1301TP3      O15721   1.081   3.441   7.831  0.1651 -0.4893  0.2541
 1301TP3     H115722   1.048   3.474   7.915  0.3377  1.8375 -0.5245
 1301TP3     H215723   1.054   3.507   7.767  1.6694 -1.2339 -1.2310
 1302TP3      O15724   4.006   1.790   0.479  0.0073  0.4010  0.4796
 1302TP3     H115725   4.040   1.798   0.569  1.0178 -0.7400  0.2211
 1302TP3     H215726   4.041   1.707   0.447 -0.2129  0.8609 -1.0416
 1303TP3      O15727   2.345   3.714  10.081  0.3039  0.3651 -0.2343
 1303TP3     H115728   2.435   3.743  10.066 -0.8541  4.0100 -1.3446
 1303TP3     H215729   2.333   3.721  10.176  1.9500 -3.3468  0.4299
 1304TP3      O15730   1.813   5.239   8.363 -1.0806 -0.6532 -0.3994
 1304TP3     H115731   1.742   5.183   8.395 -0.1656 -1.8596 -0.4385
 1304TP3     H215732   1.868   5.254   8.440 -1.5437  0.5796 -0.2847
 1305TP3      O15733   4.038   2.172   9.620 -0.5956 -0.3528  0.3343
 1305TP3     H115734   4.041   2.219   9.537  0.6695  1.1017  1.1732
 1305TP3     H215735   4.041   2.079   9.595  3.1355  0.0252 -1.1928
 1306TP3      O15736   0.060   4.985   0.155 -0.0829 -0.0522 -0.0294
 1306TP3     H115737   0.092   5.065   0.114  0.3468  0.0606  0.5124
 1306TP3     H215738   0.098   4.914   0.103  1.8672  0.0582  1.1395
 1307TP3      O15739   1.781   1.833   2.343  0.6398 -0.0701  0.8356
 1307TP3     H115740   1.748   1.745   2.358  0.5595 -0.2044 -0.0554
 1307TP3     H215741   1.705   1.890   2.351  0.6333 -0.1175  1.1053
 1308TP3      O15742   2.985   4.394   9.884  0.3976  0.2091  0.3868
 1308TP3     H115743   2.904   4.436   9.855 -0.2468 -1.5813 -0.5567
 1308TP3     H215744   2.960   4.347   9.964  0.3652 -0.7547 -0.1808
 1309TP3      O15745   3.171   3.582   1.069  0.3739 -0.0032  0.4070
 1309TP3     H115746   3.255   3.537   1.061  0.6488  0.0891  2.2885
 1309TP3     H215747   3.195   3.674   1.082  0.0342 -0.0381  1.3954
 1310TP3      O15748   0.574   5.186   3.005  0.1386 -0.0344  0.1331
 1310TP3     H115749   0.510   5.210   3.072  0.9382  2.2799  0.1743
 1310TP3     H215750   0.527   5.197   2.922 -0.2306 -0.8200  0.2321
 1311TP3      O15751   2.519   2.455   8.903 -0.2784 -0.3403 -0.3232
 1311TP3     H115752   2.435   2.481   8.866 -0.0065  0.4932 -0.3606
 1311TP3     H215753   2.560   2.537   8.931 -0.2867 -0.8799  1.4325
 1312TP3      O15754   5.233   3.491   7.275 -0.6713  0.2390  0.5837
 1312TP3     H115755   5.138   3.479   7.268 -0.7675  1.5165 -0.9164
 1312TP3     H215756   5.270   3.433   7.208 -0.4138  0.0192  0.9136
 1313TP3      O15757   4.770   2.637   7.020  0.3894 -0.4244 -0.3085
 1313TP3     H115758   4.747   2.573   6.952 -1.3762  0.6083 -0.7396
 1313TP3     H215759   4.756   2.590   7.102  0.3996 -0.9981 -0.6289
 1314TP3      O15760   4.493   1.415   2.972 -0.1251 -0.0322  0.7807
 1314TP3     H115761   4.533   1.406   3.059  0.3900 -0.7250  0.4747
 1314TP3     H215762   4.554   1.471   2.924  0.3241 -0.8223  0.4171
 1315TP3      O15763   4.862   3.147   0.460  0.4142 -0.3360 -0.0494
 1315TP3     H115764   4.834   3.068   0.414 -1.5267  1.9579 -3.2564
 1315TP3     H215765   4.938   3.177   0.411  0.4378  0.3579  0.4065
 1316TP3      O15766   0.156   3.584   7.681  0.3594 -0.2274  0.0424
 1316TP3     H115767   0.250   3.584   7.697  0.2455 -2.2896  0.8828
 1316TP3     H215768   0.116   3.588   7.768 -0.3336  0.0288 -0.2777
 1317TP3      O15769   2.335   4.205   8.468 -0.2426 -0.0356 -0.2800
 1317TP3     H115770   2.289   4.277   8.424 -0.5993 -0.6273 -0.9157
 1317TP3     H215771   2.369   4.243   8.548  0.7117  1.1698 -1.2264
 1318TP3      O15772   0.717   4.802   7.012  0.0578 -0.1657 -0.0609
 1318TP3     H115773   0.630   4.783   7.048 -0.8280  2.3352 -0.6774
 1318TP3     H215774   0.733   4.731   6.949 -1.8045 -0.3833 -0.3525
 1319TP3      O15775   0.773   4.626   9.909 -0.2336 -0.2082  0.1349
 1319TP3     H115776   0.835   4.585   9.968 -0.7811 -1.0739  0.1193
 1319TP3     H215777   0.688   4.588   9.932 -0.7968  1.0639  0.2656
 1320TP3      O15778   4.755   2.278   8.263  0.4551 -0.3735 -0.5583
 1320TP3     H115779   4.730   2.202   8.210 -2.3665 -0.0045  0.1008
 1320TP3     H215780   4.710   2.266   8.346  1.4986  1.0975  0.2731
 1321TP3      O15781   2.342   4.931   3.365  0.3590 -0.0957 -0.0899
 1321TP3     H115782   2.263   4.905   3.318  0.7822 -0.0047 -0.8783
 1321TP3     H215783   2.392   4.850   3.375  0.1086 -0.1745  0.5185
 1322TP3      O15784   2.859   2.557   9.156  0.3375 -0.1375 -0.0440
 1322TP3     H115785   2.846   2.462   9.150  0.6114 -0.2167  0.5763
 1322TP3     H215786   2.803   2.593   9.087 -1.7704 -0.5862  1.3312
 1323TP3      O15787   3.000   3.792   7.404  0.3843 -0.2812  0.0323
 1323TP3     H115788   2.992   3.708   7.450 -1.0939 -0.0567  0.2368
 1323TP3     H215789   2.937   3.786   7.332 -0.6043  1.0708  0.7373
 1324TP3      O15790   0.328   4.725   7.994  0.6910 -0.0886  0.6130
 1324TP3     H115791   0.241   4.737   8.033  1.3439  2.3601  1.4634
 1324TP3     H215792   0.316   4.747   7.902 -0.2036 -2.9349 -0.0566
 1325TP3      O15793   2.198   3.061   6.978 -0.0858  0.0730  0.1693
 1325TP3     H115794   2.264   2.994   6.996  0.6406  0.7736  0.1384
 1325TP3     H215795   2.240   3.143   7.001 -0.3893  0.6746 -1.3672
 1326TP3      O15796   2.972   3.867   0.964  0.4913 -0.4525  0.0167
 1326TP3     H115797   3.000   3.866   1.056 -0.9547  1.2320  0.5438
 1326TP3     H215798   2.995   3.781   0.930  1.1832 -1.0592  1.9243
 1327TP3      O15799   4.768   4.506   0.289  0.0126 -0.1605  0.3765
 1327TP3     H115800   4.827   4.582   0.284  1.5512 -1.3739 -0.9561
 1327TP3     H215801   4.796   4.449   0.218 -1.7088 -1.5882  0.7704
 1328TP3      O15802   2.997   5.129   9.103 -1.3601  0.0173 -0.4166
 1328TP3     H115803   2.913   5.169   9.125 -1.1072  0.5745 -0.4515
 1328TP3     H215804   3.006   5.142   9.008 -2.3940 -2.2702 -0.8866
 1329TP3      O15805   5.230   2.760   8.982 -0.3899  0.2737  0.3716
 1329TP3     H115806   5.194   2.693   9.039 -0.3874  0.4976  0.6392
 1329TP3     H215807   5.200   2.736   8.894 -1.4199  0.6011  0.6162
 1330TP3      O15808   2.016   1.670   2.895  0.1955 -0.4262  0.1965
 1330TP3     H115809   1.997   1.578   2.873 -1.3783 -0.2928  0.8674
 1330TP3     H215810   1.973   1.720   2.826  2.1569 -0.1707 -0.9173
 1331TP3      O15811   4.147   5.115   9.737  0.0829 -0.4607  0.1184
 1331TP3     H115812   4.166   5.029   9.701 -0.5871 -0.1975 -0.9159
 1331TP3     H215813   4.176   5.110   9.828  1.9551 -1.1012 -0.4769
 1332TP3      O15814   4.957   1.603   6.995  0.2486  0.3515 -0.1925
 1332TP3     H115815   4.902   1.667   6.951  0.0586  1.1505  1.1340
 1332TP3     H215816   4.904   1.522   6.994 -0.3783  0.7518 -0.1302
 1333TP3      O15817   0.107   1.628   9.175 -0.3214 -0.3610  0.2532
 1333TP3     H115818   0.184   1.677   9.204  0.2183 -0.6655 -0.6014
 1333TP3     H215819   0.137   1.537   9.170 -1.1148 -0.6808  1.1603
 1334TP3      O15820   4.423   1.288   7.467 -0.5090 -0.2689 -0.1334
 1334TP3     H115821   4.338   1.260   7.432 -0.0338  0.7673 -2.2977
 1334TP3     H215822   4.461   1.208   7.504 -1.6813 -1.1603 -0.7891
 1335TP3      O15823   3.068   2.806   8.534 -0.1426  0.1440  0.0598
 1335TP3     H115824   2.975   2.820   8.520 -0.3261 -0.8048  0.2432
 1335TP3     H215825   3.108   2.819   8.448 -0.1287  2.6983  0.3811
 1336TP3      O15826   1.362   0.439   9.568  0.1175 -0.1848  0.1708
 1336TP3     H115827   1.303   0.416   9.639 -0.4826  0.0063 -0.2541
 1336TP3     H215828   1.405   0.357   9.545  1.4466  0.0259  1.7446
 1337TP3      O15829   1.034   4.959   6.324 -0.4973 -0.1097 -0.3511
 1337TP3     H115830   1.085   4.886   6.358  0.8859  0.7574 -0.5128
 1337TP3     H215831   0.973   4.918   6.262 -0.3415 -1.2227  0.2084
 1338TP3      O15832   0.986   4.867  10.096  0.1459  0.1407  0.1756
 1338TP3     H115833   1.050   4.819  10.148 -0.1909 -0.3386  0.1523
 1338TP3     H215834   0.930   4.911  10.161  0.1196  0.0599  0.2076
 1339TP3      O15835   0.675   4.421   8.070 -0.4240 -0.0876  0.3198
 1339TP3     H115836   0.719   4.369   8.003  0.1834  2.6270 -1.5614
 1339TP3     H215837   0.589   4.441   8.033  0.0830  1.8130  0.0390
 1340TP3      O15838   2.050   3.238   0.280 -0.3148 -0.0609 -0.2556
 1340TP3     H115839   1.985   3.283   0.335 -0.4453  0.6258 -0.9583
 1340TP3     H215840   2.115   3.305   0.262  0.6688 -0.7758  0.5325
 1341TP3      O15841   0.468   0.435   1.230  0.3898 -0.3039 -0.6177
 1341TP3     H115842   0.410   0.481   1.291  2.3552  0.1124  1.0244
 1341TP3     H215843   0.408   0.393   1.168 -1.6540  0.2204  0.8859
 1342TP3      O15844   1.407   2.874   2.407 -0.3205  0.1431 -0.6824
 1342TP3     H115845   1.316   2.877   2.437 -0.2769 -1.4662 -0.3225
 1342TP3     H215846   1.458   2.907   2.481 -0.5418  0.3030 -0.5985
 1343TP3      O15847   1.253   1.464   8.654  0.3110 -0.4424  0.3756
 1343TP3     H115848   1.256   1.373   8.628 -1.5651 -0.3413 -0.3518
 1343TP3     H215849   1.206   1.464   8.738 -1.1432 -0.0564 -0.3944
 1344TP3      O15850   0.863   0.053   9.515  0.0613 -0.1008 -0.0223
 1344TP3     H115851   0.869  -0.024   9.459  0.4814  0.8851 -1.3927
 1344TP3     H215852   0.776   0.048   9.554 -1.6579  0.7799 -3.3127
 1345TP3      O15853   0.963   2.110   9.854 -0.0214  0.6149  0.2484
 1345TP3     H115854   0.986   2.169   9.782  1.5135  0.5800  0.6687
 1345TP3     H215855   0.997   2.153   9.932  0.3634 -0.4077  0.6677
 1346TP3      O15856   3.593   4.081   9.716 -0.2981  0.4667  0.4904
 1346TP3     H115857   3.517   4.137   9.703 -0.0086  0.5709 -0.9847
 1346TP3     H215858   3.668   4.138   9.696  0.0272 -0.2451 -0.4072
 1347TP3      O15859   3.011   1.153   0.585  0.3709 -0.1043 -0.2888
 1347TP3     H115860   3.079   1.089   0.564 -1.1771 -1.3816 -1.7311
 1347TP3     H215861   2.949   1.145   0.513 -2.6335 -0.9062  2.1814
 1348TP3      O15862   2.302   4.539   9.644 -0.1554 -0.2110  0.0091
 1348TP3     H115863   2.311   4.444   9.638 -0.9098 -0.2935  0.1381
 1348TP3     H215864   2.217   4.553   9.686 -0.4161  0.5302 -0.7323
 1349TP3      O15865   3.193   0.512   7.728  0.1080  0.1118 -0.2007
 1349TP3     H115866   3.256   0.551   7.789  0.5285 -0.4416 -0.2756
 1349TP3     H215867   3.137   0.457   7.784  0.6442 -0.5871 -0.3307
 1350TP3      O15868   3.257   0.107   2.066 -0.7696  0.3250 -0.0723
 1350TP3     H115869   3.306   0.096   1.984  1.5316  0.1698  1.2478
 1350TP3     H215870   3.254   0.019   2.104 -0.6261  0.6201  0.6352
 1351TP3      O15871   1.290   4.433   0.184 -0.2645  0.1117  0.1026
 1351TP3     H115872   1.233   4.437   0.108 -0.4051 -0.6072  0.1646
 1351TP3     H215873   1.243   4.482   0.252 -1.2782 -1.2931  0.4464
 1352TP3      O15874   3.029   3.727   7.723 -0.5346 -0.1159 -0.1232
 1352TP3     H115875   2.948   3.777   7.711 -0.2563  0.1370 -1.0205
 1352TP3     H215876   3.034   3.670   7.645  0.5866  0.4908 -0.5192
 1353TP3      O15877   2.655   3.319   0.603  0.1284  0.2949  0.5987
 1353TP3     H115878   2.682   3.355   0.518  0.2976  2.1818  1.4005
 1353TP3     H215879   2.737   3.294   0.645 -0.0238 -1.6906 -0.1843
 1354TP3      O15880   2.854   3.022   9.408  0.0846  0.4699 -0.0232
 1354TP3     H115881   2.848   2.927   9.406  2.5788  0.2519 -0.9427
 1354TP3     H215882   2.764   3.052   9.400 -0.6314 -1.8312 -1.5045
 1355TP3      O15883   0.026   3.505   8.598  0.5754  0.1466  0.1760
 1355TP3     H115884  -0.021   3.551   8.667  0.0250 -0.6982  0.3784
 1355TP3     H215885   0.085   3.446   8.645  1.8891  1.2243 -0.0744
 1356TP3      O15886   0.594   1.166   0.216 -0.4884  0.7625  0.4046
 1356TP3     H115887   0.661   1.177   0.284  0.0659  2.2312 -0.3321
 1356TP3     H215888   0.562   1.077   0.228  1.1837  0.2233  1.1724
 1357TP3      O15889   2.391   4.046   9.143  0.1953  0.2309  0.4115
 1357TP3     H115890   2.319   3.991   9.112 -1.2879  3.3187 -2.1883
 1357TP3     H215891   2.458   4.036   9.075  0.9881 -0.2381  1.2381
 1358TP3      O15892   2.070   0.293   1.108 -0.0602 -0.0623  0.0974
 1358TP3     H115893   2.030   0.301   1.021  1.8737 -0.0381 -0.8398
 1358TP3     H215894   2.121   0.212   1.102  2.0507  1.2020  0.3618
 1359TP3      O15895   0.151   0.904   6.814 -0.0105  0.3840 -0.2968
 1359TP3     H115896   0.181   0.853   6.888 -0.0843 -1.3989 -1.4404
 1359TP3     H215897   0.065   0.867   6.793  0.1489  0.6308 -1.4522
 1360TP3      O15898   2.759   0.122   7.375 -0.2357  0.1340  0.0662
 1360TP3     H115899   2.695   0.052   7.394 -1.7299  1.5570  0.5204
 1360TP3     H215900   2.770   0.119   7.280 -1.2181  0.0488 -0.0565
 1361TP3      O15901   3.521   5.070   0.159  0.1081  0.2610  0.0547
 1361TP3     H115902   3.426   5.065   0.171  0.2934 -0.0648  1.5664
 1361TP3     H215903   3.540   5.000   0.096 -0.4756 -0.8996  1.1076
 1362TP3      O15904   0.203   4.323   8.505  0.6047 -0.3886  0.4997
 1362TP3     H115905   0.260   4.248   8.489  0.6860 -0.2610  0.1891
 1362TP3     H215906   0.264   4.396   8.519  0.5420 -0.4908  1.3848
 1363TP3      O15907   0.684   4.467   8.644 -0.1964  0.4300 -0.3717
 1363TP3     H115908   0.758   4.526   8.637  0.0387  0.0668 -1.0731
 1363TP3     H215909   0.662   4.445   8.554  0.9255 -2.0110 -0.1461
 1364TP3      O15910   0.134   3.259   1.682  0.3693  0.0451 -0.4669
 1364TP3     H115911   0.213   3.246   1.630  0.2199  0.0734 -0.7049
 1364TP3     H215912   0.106   3.349   1.662  0.9653  0.4778  0.5729
 1365TP3      O15913   0.631   1.970   1.115 -1.0241  0.0312 -0.3207
 1365TP3     H115914   0.713   1.926   1.137  0.4512  2.0219 -1.4780
 1365TP3     H215915   0.569   1.899   1.102  1.3512 -1.8321 -2.6856
 1366TP3      O15916   3.793   2.701   1.320 -0.2141  0.0020  0.2753
 1366TP3     H115917   3.792   2.797   1.317 -1.4597  0.0241  0.4422
 1366TP3     H215918   3.740   2.680   1.397  0.6855 -0.8228  0.6877
 1367TP3      O15919   3.810   2.020   1.658 -0.5298  0.0169  0.4068
 1367TP3     H115920   3.813   2.114   1.639 -0.9007  0.1960  1.1519
 1367TP3     H215921   3.772   1.980   1.580  1.0096  0.2958 -0.5050
 1368TP3      O15922   3.778   3.660   8.757 -0.6751  0.3256 -0.4600
 1368TP3     H115923   3.794   3.734   8.815 -0.2608  0.2234 -0.4413
 1368TP3     H215924   3.716   3.692   8.692 -0.4232  0.7150 -0.5077
 1369TP3      O15925   4.700   0.840   0.270  0.6236  0.2346  0.7662
 1369TP3     H115926   4.673   0.836   0.178  1.9242  2.8798  0.1628
 1369TP3     H215927   4.728   0.751   0.290 -1.0881 -0.7727 -0.9031
 1370TP3      O15928   0.590   3.408   7.914  0.2834 -0.1237 -0.6400
 1370TP3     H115929   0.615   3.338   7.854  2.2495  2.1458 -2.6881
 1370TP3     H215930   0.658   3.406   7.982  0.9107  0.3835 -1.2402
 1371TP3      O15931   2.638   0.411   2.616 -0.0384  0.3552  0.0340
 1371TP3     H115932   2.702   0.342   2.602 -2.1095 -2.0955  1.7564
 1371TP3     H215933   2.553   0.367   2.613 -1.6299  3.1815 -0.6517
 1372TP3      O15934   0.909   3.622   9.592  0.0086 -0.0282  0.0303
 1372TP3     H115935   0.989   3.594   9.546 -1.2383 -2.0821 -1.0556
 1372TP3     H215936   0.859   3.669   9.526  0.1670  0.9706  0.6140
 1373TP3      O15937   2.033   4.855   6.933  0.7476 -0.4941  0.0947
 1373TP3     H115938   2.091   4.821   6.865  0.6151  0.8219 -0.7086
 1373TP3     H215939   2.073   4.937   6.961  0.2873 -0.5356  0.9214
 1374TP3      O15940   3.371   4.262   9.154  0.5566 -0.7851 -0.2745
 1374TP3     H115941   3.337   4.325   9.218  0.8396 -0.8075 -0.1013
 1374TP3     H215942   3.343   4.298   9.069 -1.5356 -1.7919 -0.0601
 1375TP3      O15943   0.805   0.609   0.957  0.3192 -0.2155  0.1912
 1375TP3     H115944   0.875   0.642   1.013  0.1142  1.4784 -0.4904
 1375TP3     H215945   0.770   0.533   1.004  2.5886 -1.1039  0.5306
 1376TP3      O15946   4.684   5.271   2.445 -0.1136  0.8239 -0.4017
 1376TP3     H115947   4.608   5.326   2.465 -0.3101  1.3952 -2.4899
 1376TP3     H215948   4.668   5.239   2.356  1.1851 -0.6337 -0.1612
 1377TP3      O15949   5.191   1.759   9.769 -0.1894 -0.1045 -0.3097
 1377TP3     H115950   5.280   1.756   9.735 -0.4319 -1.7661 -0.9276
 1377TP3     H215951   5.178   1.849   9.797  2.0651 -0.0609  0.8491
 1378TP3      O15952   4.007   1.167   0.899 -0.1663 -0.8526 -0.3860
 1378TP3     H115953   4.019   1.223   0.823  0.1702 -2.3389 -1.4710
 1378TP3     H215954   3.981   1.082   0.863 -0.2571 -1.5309  1.1742
 1379TP3      O15955   0.175   2.846   6.708 -0.7277  0.2589 -0.5337
 1379TP3     H115956   0.229   2.871   6.783 -0.4711 -0.3541 -0.5101
 1379TP3     H215957   0.153   2.754   6.724 -2.0461  0.5795 -0.3769
 1380TP3      O15958   0.316   0.833   9.138 -0.0909  0.1470 -0.3106
 1380TP3     H115959   0.261   0.772   9.187  0.0486 -1.4306 -2.0384
 1380TP3     H215960   0.254   0.879   9.081 -0.0021  0.6358 -0.0213
 1381TP3      O15961   2.425   2.148   9.316  0.5847  0.0208 -0.6560
 1381TP3     H115962   2.493   2.216   9.318  1.3792 -0.7140  1.9766
 1381TP3     H215963   2.468   2.072   9.278  0.2676  0.4261 -1.8533
 1382TP3      O15964   1.427   5.214   7.945 -0.5535 -0.0410  0.4241
 1382TP3     H115965   1.372   5.277   7.898 -0.1407  1.3030  1.6837
 1382TP3     H215966   1.517   5.246   7.932 -0.2775 -0.7582  0.5173
 1383TP3      O15967   1.664   3.998   1.291 -0.1902  0.1261 -0.0800
 1383TP3     H115968   1.577   4.037   1.284  0.0712  0.7900  0.2690
 1383TP3     H215969   1.647   3.906   1.310 -0.8487  0.6367  2.0868
 1384TP3      O15970   0.123   4.894   7.444  0.8412 -0.1495  0.1427
 1384TP3     H115971   0.040   4.935   7.467  0.7562 -1.2877  2.0855
 1384TP3     H215972   0.125   4.895   7.348 -0.5481  1.5290  0.0894
 1385TP3      O15973   4.932   0.852   7.270  0.6484 -0.1810  0.3568
 1385TP3     H115974   4.985   0.798   7.213 -0.9677 -1.2251 -0.2183
 1385TP3     H215975   4.866   0.891   7.213  0.6935  1.0060  1.0616
 1386TP3      O15976   0.508   0.284   0.470 -0.4495 -0.3754 -0.1248
 1386TP3     H115977   0.575   0.250   0.410 -0.4623  0.0058 -0.3541
 1386TP3     H215978   0.446   0.211   0.480  0.4062 -1.0218  0.7132
 1387TP3      O15979   2.210   0.983   0.758  0.5676  0.0364 -0.0963
 1387TP3     H115980   2.190   1.067   0.719 -2.0614  0.4458  1.8167
 1387TP3     H215981   2.149   0.922   0.717 -0.0846 -0.1300  1.0497
 1388TP3      O15982   0.846   2.056   0.815 -0.3595  0.3882 -0.2368
 1388TP3     H115983   0.885   2.012   0.890 -1.1579  1.7072  1.0163
 1388TP3     H215984   0.915   2.057   0.749 -0.1536 -2.2073 -0.1620
 1389TP3      O15985   3.684   3.934   1.829  0.3107 -0.0019 -0.2841
 1389TP3     H115986   3.603   3.911   1.783 -0.2544  1.9777 -0.3465
 1389TP3     H215987   3.720   4.006   1.779  0.2181  1.5424  1.7661
 1390TP3      O15988   0.113   0.985   0.255 -0.2610  0.3935  0.4524
 1390TP3     H115989   0.195   0.998   0.207 -1.0490 -0.3312 -1.1636
 1390TP3     H215990   0.071   1.071   0.255 -1.0330  0.0814 -1.7310
 1391TP3      O15991   2.182   1.725   9.677  0.9305 -0.2981  0.3042
 1391TP3     H115992   2.140   1.724   9.591 -0.1293 -0.0946  0.8019
 1391TP3     H215993   2.159   1.640   9.715  0.8217 -0.1110  0.6558
 1392TP3      O15994   0.516   1.561   8.000 -0.0678  0.2015 -0.1057
 1392TP3     H115995   0.586   1.591   7.942  1.9889 -2.6050  0.6709
 1392TP3     H215996   0.536   1.468   8.015 -2.3163  0.0124  2.5288
 1393TP3      O15997   0.490   3.555   3.786 -0.2681  0.1620  0.0276
 1393TP3     H115998   0.585   3.546   3.776 -0.2997  0.9056 -1.1352
 1393TP3     H215999   0.475   3.547   3.880  1.0931  1.2382  0.3785
 1394TP3      O16000   4.740   4.011   1.993  0.1168  0.1499 -0.4780
 1394TP3     H116001   4.732   3.979   1.903  0.6849 -0.3574 -0.3565
 1394TP3     H216002   4.687   4.090   1.996 -0.3077 -0.1106 -1.1262
 1395TP3      O16003   2.504   1.035   7.041 -0.1527  0.0663 -0.1759
 1395TP3     H116004   2.583   1.021   6.990 -0.2954 -0.5393 -0.2450
 1395TP3     H216005   2.532   1.088   7.116  0.4021 -0.5020  0.0240
 1396TP3      O16006   4.335   1.154   9.438  0.1778  0.2394  0.1592
 1396TP3     H116007   4.281   1.090   9.392 -0.4741  0.8069  0.1248
 1396TP3     H216008   4.273   1.209   9.485  0.7235  0.9022  0.1256
 1397TP3      O16009   4.870   1.903   9.956 -0.7878  0.0754  0.1279
 1397TP3     H116010   4.880   1.851   9.876 -1.9553 -0.1546  0.1181
 1397TP3     H216011   4.828   1.844  10.019 -1.1861  0.6823  0.4471
 1398TP3      O16012   2.828   1.736   7.264  0.2960 -0.0576  0.2707
 1398TP3     H116013   2.866   1.765   7.347 -0.8090  2.6687 -0.0756
 1398TP3     H216014   2.733   1.737   7.280 -0.1364  3.0109 -1.6067
 1399TP3      O16015   2.008   3.356   8.655  0.4060 -0.2022  0.3464
 1399TP3     H116016   2.080   3.409   8.620  0.5602  0.1389  1.1369
 1399TP3     H216017   1.935   3.373   8.596  0.0989  1.8560  1.2230
 1400TP3      O16018   1.650   4.791   8.305 -0.0314 -0.0586 -0.1699
 1400TP3     H116019   1.680   4.705   8.334  0.1178  0.2442  0.6015
 1400TP3     H216020   1.703   4.853   8.355  1.5153  0.5267 -2.3732
 1401TP3      O16021   2.053   2.852   6.684  0.2858 -0.2679 -0.4487
 1401TP3     H116022   1.980   2.811   6.637  2.2182 -0.9567 -3.0767
 1401TP3     H216023   2.071   2.793   6.757 -1.2896 -0.4462 -0.1734
 1402TP3      O16024   2.228   4.473   0.547  0.2882  0.0256 -0.2836
 1402TP3     H116025   2.236   4.482   0.642  0.8904  1.6358 -0.4471
 1402TP3     H216026   2.148   4.521   0.525 -0.9936 -2.0552 -0.4197
 1403TP3      O16027   4.011   2.504   7.584 -0.3479 -0.3519  0.0941
 1403TP3     H116028   3.937   2.558   7.557  0.6201  0.6325 -0.6936
 1403TP3     H216029   4.016   2.435   7.518  0.3068  0.4369 -0.7141
 1404TP3      O16030   2.316   1.720   7.371  0.4775  0.3192  0.1496
 1404TP3     H116031   2.281   1.683   7.289 -0.4115 -0.2182  0.7467
 1404TP3     H216032   2.238   1.734   7.425  1.1372 -0.4508  1.3503
 1405TP3      O16033   3.075   3.380   1.980 -0.6876 -0.5796  0.0936
 1405TP3     H116034   3.111   3.296   2.006  1.3903  0.8635  2.4113
 1405TP3     H216035   3.140   3.417   1.920 -1.3094 -0.3653 -0.4710
 1406TP3      O16036   4.978   2.809   0.590  0.1039 -0.0302  0.3223
 1406TP3     H116037   5.016   2.852   0.513 -0.4629  1.9719  1.0855
 1406TP3     H216038   4.934   2.731   0.556  4.4219 -2.3507 -0.6812
 1407TP3      O16039   1.940   4.063   1.266  0.1670  0.4056 -0.5639
 1407TP3     H116040   1.929   4.116   1.345  0.4380  0.1576 -0.3546
 1407TP3     H216041   1.853   4.060   1.226 -0.6769 -1.7168  1.1792
 1408TP3      O16042   2.126   1.802   1.235  0.5488  0.4720 -0.0979
 1408TP3     H116043   2.136   1.864   1.307  0.4107 -0.6372  0.9231
 1408TP3     H216044   2.174   1.724   1.264  1.4694  0.3836 -1.7238
 1409TP3      O16045   4.757   3.050   2.859 -0.0197  0.0674 -0.3280
 1409TP3     H116046   4.840   3.003   2.858  0.9030  1.5593  1.1697
 1409TP3     H216047   4.710   3.017   2.935  0.4237  1.1376  0.4440
 1410TP3      O16048   3.678   0.275   7.695 -0.6200 -0.1888 -0.4402
 1410TP3     H116049   3.731   0.324   7.631  0.1903  1.7358  1.5805
 1410TP3     H216050   3.740   0.215   7.737 -0.4949  0.5520  0.4561
 1411TP3      O16051   1.247   2.368   7.700  0.1215  0.2404 -0.3615
 1411TP3     H116052   1.302   2.362   7.778 -0.0567  0.0742 -0.2501
 1411TP3     H216053   1.294   2.430   7.643 -0.5533  1.5998  0.5245
 1412TP3      O16054   0.798   1.189   3.129 -0.1449  0.5309 -0.0237
 1412TP3     H116055   0.741   1.118   3.159  0.8416  0.1286  0.9778
 1412TP3     H216056   0.817   1.167   3.038  1.7640 -1.6700  0.7811
 1413TP3      O16057   5.005   3.997   2.734  0.3928  0.3736 -0.3510
 1413TP3     H116058   5.025   4.046   2.813 -0.7758 -0.1511  0.2945
 1413TP3     H216059   5.073   3.929   2.730  1.3083  1.2769 -0.6087
 1414TP3      O16060   0.977   3.297   2.359  0.4943  0.5374  0.0559
 1414TP3     H116061   0.976   3.207   2.327 -1.6914  0.3769  0.4539
 1414TP3     H216062   1.026   3.293   2.441 -0.2402 -0.4460  0.4647
 1415TP3      O16063   4.545   0.308   8.123  0.7658 -0.5700  0.2974
 1415TP3     H116064   4.621   0.319   8.180  0.6288  3.3028  0.0117
 1415TP3     H216065   4.560   0.371   8.051 -2.5451  0.2199  0.1231
 1416TP3      O16066   0.301   3.732   1.851 -0.0411 -0.1013 -0.1877
 1416TP3     H116067   0.271   3.787   1.778  0.8885  2.1319  1.0028
 1416TP3     H216068   0.223   3.718   1.904 -0.6039 -1.2573 -1.2695
 1417TP3      O16069   2.663   1.984   9.925 -0.1670 -0.1461  0.3249
 1417TP3     H116070   2.712   1.904   9.906  0.9305  0.3928  0.8067
 1417TP3     H216071   2.572   1.961   9.909  0.0976 -1.5992  0.7771
 1418TP3      O16072   2.680   4.474   8.464 -0.2439 -0.1485  0.0970
 1418TP3     H116073   2.729   4.431   8.394  0.2750 -0.6110  0.7265
 1418TP3     H216074   2.744   4.484   8.535 -0.2038  2.1410 -0.2043
 1419TP3      O16075   1.224   0.814   0.714 -0.5544 -0.0131  0.1341
 1419TP3     H116076   1.152   0.779   0.767  0.2323 -0.1684  1.1245
 1419TP3     H216077   1.242   0.745   0.650 -3.2970  1.2281 -2.1888
 1420TP3      O16078   2.867   2.202   0.265 -0.3367 -0.3205  0.4882
 1420TP3     H116079   2.943   2.258   0.249 -1.2315  1.1869  1.3577
 1420TP3     H216080   2.850   2.161   0.180  0.6836  0.2836 -0.0306
 1421TP3      O16081   2.303   0.007   7.832  0.1428 -0.4219 -0.4331
 1421TP3     H116082   2.350  -0.018   7.911 -0.7405 -0.5427  0.0633
 1421TP3     H216083   2.267  -0.075   7.798 -0.9321 -0.1524  0.0082
 1422TP3      O16084   3.742   2.659   3.107 -0.0022 -0.1619  0.0311
 1422TP3     H116085   3.818   2.641   3.052  1.6794  1.5812  1.6591
 1422TP3     H216086   3.680   2.702   3.048  1.4297  0.9181 -0.7614
 1423TP3      O16087   0.680   3.027   8.892  0.2051 -0.2010 -0.5111
 1423TP3     H116088   0.739   3.095   8.860  0.9462 -0.7207 -0.2743
 1423TP3     H216089   0.622   3.008   8.818  1.1258 -0.5414 -1.1596
 1424TP3      O16090   0.005   5.073   9.759 -0.1129 -0.2560 -0.1009
 1424TP3     H116091   0.096   5.091   9.736  0.3964 -0.8039  1.3717
 1424TP3     H216092  -0.003   4.978   9.757 -0.5718 -0.2283  0.0742
 1425TP3      O16093   0.801   3.648   0.071 -0.3206  0.0548 -0.2031
 1425TP3     H116094   0.763   3.664   0.157 -1.8113  0.6565 -0.9360
 1425TP3     H216095   0.822   3.555   0.071 -0.4216  0.0226  0.7573
 1426TP3      O16096   4.313   3.106   2.255 -0.2733  0.0599 -0.0991
 1426TP3     H116097   4.236   3.104   2.312 -1.5226 -0.9706 -1.7053
 1426TP3     H216098   4.301   3.184   2.201 -1.5490 -1.3936 -2.0236
 1427TP3      O16099   3.305   3.745   8.063  0.3190 -0.6452  0.0785
 1427TP3     H116100   3.385   3.797   8.068  1.3144 -2.1851  1.2024
 1427TP3     H216101   3.288   3.718   8.153 -1.0675 -0.9587 -0.2460
 1428TP3      O16102   1.883   2.193   1.610 -0.1276 -0.3006 -0.3641
 1428TP3     H116103   1.818   2.163   1.546 -1.4095  0.1319  0.6948
 1428TP3     H216104   1.850   2.277   1.639  1.5994  0.5402 -0.7143
 1429TP3      O16105   4.818   0.997   8.069  0.0337 -0.3544 -0.4762
 1429TP3     H116106   4.727   1.014   8.047 -0.2455 -1.3823 -0.1604
 1429TP3     H216107   4.853   0.947   7.995 -0.0652 -1.1992  0.0410
 1430TP3      O16108   0.875   2.480  10.001 -0.3196 -0.3545 -0.6072
 1430TP3     H116109   0.964   2.444  10.004 -1.4027 -3.6439 -2.1094
 1430TP3     H216110   0.856   2.490   9.907 -1.5710  0.1572 -0.3276
 1431TP3      O16111   4.039   4.023   7.971  0.3287 -0.0802 -0.1120
 1431TP3     H116112   4.067   3.956   7.909 -1.3066  0.7147 -1.8297
 1431TP3     H216113   4.119   4.068   7.997  0.9708  0.8534 -3.2655
 1432TP3      O16114   3.500   4.534   8.026  0.8722 -0.8376 -0.0548
 1432TP3     H116115   3.517   4.589   8.102  1.0636  0.1000 -0.7621
 1432TP3     H216116   3.445   4.463   8.060 -1.7673  1.2462  0.3683
 1433TP3      O16117   0.030   3.354   6.489  0.8001 -0.2670 -0.7097
 1433TP3     H116118   0.057   3.262   6.493 -0.7676 -0.8384 -1.9983
 1433TP3     H216119   0.003   3.375   6.578  1.5549 -0.9195 -0.3103
 1434TP3      O16120   0.985   0.173   8.200 -0.3950  0.4103  0.1435
 1434TP3     H116121   1.015   0.227   8.127  0.7806  0.0073  0.2979
 1434TP3     H216122   1.023   0.087   8.183  0.9022  0.6095  1.8231
 1435TP3      O16123   1.284   0.648   8.031  0.1987 -0.1510  0.9203
 1435TP3     H116124   1.378   0.647   8.048  0.2372 -0.0062  0.7295
 1435TP3     H216125   1.253   0.563   8.061  0.4159 -0.2540  0.8578
 1436TP3      O16126   2.535   5.290   6.633  0.3557  0.3874  0.0379
 1436TP3     H116127   2.474   5.362   6.651 -1.4186 -0.8998 -0.5431
 1436TP3     H216128   2.565   5.261   6.719 -2.0868 -0.7512  0.6043
 1437TP3      O16129   5.286   3.279   0.112  0.2271  0.0669 -0.5194
 1437TP3     H116130   5.360   3.320   0.157  0.3773  0.9155 -1.4885
 1437TP3     H216131   5.279   3.328   0.029 -0.2185 -1.2514 -1.2836
 1438TP3      O16132   4.061   3.541   0.750  0.3592  0.1041 -0.2517
 1438TP3     H116133   3.990   3.572   0.695  0.1020  1.0577  0.5907
 1438TP3     H216134   4.020   3.523   0.835  1.2086  1.3100  0.4487
 1439TP3      O16135   4.608   0.365   8.958 -0.8317  0.3162  0.3516
 1439TP3     H116136   4.643   0.433   8.901  0.4289 -0.5541  0.0648
 1439TP3     H216137   4.589   0.411   9.040 -1.0522  1.2280 -0.1928
 1440TP3      O16138   3.496   0.812   1.791 -0.0757  0.1737  0.1546
 1440TP3     H116139   3.583   0.773   1.791 -0.8061 -1.6389  2.2530
 1440TP3     H216140   3.494   0.867   1.869 -0.9611 -0.2492  0.4500
 1441TP3      O16141   0.641   1.697   7.785 -0.0096 -0.0505  0.1591
 1441TP3     H116142   0.627   1.760   7.715  1.0210  1.1963  1.0248
 1441TP3     H216143   0.722   1.725   7.828  0.4525 -1.9352  0.6368
 1442TP3      O16144   2.698   3.274   9.318  0.3990  0.3677 -0.0860
 1442TP3     H116145   2.619   3.282   9.372  0.4645 -0.1502  0.0891
 1442TP3     H216146   2.770   3.287   9.380  0.5381 -1.9769  0.3371
 1443TP3      O16147   2.530   0.621   1.621 -0.0035  0.0708  0.4522
 1443TP3     H116148   2.439   0.613   1.592 -0.9001  2.0141  2.4396
 1443TP3     H216149   2.567   0.534   1.606 -1.8440 -0.4689 -1.4320
 1444TP3      O16150   4.623   1.437   3.196  0.3661 -0.3329  0.4594
 1444TP3     H116151   4.569   1.474   3.265  0.5716  1.8894 -0.4796
 1444TP3     H216152   4.710   1.431   3.234  0.5525  1.2164  0.3139
 1445TP3      O16153   1.249   4.776   6.469 -0.7682  0.2243 -0.1650
 1445TP3     H116154   1.210   4.689   6.475 -1.6139  0.6576  1.6264
 1445TP3     H216155   1.341   4.763   6.494 -0.6801 -0.2783 -0.7520
 1446TP3      O16156   0.822   2.182   7.395 -0.0820  0.1153 -0.9125
 1446TP3     H116157   0.874   2.228   7.460 -1.2232  1.2805 -0.7742
 1446TP3     H216158   0.861   2.095   7.390  2.4831  1.2044 -1.5627
 1447TP3      O16159   2.895   2.146   8.238  0.4169  0.0134 -0.1692
 1447TP3     H116160   2.824   2.083   8.222  1.2348 -1.0783  0.3405
 1447TP3     H216161   2.974   2.092   8.239  0.9625  0.7573  2.2918
 1448TP3      O16162   2.504   3.316   8.042  0.4234 -0.3224  0.0292
 1448TP3     H116163   2.595   3.299   8.064  0.4446  1.6180  1.7104
 1448TP3     H216164   2.501   3.313   7.946  2.7267  1.6308 -0.1893
 1449TP3      O16165   1.128   3.593   1.067  0.2997  0.3755 -0.0486
 1449TP3     H116166   1.200   3.547   1.109 -1.6941  0.3344  3.7415
 1449TP3     H216167   1.086   3.526   1.012  2.2596  0.0662 -1.2546
 1450TP3      O16168   5.061   3.590   9.554 -0.2024 -0.1397  0.6805
 1450TP3     H116169   5.033   3.665   9.607  1.6000  1.0301  0.0426
 1450TP3     H216170   5.105   3.629   9.479  0.0712 -1.8488 -0.0805
 1451TP3      O16171   4.269   3.047   1.882  0.1159  0.4412  0.5286
 1451TP3     H116172   4.281   2.952   1.874 -1.9414  0.2591 -1.4436
 1451TP3     H216173   4.334   3.085   1.822  0.6280  0.2881  0.9739
 1452TP3      O16174   4.814   0.621   7.483  0.1179  0.1292  0.0184
 1452TP3     H116175   4.803   0.536   7.441  2.3520 -2.4207  3.9651
 1452TP3     H216176   4.906   0.643   7.470  0.1791  0.6338  1.1490
 1453TP3      O16177   4.100   0.421   1.956  0.7588 -0.2081 -0.3704
 1453TP3     H116178   4.048   0.493   1.993 -1.8016 -1.5222 -1.1201
 1453TP3     H216179   4.143   0.381   2.032  1.5337  1.5580  0.1578
 1454TP3      O16180   4.205   1.350   6.610  0.0813 -0.0097 -0.2145
 1454TP3     H116181   4.209   1.444   6.628  0.1807  0.1194 -0.8688
 1454TP3     H216182   4.115   1.325   6.634 -0.0399  0.3171 -0.3251
 1455TP3      O16183   3.747   2.652   7.909 -0.2333  0.5985  0.3148
 1455TP3     H116184   3.737   2.557   7.920 -1.5291  0.7466  0.5181
 1455TP3     H216185   3.780   2.682   7.994 -1.4056  0.5297  0.8153
 1456TP3      O16186   4.318   4.991   6.776  0.0912 -0.4565  0.1122
 1456TP3     H116187   4.255   5.006   6.846 -0.5561 -0.5514 -0.4350
 1456TP3     H216188   4.273   5.018   6.696  0.6570 -0.7487 -0.3225
 1457TP3      O16189   3.757   0.894   3.303  0.1577  0.1574  0.0035
 1457TP3     H116190   3.818   0.839   3.353 -1.6214 -1.1230  0.8704
 1457TP3     H216191   3.794   0.895   3.215  0.6537 -1.8599  0.1340
 1458TP3      O16192   0.322   4.475   2.962 -0.2613  0.2734 -0.2512
 1458TP3     H116193   0.413   4.450   2.976 -0.1404  1.0046  0.3628
 1458TP3     H216194   0.309   4.469   2.867  0.3760  0.0073 -0.3219
 1459TP3      O16195   3.066   5.106   7.532  0.1641  0.1443 -0.2835
 1459TP3     H116196   2.998   5.054   7.488 -0.1023  0.5934 -0.4088
 1459TP3     H216197   3.132   5.041   7.558 -1.1779 -0.5783  1.5222
 1460TP3      O16198   3.997   2.927   1.826 -0.3602  0.2435  0.9425
 1460TP3     H116199   4.093   2.932   1.826 -0.4183  1.8101  0.9551
 1460TP3     H216200   3.968   3.018   1.833 -1.8593 -0.1413  0.1921
 1461TP3      O16201   0.830   2.128   0.402 -0.6191  0.0102  0.0483
 1461TP3     H116202   0.797   2.056   0.349 -0.2655  0.5650 -0.9662
 1461TP3     H216203   0.896   2.169   0.346  0.8862 -0.3121  1.5263
 1462TP3      O16204   2.111   4.822   3.298  0.1832 -0.2800  0.3255
 1462TP3     H116205   2.139   4.760   3.231  1.3685 -2.1821  2.4178
 1462TP3     H216206   2.066   4.768   3.363  2.1564  0.7970  2.7557
 1463TP3      O16207   3.276   4.665   0.953  0.1144  0.3714  0.3442
 1463TP3     H116208   3.363   4.660   0.915  0.5077 -0.6057  1.3355
 1463TP3     H216209   3.290   4.693   1.044 -0.2800 -2.7764  1.4836
 1464TP3      O16210   2.126   3.825   9.984  0.3489  0.0864 -0.1778
 1464TP3     H116211   2.092   3.755   9.928  1.0074  0.5552 -1.2026
 1464TP3     H216212   2.210   3.792  10.015  0.5067  0.2814 -0.3925
 1465TP3      O16213   4.603   4.153   0.331  0.0547  0.2974 -0.4529
 1465TP3     H116214   4.696   4.174   0.333  0.0915  0.0907  0.0471
 1465TP3     H216215   4.567   4.210   0.262  0.6177  0.0733 -0.9401
 1466TP3      O16216   5.133   3.802   1.755  0.1688  0.3111  0.0625
 1466TP3     H116217   5.225   3.815   1.735  0.6208 -1.5460  0.7687
 1466TP3     H216218   5.108   3.878   1.807  1.0425  1.2653 -0.8798
 1467TP3      O16219   2.279   4.214   8.008  0.2595 -0.3424 -0.2508
 1467TP3     H116220   2.254   4.183   7.921 -1.0208 -0.3131  0.0931
 1467TP3     H216221   2.197   4.222   8.056  0.7181  1.5961  0.3308
 1468TP3      O16222   2.862   4.046   8.419  0.3115 -0.0864 -0.6270
 1468TP3     H116223   2.845   3.965   8.371  0.1759  0.4750 -1.5358
 1468TP3     H216224   2.787   4.055   8.478  0.4691 -0.7627 -0.3083
 1469TP3      O16225   2.883   4.807   8.594  0.1783 -0.2959 -0.1729
 1469TP3     H116226   2.800   4.797   8.547 -1.7063  1.8270  2.3237
 1469TP3     H216227   2.896   4.723   8.638 -0.1266 -0.9540 -1.2927
 1470TP3      O16228   0.479   0.684   0.071  0.2945  0.0693  0.6340
 1470TP3     H116229   0.545   0.622   0.102 -0.3520 -0.4507  1.0182
 1470TP3     H216230   0.404   0.629   0.047  0.2833  0.5791 -0.5743
 1471TP3      O16231   1.690   0.897   8.882 -0.1475 -0.3524  0.1133
 1471TP3     H116232   1.639   0.918   8.804  2.0374  0.6162 -1.1510
 1471TP3     H216233   1.680   0.802   8.893  1.3423 -0.9482 -2.7904
 1472TP3      O16234   0.620   5.161   7.773  0.0171 -0.7477 -0.1134
 1472TP3     H116235   0.696   5.165   7.715  0.4480 -1.8252  0.3549
 1472TP3     H216236   0.622   5.244   7.821  1.0375 -0.8585  0.0562
 1473TP3      O16237   0.945   2.378   1.300 -0.1853 -0.0160  0.4042
 1473TP3     H116238   0.999   2.373   1.221  0.7403  0.4240  0.9946
 1473TP3     H216239   0.999   2.337   1.368 -0.1520  1.3446  1.2378
 1474TP3      O16240   1.331   4.929   9.566 -0.3976  0.3869 -0.1522
 1474TP3     H116241   1.310   4.836   9.560 -1.7572  0.7603 -2.1772
 1474TP3     H216242   1.410   4.939   9.513 -1.3108  0.6205 -1.5384
 1475TP3      O16243   3.001   0.616   2.363 -0.1650 -0.1182 -0.5542
 1475TP3     H116244   2.963   0.641   2.279 -1.8380 -1.3690 -0.2159
 1475TP3     H216245   2.949   0.541   2.392  1.8023 -1.1391  0.5496
 1476TP3      O16246   3.212   1.948   3.066 -0.2739 -0.0974  0.6981
 1476TP3     H116247   3.217   2.042   3.084 -0.6678 -0.3302  2.1887
 1476TP3     H216248   3.234   1.907   3.149 -0.3118 -1.3328  0.1167
 1477TP3      O16249   3.574   3.706   2.061  0.3501 -0.0682  0.2624
 1477TP3     H116250   3.549   3.665   2.143 -0.0026  1.1689  0.7973
 1477TP3     H216251   3.497   3.696   2.005 -1.0899  2.7843  1.5455
 1478TP3      O16252   2.793   3.443   7.048 -0.0489 -0.3104 -0.1114
 1478TP3     H116253   2.859   3.456   7.115 -0.1400  1.6576 -0.3639
 1478TP3     H216254   2.710   3.443   7.095 -0.1017  0.9132 -0.1781
 1479TP3      O16255   2.177   1.908   7.099  0.4884  0.0244 -0.1649
 1479TP3     H116256   2.224   1.865   7.029  0.5619  0.2194 -0.2357
 1479TP3     H216257   2.209   1.998   7.099  0.4713  0.0334  0.1019
 1480TP3      O16258   1.311   4.705   1.405 -0.1979 -0.0060  0.4413
 1480TP3     H116259   1.245   4.706   1.336 -1.3836 -1.0631  1.4898
 1480TP3     H216260   1.266   4.664   1.480  1.4818 -0.2410  1.3718
 1481TP3      O16261   4.552   0.971   2.200  0.3865 -0.0354 -0.1811
 1481TP3     H116262   4.534   0.940   2.288  0.3965 -0.8453 -0.4517
 1481TP3     H216263   4.507   0.908   2.143 -1.0275  1.4101 -0.7314
 1482TP3      O16264   1.635   4.020   8.834  0.6474  0.3897 -0.3069
 1482TP3     H116265   1.625   4.076   8.757 -0.9576 -0.4443 -0.7581
 1482TP3     H216266   1.602   4.074   8.906  1.5213  0.9325 -0.3046
 1483TP3      O16267   0.203   4.243   7.505  0.1445 -0.6389  0.2779
 1483TP3     H116268   0.254   4.229   7.426  0.5891 -1.6366  0.7318
 1483TP3     H216269   0.255   4.306   7.556 -0.9986  1.4377 -0.9683
 1484TP3      O16270   2.333   3.521   9.424 -0.4727 -0.5831 -0.1362
 1484TP3     H116271   2.323   3.439   9.375 -1.8725 -0.3924 -0.2189
 1484TP3     H216272   2.372   3.582   9.362 -0.8047 -0.7801 -0.5470
 1485TP3      O16273   2.685   4.077   7.839  0.1604  0.3425 -0.7255
 1485TP3     H116274   2.660   4.010   7.902 -0.7689  0.3461 -1.0747
 1485TP3     H216275   2.720   4.148   7.892  0.1806  0.0033 -0.2798
 1486TP3      O16276   0.458   0.491   8.933  0.2996 -0.4835 -0.4092
 1486TP3     H116277   0.519   0.427   8.896  1.0861 -0.8622  1.4242
 1486TP3     H216278   0.507   0.573   8.933  0.8427 -0.7831  1.0432
 1487TP3      O16279   2.858   2.712   7.662  0.0645 -0.5564  0.2003
 1487TP3     H116280   2.766   2.730   7.683 -0.4448 -1.0384 -1.4607
 1487TP3     H216281   2.855   2.636   7.604  1.6887 -1.9511  1.8369
 1488TP3      O16282   1.659   1.671   0.575 -0.1790 -0.3918  0.2397
 1488TP3     H116283   1.582   1.630   0.535  0.1037  0.4297 -1.2423
 1488TP3     H216284   1.729   1.606   0.563 -0.4061 -0.7080  0.6297
 1489TP3      O16285   4.484   1.931   8.242  0.1895 -0.5373  0.0986
 1489TP3     H116286   4.459   1.988   8.315 -0.0463  0.0292 -0.4229
 1489TP3     H216287   4.524   1.855   8.285 -0.5109 -0.5023  0.8539
 1490TP3      O16288   4.806   3.918   0.190  0.2494 -0.2271 -0.0764
 1490TP3     H116289   4.795   3.836   0.238 -0.6528 -1.0232 -1.5633
 1490TP3     H216290   4.900   3.924   0.174  0.1380 -2.1975 -1.9218
 1491TP3      O16291   0.455   3.961   1.908 -0.4214  0.0468 -0.0893
 1491TP3     H116292   0.469   4.010   1.989 -0.0614  0.4353 -0.3869
 1491TP3     H216293   0.402   3.886   1.935 -0.9955  0.6060  0.3592
 1492TP3      O16294   1.816   4.711   8.972  0.3366  0.0475 -0.4384
 1492TP3     H116295   1.821   4.639   9.035  0.5225  0.5053  0.0785
 1492TP3     H216296   1.723   4.727   8.962  0.2857 -0.3946 -0.7098
 1493TP3      O16297   3.300   0.697   1.160 -0.3826 -0.2884  0.1655
 1493TP3     H116298   3.239   0.659   1.097 -0.1058  0.9941 -0.9438
 1493TP3     H216299   3.272   0.788   1.169 -0.6560 -0.5213  2.2422
 1494TP3      O16300   0.385   0.183   9.725 -0.0535  0.2817  0.4625
 1494TP3     H116301   0.359   0.155   9.813 -1.0732 -2.3073 -0.5812
 1494TP3     H216302   0.369   0.277   9.724 -1.4818  0.1222  2.5674
 1495TP3      O16303   4.874   4.710   2.105 -0.1935 -0.3936 -0.2434
 1495TP3     H116304   4.936   4.649   2.065 -0.3907 -0.4766 -0.4246
 1495TP3     H216305   4.887   4.793   2.059 -0.4789 -0.5113 -0.5405
 1496TP3      O16306   0.748   2.113   8.451 -0.3127  0.7094 -0.0598
 1496TP3     H116307   0.759   2.022   8.479 -2.7811 -0.3439 -2.1984
 1496TP3     H216308   0.834   2.137   8.416  0.3474 -0.8022  0.4281
 1497TP3      O16309   1.371   4.543   1.853  0.4011 -0.1174  0.1673
 1497TP3     H116310   1.315   4.523   1.778  0.4331  0.2779  0.0385
 1497TP3     H216311   1.437   4.474   1.853  1.0408  0.4825 -0.7996
 1498TP3      O16312   5.257   4.946   0.421 -0.2870 -0.0468 -0.0793
 1498TP3     H116313   5.276   4.959   0.328 -2.3693  0.9841 -0.4195
 1498TP3     H216314   5.215   5.027   0.449 -0.6936 -0.7540  1.4871
 1499TP3      O16315   3.912   3.180   1.789  0.1278 -0.0218  0.6900
 1499TP3     H116316   3.829   3.195   1.744  0.3536 -1.2105 -0.1591
 1499TP3     H216317   3.978   3.188   1.720  0.4287 -2.5342  0.5818
 1500TP3      O16318   5.055   2.464  10.041 -0.5618 -0.2594  0.0077
 1500TP3     H116319   5.113   2.520  10.092 -0.4545 -0.9926  0.7168
 1500TP3     H216320   4.974   2.462  10.092 -0.2187 -1.5616  0.5328
 1501TP3      O16321   4.370   0.722   8.029 -0.2001  0.0186  0.0270
 1501TP3     H116322   4.438   0.655   8.038  0.8233  1.0802  0.5180
 1501TP3     H216323   4.336   0.710   7.940  2.1683  0.8226 -1.0755
 1502TP3      O16324   3.220   3.235   8.184 -0.7466 -0.0767  0.3980
 1502TP3     H116325   3.246   3.306   8.126 -1.6178  0.5642  0.7789
 1502TP3     H216326   3.125   3.226   8.171 -0.6998 -0.9683  0.5784
 1503TP3      O16327   2.976   3.139   1.693  0.1195  0.5459  0.0940
 1503TP3     H116328   3.055   3.117   1.741 -0.3260 -0.7321  0.2680
 1503TP3     H216329   2.935   3.055   1.674 -0.5917  1.1200 -1.0299
 1504TP3      O16330   1.190   4.043   8.248 -0.5381 -0.4400  0.0795
 1504TP3     H116331   1.152   4.064   8.163  1.2646 -0.1515 -0.6956
 1504TP3     H216332   1.179   4.123   8.300 -0.4794 -0.1636 -0.3325
 1505TP3      O16333   0.707   0.538   9.161 -0.1676 -0.0563 -0.2713
 1505TP3     H116334   0.682   0.619   9.117  1.6403  1.1568  0.8186
 1505TP3     H216335   0.742   0.566   9.245 -0.4770 -2.0771  0.5910
 1506TP3      O16336   4.704   3.725  10.036 -0.3675  0.3096 -0.0692
 1506TP3     H116337   4.796   3.751  10.032 -0.2522 -0.1675 -0.5586
 1506TP3     H216338   4.661   3.799  10.078  0.1160  0.8827 -0.5570
 1507TP3      O16339   0.776   4.960   0.398 -0.1973  0.2053 -0.3046
 1507TP3     H116340   0.837   4.993   0.331  1.0338 -0.2680  0.5326
 1507TP3     H216341   0.727   5.037   0.426  1.7866  1.1616  0.7637
 1508TP3      O16342   1.083   3.660   1.781 -0.6752 -0.7637 -0.3061
 1508TP3     H116343   1.133   3.628   1.856 -0.3522  0.9344  0.2445
 1508TP3     H216344   1.150   3.676   1.714 -0.3843  1.4681  0.4158
 1509TP3      O16345   2.603   4.946   8.948  0.1841 -0.2210 -0.2355
 1509TP3     H116346   2.548   5.007   8.998  1.0465  2.2509 -2.0930
 1509TP3     H216347   2.543   4.909   8.883  0.2202  0.7729 -0.8467
 1510TP3      O16348   3.909   0.467   7.808  0.2283 -0.1692 -0.3147
 1510TP3     H116349   3.854   0.517   7.869  0.6830 -0.2819  0.1932
 1510TP3     H216350   3.970   0.420   7.864  1.9954  1.2763 -0.9257
 1511TP3      O16351   0.293   0.963   8.534  0.0854 -0.0084  0.3170
 1511TP3     H116352   0.232   0.897   8.566 -0.0153 -0.2196 -0.3149
 1511TP3     H216353   0.353   0.916   8.477  0.4727  0.3082  0.4541
 1512TP3      O16354   4.366   5.143   0.621 -0.1861 -0.4257  0.2427
 1512TP3     H116355   4.295   5.207   0.612 -0.2933 -0.7320 -1.5027
 1512TP3     H216356   4.338   5.086   0.692 -0.3402  1.1175  1.4881
 1513TP3      O16357   0.904   4.434   7.497  0.3157  0.1895 -0.1911
 1513TP3     H116358   0.827   4.466   7.545  1.3758  2.2362  0.2678
 1513TP3     H216359   0.895   4.471   7.409  0.0537 -0.7967 -0.5890
 1514TP3      O16360   1.934   0.803   2.170  0.2064 -0.2442 -0.0706
 1514TP3     H116361   1.948   0.821   2.263 -1.1427 -1.0100  0.3081
 1514TP3     H216362   1.844   0.770   2.165  0.7034 -1.5066 -1.4654
 1515TP3      O16363   1.656   4.645   0.381 -0.3909  0.2089 -0.0727
 1515TP3     H116364   1.613   4.669   0.463 -2.1863 -0.8662 -0.6329
 1515TP3     H216365   1.590   4.662   0.313  0.5225 -0.3031 -1.1280
 1516TP3      O16366   1.827   0.306   1.675 -0.1179 -0.0498 -0.3346
 1516TP3     H116367   1.839   0.393   1.638  2.0855 -0.8322 -1.6534
 1516TP3     H216368   1.882   0.306   1.754 -0.7041 -0.0286  0.0793
 1517TP3      O16369   4.108   3.264   8.176  0.2038 -0.6539 -0.4382
 1517TP3     H116370   4.111   3.346   8.226  0.7667 -1.4731  0.9068
 1517TP3     H216371   4.185   3.215   8.205 -0.1146 -1.6637 -1.2398
 1518TP3      O16372   3.689   2.386   8.019  0.6362  0.1726  0.3098
 1518TP3     H116373   3.669   2.310   7.964  0.5316 -0.7403  1.5760
 1518TP3     H216374   3.604   2.418   8.048  0.7300  0.0789  0.6916
 1519TP3      O16375   0.052   3.349   2.745 -0.8591 -0.4886  0.1078
 1519TP3     H116376   0.089   3.388   2.824  1.8235 -2.0722 -0.2371
 1519TP3     H216377   0.077   3.408   2.674  0.7482 -1.3141 -0.0618
 1520TP3      O16378   3.463   2.230   9.807 -0.2557  1.0139  0.1336
 1520TP3     H116379   3.546   2.182   9.816 -0.2521  0.7149 -1.2369
 1520TP3     H216380   3.481   2.296   9.741 -0.3740  2.7084  1.7366
 1521TP3      O16381   0.733   1.954   9.999  0.1699 -0.3831 -0.0505
 1521TP3     H116382   0.789   2.005   9.940 -0.4211  2.7238  1.8545
 1521TP3     H216383   0.644   1.978   9.974 -0.0964  0.7002  1.7858
 1522TP3      O16384   1.461   4.643   0.596  0.2227 -0.2506 -0.3816
 1522TP3     H116385   1.442   4.634   0.689  1.5703  0.0187 -0.0546
 1522TP3     H216386   1.381   4.681   0.558 -0.1076  0.2397  0.7744
 1523TP3      O16387   4.156   0.009   1.174 -0.4261  0.1577  0.6485
 1523TP3     H116388   4.207   0.027   1.095 -2.5473  0.2631 -0.7487
 1523TP3     H216389   4.118   0.093   1.199 -2.6051 -0.4898 -0.3156
 1524TP3      O16390   0.818   2.075   0.109  0.2768 -0.0583 -0.2991
 1524TP3     H116391   0.788   2.030   0.031  0.3870 -1.2570  0.3285
 1524TP3     H216392   0.896   2.027   0.137  0.8606  1.0030 -0.0441
 1525TP3      O16393   3.308   0.679   1.494 -0.3850 -0.1537 -0.4079
 1525TP3     H116394   3.339   0.592   1.517 -3.0006 -1.5867 -1.8086
 1525TP3     H216395   3.286   0.673   1.401 -1.3236  1.7659 -0.3696
 1526TP3      O16396   3.865   1.559   1.622  0.1886 -0.4987  0.2673
 1526TP3     H116397   3.848   1.601   1.538  3.0690  1.1372  0.3551
 1526TP3     H216398   3.913   1.480   1.600  0.3734 -0.4031  0.3191
 1527TP3      O16399   3.428   4.654   6.761  0.0901 -0.3449  0.4679
 1527TP3     H116400   3.398   4.572   6.800  1.5615 -0.4451  1.5041
 1527TP3     H216401   3.373   4.667   6.684 -2.3382 -0.6359  2.0443
 1528TP3      O16402   2.675   0.021   3.373  0.1523  0.2062 -0.3267
 1528TP3     H116403   2.596  -0.027   3.398  1.1666 -1.5605 -0.3911
 1528TP3     H216404   2.642   0.096   3.323 -1.4634 -0.7987 -0.8288
 1529TP3      O16405   1.029   3.380   8.910 -0.5453  0.4194 -0.2029
 1529TP3     H116406   1.021   3.434   8.832  0.9261  0.8986 -0.0569
 1529TP3     H216407   1.011   3.439   8.983  2.7417  1.2700  0.0685
 1530TP3      O16408   3.541   0.669   1.276 -0.3180  0.3648 -0.2271
 1530TP3     H116409   3.455   0.671   1.233 -0.3395  1.6254 -0.1626
 1530TP3     H216410   3.600   0.632   1.210 -0.9542 -0.8579 -0.1478
 1531TP3      O16411   3.022   0.982   3.131 -0.3966  0.2627 -0.5802
 1531TP3     H116412   3.055   1.071   3.140 -0.0209  0.1472 -0.7802
 1531TP3     H216413   2.929   0.988   3.154 -0.5228  0.8229 -1.2131
 1532TP3      O16414   1.431   2.032   7.458  0.0695 -0.1295 -1.0061
 1532TP3     H116415   1.499   2.095   7.482  0.6246 -1.3287  0.8218
 1532TP3     H216416   1.363   2.046   7.524 -0.2214 -0.7891 -1.1673
 1533TP3      O16417   3.537   3.589   7.806 -0.0080 -0.1202  0.0738
 1533TP3     H116418   3.470   3.623   7.865 -1.2247  0.3324 -1.5027
 1533TP3     H216419   3.581   3.667   7.772  0.2869 -0.3398 -0.0550
 1534TP3      O16420   3.431   4.567   1.212  0.0388 -0.4363  0.7662
 1534TP3     H116421   3.514   4.571   1.165 -1.0719 -0.6788 -1.3483
 1534TP3     H216422   3.399   4.478   1.196 -1.2941  0.1003  0.3116
 1535TP3      O16423   2.651   1.732   9.161  0.1004 -0.0006 -0.6549
 1535TP3     H116424   2.681   1.678   9.088  0.2363 -0.3073 -0.3736
 1535TP3     H216425   2.582   1.680   9.203 -0.0903  0.2451 -0.6622
 1536TP3      O16426   3.543   4.314   2.669  0.3080 -0.4194 -0.1043
 1536TP3     H116427   3.599   4.323   2.591  0.7951 -0.2834  0.2559
 1536TP3     H216428   3.540   4.220   2.685  0.5651 -0.4176 -0.0355
 1537TP3      O16429   1.708   4.385   2.424 -0.4469  0.1820 -0.1918
 1537TP3     H116430   1.702   4.309   2.366 -0.5240  0.0279  0.0228
 1537TP3     H216431   1.630   4.381   2.478  0.0899 -0.1965  0.5689
 1538TP3      O16432   2.912   3.429   6.802 -0.1625  0.0077 -0.1536
 1538TP3     H116433   2.932   3.337   6.788 -1.0852 -0.0837 -0.9367
 1538TP3     H216434   2.890   3.435   6.895  2.4756 -0.0466  0.5664
 1539TP3      O16435   1.796   0.388   0.617 -0.6111 -0.0911  0.0319
 1539TP3     H116436   1.866   0.374   0.554 -0.8248 -1.2065  0.0298
 1539TP3     H216437   1.716   0.363   0.570 -0.9442  0.5405  0.2497
 1540TP3      O16438   3.015   2.171   2.358 -0.2830  0.0585 -0.1809
 1540TP3     H116439   3.038   2.264   2.352 -1.2690  0.4880  1.9963
 1540TP3     H216440   3.096   2.128   2.384 -0.2697  0.6011  0.7166
 1541TP3      O16441   0.712   3.959   7.923 -0.0348  0.5644 -0.3559
 1541TP3     H116442   0.713   3.921   8.011  0.8997  2.0499  0.3038
 1541TP3     H216443   0.625   3.999   7.916 -0.3894 -0.1805 -0.4206
 1542TP3      O16444   4.739   1.063   8.565 -0.0735 -0.1138 -0.1607
 1542TP3     H116445   4.653   1.042   8.599  0.2320 -0.9738  0.0981
 1542TP3     H216446   4.800   1.030   8.630  0.4589  0.6222 -0.2671
 1543TP3      O16447   0.855   3.101   0.467 -0.2843 -0.7110 -0.4715
 1543TP3     H116448   0.777   3.061   0.429 -0.0736 -0.1633 -1.5249
 1543TP3     H216449   0.875   3.047   0.543 -2.0322 -0.5196  0.1770
 1544TP3      O16450   0.500   5.220   9.002 -0.1966 -0.0568  0.0797
 1544TP3     H116451   0.430   5.282   8.983 -0.3829  0.3482  1.9030
 1544TP3     H216452   0.581   5.269   8.987 -0.2987 -0.1432 -0.8193
 1545TP3      O16453   2.520   4.587   2.048  0.2218  0.2418 -0.0582
 1545TP3     H116454   2.562   4.512   2.090 -0.0347 -0.2530 -0.6828
 1545TP3     H216455   2.473   4.551   1.973  0.7401  1.1155 -0.8341
 1546TP3      O16456   4.142   2.821   1.240  0.1158  0.0257 -0.8121
 1546TP3     H116457   4.187   2.741   1.211  2.5250  1.5104 -1.4607
 1546TP3     H216458   4.053   2.811   1.207  0.2232 -2.5437 -0.5429
 1547TP3      O16459   4.982   5.097   7.057 -0.5271 -0.3760  0.4945
 1547TP3     H116460   4.980   5.191   7.044  0.4782 -0.3257  0.6256
 1547TP3     H216461   5.059   5.081   7.111 -1.1197 -1.1999  1.1445
 1548TP3      O16462   0.829   3.146   7.903 -0.2849  0.2157  0.1994
 1548TP3     H116463   0.904   3.087   7.903 -0.0293  0.5104 -1.2589
 1548TP3     H216464   0.756   3.093   7.935  0.4733 -0.1488  1.3536
 1549TP3      O16465   3.139   3.605   0.288  0.0621 -0.0697 -0.2360
 1549TP3     H116466   3.057   3.570   0.253  0.5354 -0.1636 -1.2978
 1549TP3     H216467   3.168   3.668   0.222 -0.4664  1.9568  1.3522
 1550TP3      O16468   0.960   4.404   9.732  0.1420  0.8804 -0.0933
 1550TP3     H116469   0.873   4.403   9.772  0.0256 -0.0118 -0.3608
 1550TP3     H216470   0.949   4.358   9.649  0.8979  0.6649 -0.0785
 1551TP3      O16471   2.134   4.702   8.053 -0.1529 -0.2340 -0.1361
 1551TP3     H116472   2.191   4.778   8.045 -0.2995 -0.0827  0.2351
 1551TP3     H216473   2.140   4.659   7.968  1.4144 -0.8641  0.2546
 1552TP3      O16474   2.159   1.172   9.022 -0.0265 -0.2958  0.0939
 1552TP3     H116475   2.065   1.169   9.005 -0.3099 -0.0898  1.5420
 1552TP3     H216476   2.167   1.166   9.117  1.3901  0.3447  0.0449
 1553TP3      O16477   3.328   5.025   7.588 -0.3358  0.2758  0.1766
 1553TP3     H116478   3.401   4.968   7.610 -1.6441 -1.5029  0.0697
 1553TP3     H216479   3.325   5.024   7.492 -2.2692 -2.0960  0.1846
 1554TP3      O16480   0.320   2.158   0.313 -0.3644  0.1027  0.1255
 1554TP3     H116481   0.275   2.091   0.262  1.2698 -0.4705 -0.6441
 1554TP3     H216482   0.377   2.108   0.372 -0.6096  0.8009  0.9653
 1555TP3      O16483   2.467   2.797   6.809 -0.2469 -0.5766  0.4395
 1555TP3     H116484   2.563   2.792   6.815 -0.0330  1.4994 -0.4250
 1555TP3     H216485   2.447   2.754   6.726  0.0281 -0.3492  0.2497
 1556TP3      O16486   2.236   1.992   2.156 -0.2424  0.5823  0.2217
 1556TP3     H116487   2.323   2.024   2.132 -0.9186  0.9642 -1.9117
 1556TP3     H216488   2.211   1.934   2.084 -1.9883  0.9229  0.5158
 1557TP3      O16489   3.835   2.240   7.534 -0.2510 -0.2277  0.5772
 1557TP3     H116490   3.784   2.244   7.453  0.1046  1.1727  0.3828
 1557TP3     H216491   3.788   2.299   7.594  0.1224 -0.3601  1.0013
 1558TP3      O16492   0.154   1.999   1.040  0.2733 -0.6089 -0.3919
 1558TP3     H116493   0.215   2.072   1.030  1.3036 -1.7149 -3.4090
 1558TP3     H216494   0.075   2.028   0.994 -0.5497 -0.1953  1.2291
 1559TP3      O16495   4.803   4.746   6.754  0.0764 -0.2707 -0.4889
 1559TP3     H116496   4.718   4.758   6.712  0.6047  0.5433 -1.3564
 1559TP3     H216497   4.784   4.749   6.847 -1.2292 -2.8035 -0.5898
 1560TP3      O16498   0.290   3.244   2.979  0.4273 -0.0164  0.4897
 1560TP3     H116499   0.354   3.297   3.026  1.6525 -0.7363 -0.3185
 1560TP3     H216500   0.212   3.245   3.035  1.2725  0.5487  1.6907
 1561TP3      O16501   5.220   3.796   7.474 -0.3087  0.0106  0.3274
 1561TP3     H116502   5.222   3.819   7.567  3.2185  0.0096  0.3607
 1561TP3     H216503   5.298   3.836   7.437 -0.4985 -1.7345 -2.2234
 1562TP3      O16504   0.146   2.368   8.599  0.2727 -0.0543 -0.2525
 1562TP3     H116505   0.109   2.454   8.576  1.7714  0.1400 -2.2228
 1562TP3     H216506   0.241   2.379   8.587  0.6190 -1.6479  0.7328
 1563TP3      O16507   4.476   1.820   1.494 -0.1454  0.3777  0.5177
 1563TP3     H116508   4.411   1.760   1.531 -0.1789  0.5799  0.7925
 1563TP3     H216509   4.441   1.907   1.513 -0.5767  0.4880 -0.7262
 1564TP3      O16510   3.502   1.428   8.708  0.1422  0.4252 -0.0766
 1564TP3     H116511   3.581   1.380   8.733 -0.1452 -0.7438 -1.3052
 1564TP3     H216512   3.534   1.515   8.683  1.7471 -1.1610 -4.4696
 1565TP3      O16513   4.245   2.514   9.241  0.4082  0.2640  0.4193
 1565TP3     H116514   4.233   2.419   9.244 -1.5344  0.4551  0.0014
 1565TP3     H216515   4.257   2.533   9.148  1.9528  0.3379  0.6103
 1566TP3      O16516   0.509   2.064   9.762  0.3351 -0.0044  0.0204
 1566TP3     H116517   0.518   1.984   9.711  0.0548  0.1747 -0.3084
 1566TP3     H216518   0.501   2.134   9.697  2.0915  0.4866  0.2705
 1567TP3      O16519   1.519   5.064   7.443  0.2565 -0.3823  0.0556
 1567TP3     H116520   1.490   5.155   7.449  1.8632  0.1266  0.7731
 1567TP3     H216521   1.520   5.046   7.349 -1.4874 -0.1819 -0.0449
 1568TP3      O16522   3.348   4.224   9.680 -0.9113 -0.1463  0.8283
 1568TP3     H116523   3.262   4.267   9.675 -1.4874 -1.2778  0.5911
 1568TP3     H216524   3.353   4.172   9.599  0.4174  0.6370  0.3716
 1569TP3      O16525   3.550   1.442   9.862 -0.6997  0.2526  0.1874
 1569TP3     H116526   3.483   1.413   9.924  1.2788 -1.3230  1.7259
 1569TP3     H216527   3.546   1.380   9.790  0.7399 -1.4777  1.5078
 1570TP3      O16528   2.128   0.158   2.330 -0.4585  0.2892 -0.2725
 1570TP3     H116529   2.091   0.211   2.402 -2.1169  0.0222 -0.8747
 1570TP3     H216530   2.198   0.108   2.371 -0.9529  0.6093  1.0284
 1571TP3      O16531   0.358   3.588   2.744 -0.4092  0.1219  0.2562
 1571TP3     H116532   0.276   3.564   2.787 -0.8563  0.9474 -0.1304
 1571TP3     H216533   0.421   3.593   2.816 -0.4496 -1.4614  0.4509
 1572TP3      O16534   3.788   5.147   2.283  0.4306  0.5653  0.5207
 1572TP3     H116535   3.723   5.078   2.295  2.9034 -2.1824 -0.7785
 1572TP3     H216536   3.822   5.163   2.371  0.0265 -0.0663  0.7993
 1573TP3      O16537   2.793   1.514   3.436  0.0089 -0.2736  0.6983
 1573TP3     H116538   2.760   1.602   3.418 -0.3703 -0.3988  0.7606
 1573TP3     H216539   2.888   1.522   3.431 -0.0223  0.1550  0.7826
 1574TP3      O16540   5.249   3.864   7.732  0.3107  0.2443  0.0792
 1574TP3     H116541   5.166   3.834   7.770 -0.1509  2.2529  0.7988
 1574TP3     H216542   5.316   3.817   7.780 -0.2818  2.1674  2.9893
 1575TP3      O16543   2.265   3.697   8.347  0.5496 -0.0386  0.1866
 1575TP3     H116544   2.266   3.645   8.266 -0.9288 -0.1089  0.1919
 1575TP3     H216545   2.337   3.759   8.337  2.9336 -2.5622  0.5191
 1576TP3      O16546   4.417   2.183   8.329 -0.5683  0.3391 -0.5270
 1576TP3     H116547   4.324   2.163   8.330 -0.7600  1.1560 -1.0081
 1576TP3     H216548   4.424   2.262   8.276  0.4329  0.1270 -0.7377
 1577TP3      O16549   2.920   4.409   1.161 -0.2330  0.1498 -0.1749
 1577TP3     H116550   2.943   4.378   1.248 -0.8638  0.0764 -0.0307
 1577TP3     H216551   2.998   4.392   1.108 -0.2043 -0.7523  0.1329
 1578TP3      O16552   1.745   3.714   1.818 -0.1869 -0.1074  0.5134
 1578TP3     H116553   1.797   3.642   1.851 -1.3408 -0.9654  0.5127
 1578TP3     H216554   1.674   3.724   1.881  0.8929  2.2069  1.4736
 1579TP3      O16555   1.124   3.311   0.228  0.1334  0.3969  0.1692
 1579TP3     H116556   1.155   3.402   0.228 -1.5588  1.1183 -2.7435
 1579TP3     H216557   1.203   3.259   0.212  0.6789  1.7336 -1.8812
 1580TP3      O16558   1.669   2.104   8.805  0.0185 -0.4131  0.3553
 1580TP3     H116559   1.723   2.160   8.860 -0.6759 -1.1405  1.8493
 1580TP3     H216560   1.620   2.165   8.749 -0.4647  0.4788  1.7017
 1581TP3      O16561   2.897   3.264  10.019  0.2045  0.3458  0.1068
 1581TP3     H116562   2.835   3.194   9.997 -0.1215  0.2532  1.2470
 1581TP3     H216563   2.973   3.248   9.962 -0.4318 -0.1040 -0.6259
 1582TP3      O16564   0.071   4.482   3.307 -0.1832  0.5767 -0.0477
 1582TP3     H116565   0.039   4.478   3.397  1.5250  0.8635  0.6206
 1582TP3     H216566   0.068   4.575   3.284 -2.7461  0.2869 -1.1586
 1583TP3      O16567   0.355   2.044   7.006  0.6234  0.2830  0.2237
 1583TP3     H116568   0.297   2.096   6.949 -0.6987  0.9248  2.0711
 1583TP3     H216569   0.389   1.975   6.949  0.6737  1.8509 -1.7589
 1584TP3      O16570   1.167   2.897   0.794  0.2764 -0.2364  0.1846
 1584TP3     H116571   1.177   2.818   0.741  0.0624  0.0174 -0.2349
 1584TP3     H216572   1.083   2.933   0.768 -0.6554 -1.0092  1.9051
 1585TP3      O16573   3.881   3.178   6.872  0.2292  0.0554 -0.0587
 1585TP3     H116574   3.882   3.247   6.938  0.9711  0.7183 -0.7447
 1585TP3     H216575   3.883   3.096   6.923  1.1293  0.5539  0.7396
 1586TP3      O16576   4.211   0.284   2.146  0.1125  0.8572  0.2733
 1586TP3     H116577   4.242   0.222   2.213  2.0465  1.9107  0.4154
 1586TP3     H216578   4.259   0.259   2.067 -1.5949  0.1106 -0.5843
 1587TP3      O16579   2.626   0.877   1.644 -0.0345  0.2837 -0.9671
 1587TP3     H116580   2.715   0.844   1.638  0.0243  0.4665 -1.1465
 1587TP3     H216581   2.571   0.799   1.645  0.1055  0.1796 -1.3124
 1588TP3      O16582   4.349   5.104   8.775  0.0993  0.2569 -0.0866
 1588TP3     H116583   4.436   5.077   8.748  0.6984  1.4564  0.5517
 1588TP3     H216584   4.352   5.200   8.773 -1.5894  0.3281 -1.2253
 1589TP3      O16585   2.067   0.645   9.185 -0.1593  0.0297 -0.0594
 1589TP3     H116586   2.155   0.609   9.186  0.0580  0.4991  1.8031
 1589TP3     H216587   2.069   0.713   9.117  0.8211 -0.1883 -0.2499
 1590TP3      O16588   3.746   3.884   8.974  0.1461  0.2728 -0.2755
 1590TP3     H116589   3.832   3.853   9.002  0.1626  0.6164  0.0604
 1590TP3     H216590   3.698   3.897   9.056  0.2014  1.3035 -0.3964
 1591TP3      O16591   1.922   0.266   7.658 -0.2138 -0.5300  0.2630
 1591TP3     H116592   1.968   0.347   7.678 -0.9075  0.0166 -0.2891
 1591TP3     H216593   1.947   0.206   7.728  0.6375  0.0237  0.4469
 1592TP3      O16594   3.200   3.047   9.026  0.1240  0.3179  0.1853
 1592TP3     H116595   3.179   3.138   9.045 -0.5499 -0.0341  1.2105
 1592TP3     H216596   3.190   3.002   9.110  1.4697 -0.5200 -0.0738
 1593TP3      O16597   3.049   4.897   2.329  0.1122  0.2381 -0.2039
 1593TP3     H116598   3.133   4.934   2.357  0.2035  1.4305 -1.9047
 1593TP3     H216599   3.049   4.906   2.234 -1.3196 -1.1435 -0.3771
 1594TP3      O16600   3.786   3.275   2.251 -0.5013  0.3770  0.0170
 1594TP3     H116601   3.716   3.297   2.189 -0.1115  3.1218  0.3943
 1594TP3     H216602   3.866   3.274   2.198 -0.5750 -0.8898 -0.0962
 1595TP3      O16603   2.617   0.108   0.881 -0.0749  0.0688 -0.3438
 1595TP3     H116604   2.644   0.129   0.971  0.4132 -0.6837 -0.3003
 1595TP3     H216605   2.537   0.056   0.892 -0.9760  1.3714 -0.4301
 1596TP3      O16606   2.982   3.561   7.499  0.3586 -0.0397  0.1631
 1596TP3     H116607   3.064   3.516   7.516 -0.7684 -1.6185  1.8352
 1596TP3     H216608   2.949   3.523   7.417  0.7881 -0.1432  0.0390
 1597TP3      O16609   3.697   0.128   1.281  0.0410  0.3434  0.2005
 1597TP3     H116610   3.656   0.199   1.330 -0.0166  0.5127 -0.0947
 1597TP3     H216611   3.783   0.116   1.323 -0.1255  0.2862  0.5328
 1598TP3      O16612   0.799   0.574   8.696 -0.1495 -0.1094  0.2657
 1598TP3     H116613   0.723   0.515   8.700  0.2973 -0.6934  0.1886
 1598TP3     H216614   0.786   0.624   8.616  0.7724 -1.9119 -1.0622
 1599TP3      O16615   1.162   1.658   9.190  0.1208 -0.3252 -0.3188
 1599TP3     H116616   1.137   1.700   9.108  1.6892 -0.4280 -0.8804
 1599TP3     H216617   1.245   1.699   9.213  1.4342 -2.6805 -0.5799
 1600TP3      O16618   4.488   0.724   7.537 -0.5060  0.8950 -0.1610
 1600TP3     H116619   4.541   0.777   7.477 -1.5656  1.1907 -0.8545
 1600TP3     H216620   4.419   0.688   7.482  0.2535 -1.3365  0.2738
 1601TP3      O16621   0.380   5.171   7.954 -0.3729  0.6078  0.1517
 1601TP3     H116622   0.453   5.203   7.901  0.9465 -2.5893 -0.1731
 1601TP3     H216623   0.305   5.173   7.894  0.0440  1.3924 -0.3639
 1602TP3      O16624   1.337   4.926   0.743  0.3998 -0.6570  0.5663
 1602TP3     H116625   1.328   5.020   0.730 -3.0445 -0.9023  0.3723
 1602TP3     H216626   1.360   4.892   0.657  1.1210 -0.0687  0.5163
 1603TP3      O16627   1.699   4.526   8.307 -0.2567  0.0115 -0.0365
 1603TP3     H116628   1.612   4.486   8.310 -0.5170  0.4324 -1.2941
 1603TP3     H216629   1.753   4.471   8.364 -1.5898  0.4056  1.6956
 1604TP3      O16630   1.387   0.540   0.919 -0.2922  0.2722 -0.4083
 1604TP3     H116631   1.454   0.605   0.941  1.2100 -1.2476 -0.3256
 1604TP3     H216632   1.410   0.510   0.832 -0.4940 -0.7160 -0.1290
 1605TP3      O16633   2.777   0.623   0.902  0.1630  0.2702 -0.3217
 1605TP3     H116634   2.740   0.631   0.814  1.0084 -1.1923 -0.8404
 1605TP3     H216635   2.731   0.548   0.940 -0.9243  1.4954  0.8936
 1606TP3      O16636   4.134   5.068   6.962 -0.0045  0.0430  0.1450
 1606TP3     H116637   4.143   5.019   7.044  1.0656  2.2211  1.4318
 1606TP3     H216638   4.072   5.138   6.983  1.5860  1.6678 -0.3141
 1607TP3      O16639   4.412   1.540   7.557  0.1902 -0.2430 -0.1011
 1607TP3     H116640   4.415   1.449   7.528  1.6886 -0.4547  0.6558
 1607TP3     H216641   4.504   1.565   7.568 -0.2442  0.5712  2.1214
 1608TP3      O16642   2.454   3.740   1.277  0.1461  0.4328  0.3820
 1608TP3     H116643   2.509   3.744   1.199 -1.7394 -0.3993 -1.0715
 1608TP3     H216644   2.511   3.705   1.345  1.1485 -1.4469 -1.3351
 1609TP3      O16645   2.578   1.066   7.423  0.8105 -0.2796 -0.2983
 1609TP3     H116646   2.527   0.992   7.392 -0.1498  0.5554 -0.7511
 1609TP3     H216647   2.582   1.126   7.349  0.8815  0.4849  0.3090
 1610TP3      O16648   4.660   1.782   0.627 -0.0584 -0.5283  0.2365
 1610TP3     H116649   4.600   1.726   0.579  0.5804 -1.8739  0.9598
 1610TP3     H216650   4.634   1.772   0.719  0.8538 -0.6274  0.4935
 1611TP3      O16651   5.102   3.162   7.548  0.1179 -0.2689  0.1347
 1611TP3     H116652   5.100   3.075   7.589  2.1712  0.4254  1.8940
 1611TP3     H216653   5.163   3.152   7.475  0.2614 -0.3502  0.2647
 1612TP3      O16654   2.407   3.668   2.962 -0.7612  0.3736  0.3348
 1612TP3     H116655   2.352   3.739   2.928 -2.2835 -0.9667 -0.1801
 1612TP3     H216656   2.401   3.675   3.057 -2.5086 -0.1783  0.3014
 1613TP3      O16657   4.204   5.097  10.033  0.1300  0.0957 -0.0357
 1613TP3     H116658   4.260   5.074  10.107 -0.5111 -0.1100  0.3943
 1613TP3     H216659   4.122   5.050  10.050  0.1512 -0.3676 -1.1372
 1614TP3      O16660   4.175   4.090   7.678  0.3303 -0.1988  0.4627
 1614TP3     H116661   4.111   4.086   7.606  0.1635 -3.1507  0.6405
 1614TP3     H216662   4.150   4.168   7.727 -0.8022  0.7956 -1.5289
 1615TP3      O16663   3.641   2.947   2.620 -0.1229 -0.7969 -0.4542
 1615TP3     H116664   3.707   2.889   2.659 -0.2808 -0.3144  0.5595
 1615TP3     H216665   3.691   3.003   2.561  0.3397 -0.6622  0.0498
 1616TP3      O16666   2.422   1.450   8.351 -0.3192  0.2864 -0.1185
 1616TP3     H116667   2.486   1.490   8.292 -1.1120  0.6845 -0.7313
 1616TP3     H216668   2.338   1.461   8.306 -1.0585  1.2823  1.4246
 1617TP3      O16669   5.132   0.241   1.344  0.2579 -0.0748  0.4063
 1617TP3     H116670   5.170   0.183   1.278  0.8819  1.0828 -0.2848
 1617TP3     H216671   5.041   0.252   1.317  1.1705  2.6394 -1.9817
 1618TP3      O16672   3.839   4.326   0.894  0.1720 -0.3757  0.0300
 1618TP3     H116673   3.914   4.327   0.954  2.0285  0.4561 -2.1566
 1618TP3     H216674   3.835   4.236   0.862  0.4790 -0.3406 -0.1124
 1619TP3      O16675   2.582   1.967   8.745 -0.1407 -0.3711  0.3145
 1619TP3     H116676   2.498   2.010   8.760  1.3251  2.3749  1.2662
 1619TP3     H216677   2.562   1.873   8.750 -2.8004  0.1917  2.5091
 1620TP3      O16678   3.488   1.697   9.293  0.3893  0.3155  0.5090
 1620TP3     H116679   3.556   1.649   9.247 -2.0211 -1.1711 -1.8340
 1620TP3     H216680   3.467   1.643   9.370  0.7645 -0.0252  0.3709
 1621TP3      O16681   3.483   1.018   8.447 -1.1142  0.1969 -0.3573
 1621TP3     H116682   3.411   0.993   8.504  0.8869 -2.3679  1.2204
 1621TP3     H216683   3.499   0.941   8.393  0.3389  0.7667 -0.7911
 1622TP3      O16684   4.259   4.016   0.136 -0.1972  0.0657 -0.0497
 1622TP3     H116685   4.167   4.006   0.160 -0.1459 -1.1311 -0.2880
 1622TP3     H216686   4.278   3.940   0.080  0.7644  0.6363 -0.5244
 1623TP3      O16687   1.946   5.064   2.213 -0.1676  0.7705 -0.0059
 1623TP3     H116688   1.886   5.138   2.223 -1.6257 -0.1840 -1.1834
 1623TP3     H216689   1.958   5.030   2.301 -2.0309  0.5147  0.1843
 1624TP3      O16690   0.685   4.584   2.447 -0.5309  0.2687 -0.7561
 1624TP3     H116691   0.694   4.535   2.529 -2.3572 -0.7214 -1.0955
 1624TP3     H216692   0.659   4.672   2.474 -0.7150  0.0633 -0.2520
 1625TP3      O16693   3.489   0.163   7.525 -0.4373  0.5295 -0.4142
 1625TP3     H116694   3.495   0.187   7.432  0.5912 -0.3416 -0.5943
 1625TP3     H216695   3.541   0.229   7.570 -0.2036  0.4445 -0.5586
 1626TP3      O16696   1.597   1.412   9.256  0.3588 -0.3152 -0.7900
 1626TP3     H116697   1.579   1.404   9.350 -1.0243 -0.0834 -1.0106
 1626TP3     H216698   1.587   1.322   9.222 -0.2262 -0.2242 -0.8752
 1627TP3      O16699   2.346   4.188  10.099  0.4812 -0.0652  0.0549
 1627TP3     H116700   2.302   4.228  10.174  0.4671  0.2681 -0.1287
 1627TP3     H216701   2.275   4.168  10.038  0.5570  0.2215 -0.1260
 1628TP3      O16702   4.040   3.779   7.867 -0.5300  0.1680 -0.1824
 1628TP3     H116703   4.032   3.791   7.772 -0.5849  1.0881 -0.0709
 1628TP3     H216704   4.134   3.783   7.884 -0.4175 -1.2782 -0.3405
 1629TP3      O16705   5.250   3.321   6.782  0.4502 -0.3435  0.3024
 1629TP3     H116706   5.330   3.276   6.808  0.0249 -1.8633 -0.8391
 1629TP3     H216707   5.182   3.282   6.835  0.4076  0.8287  1.1515
 1630TP3      O16708   3.916   4.726   0.462  0.6920 -0.2871  0.4876
 1630TP3     H116709   3.912   4.684   0.548 -1.5570  1.6409  1.4333
 1630TP3     H216710   3.837   4.695   0.417 -0.1798  1.5787  0.6292
 1631TP3      O16711   4.036   0.261   0.632  0.0444 -0.1420  0.0080
 1631TP3     H116712   4.108   0.302   0.582  0.0020  0.7406  0.6401
 1631TP3     H216713   3.971   0.331   0.640 -0.4703 -0.6478  0.2613
 1632TP3      O16714   2.015   5.208   0.050 -0.3706  0.1592  0.0708
 1632TP3     H116715   1.998   5.167   0.135 -1.9949 -1.3495 -0.9368
 1632TP3     H216716   1.933   5.252   0.028  0.0067  0.4502 -0.7723
 1633TP3      O16717   2.912   0.032  10.013  0.3322  0.8629 -0.4833
 1633TP3     H116718   2.929   0.114  10.059 -0.3879  0.2519  0.9387
 1633TP3     H216719   2.854  -0.017  10.071 -1.2440  0.3421 -2.4027
 1634TP3      O16720   0.885   4.538   0.030  0.3796  0.1059  0.6558
 1634TP3     H116721   0.860   4.617   0.079  0.8063  0.0871  0.9087
 1634TP3     H216722   0.852   4.466   0.083  2.0706  0.0207  1.6868
 1635TP3      O16723   0.331   1.720   7.918 -0.4469  0.3700  0.1283
 1635TP3     H116724   0.409   1.681   7.957  0.1844  3.0182  1.7463
 1635TP3     H216725   0.273   1.646   7.901  2.4428 -1.7551 -1.4197
 1636TP3      O16726   4.439   2.732   1.492  0.0679  0.3353  0.8892
 1636TP3     H116727   4.500   2.763   1.558 -0.7068  2.0772  0.8532
 1636TP3     H216728   4.455   2.789   1.416  1.0109 -1.6784 -0.5164
 1637TP3      O16729   4.696   3.425   7.408 -0.4517 -0.5437  0.4505
 1637TP3     H116730   4.631   3.482   7.449  1.9653  3.4669 -0.6947
 1637TP3     H216731   4.660   3.406   7.322  0.0597  2.4979 -0.5835
 1638TP3      O16732   2.842   5.234   9.538 -0.0434  0.2213  0.2640
 1638TP3     H116733   2.801   5.304   9.588 -1.3679 -0.3202 -0.0460
 1638TP3     H216734   2.924   5.217   9.585  0.2250  1.8279  0.4539
 1639TP3      O16735   2.052   3.376   2.397 -0.0869 -0.2991  0.0175
 1639TP3     H116736   2.036   3.355   2.489 -0.2523  2.5026  0.6992
 1639TP3     H216737   1.988   3.323   2.349 -2.2211  0.5774  1.7610
 1640TP3      O16738   0.068   3.809   2.727  0.3927 -0.7063  0.6212
 1640TP3     H116739   0.003   3.799   2.797  0.2559 -0.1330  0.5829
 1640TP3     H216740   0.066   3.903   2.706  0.5428 -0.8473 -0.0482
 1641TP3      O16741   4.332   3.802   7.492  0.0691 -0.1000 -0.1352
 1641TP3     H116742   4.260   3.766   7.543  1.3060 -0.0001  1.8004
 1641TP3     H216743   4.290   3.850   7.421 -1.7264 -0.8399  0.3855
 1642TP3      O16744   1.288   3.788   0.351  0.1824 -0.0548 -0.9019
 1642TP3     H116745   1.275   3.843   0.428 -1.4991  0.4286 -1.4907
 1642TP3     H216746   1.242   3.834   0.280 -1.3018 -2.1919 -1.4134
 1643TP3      O16747   4.313   1.274   8.732 -0.6627 -0.4401  0.0038
 1643TP3     H116748   4.347   1.363   8.728 -1.5132 -0.0240  1.2961
 1643TP3     H216749   4.301   1.248   8.641  0.5584  0.3821 -0.4004
 1644TP3      O16750   2.918   2.405   8.212 -0.1733 -0.6204  0.4221
 1644TP3     H116751   2.914   2.312   8.235  1.6879 -0.8286  0.0356
 1644TP3     H216752   2.891   2.450   8.292 -2.6037 -1.4617  0.1689
 1645TP3      O16753   5.136   1.191   3.611 -0.2051  0.3675 -0.0758
 1645TP3     H116754   5.211   1.138   3.636 -1.1441 -2.6760 -2.9944
 1645TP3     H216755   5.062   1.151   3.657 -0.5655  0.8621 -0.2186
 1646TP3      O16756   2.518   4.111   8.207  0.2540  0.2869  0.2632
 1646TP3     H116757   2.521   4.089   8.300 -0.3190 -2.5281 -0.3010
 1646TP3     H216758   2.438   4.162   8.197  0.2020  0.4262  1.2832
 1647TP3      O16759   0.559   4.780   6.751  0.6108  0.0385  0.2217
 1647TP3     H116760   0.558   4.864   6.797  1.5428  0.5143 -0.5859
 1647TP3     H216761   0.640   4.738   6.779  1.2406  0.3784 -1.0247
 1648TP3      O16762   1.364   4.644   9.339  0.2141  0.5469 -0.2845
 1648TP3     H116763   1.425   4.712   9.366  1.2803 -0.1494 -0.8178
 1648TP3     H216764   1.278   4.683   9.346  0.3647  0.5041  3.8515
 1649TP3      O16765   3.073   4.291   7.203  0.2550  0.0973 -0.0753
 1649TP3     H116766   3.150   4.346   7.188 -0.6819  0.7874 -3.1091
 1649TP3     H216767   2.999   4.346   7.179 -0.9724 -1.4316  0.0097
 1650TP3      O16768   3.088   4.746   2.709  0.0550  0.0622 -0.1221
 1650TP3     H116769   3.044   4.696   2.778 -0.2275  0.6643  0.1462
 1650TP3     H216770   3.094   4.835   2.744 -2.0924  0.9457 -1.6913
 1651TP3      O16771   5.137   1.811   1.003 -0.2444  0.0250 -0.2294
 1651TP3     H116772   5.047   1.819   1.033 -0.2816  0.5270 -0.4514
 1651TP3     H216773   5.150   1.718   0.986  0.0845 -0.4444  2.2565
 1652TP3      O16774   2.807   3.875   8.865  0.1715  0.7603 -0.0875
 1652TP3     H116775   2.863   3.951   8.850  0.7182  0.3447 -0.1721
 1652TP3     H216776   2.860   3.817   8.921  0.0441  0.1194 -0.6220
 1653TP3      O16777   5.056   3.541   7.881  0.0291 -0.2487 -0.2163
 1653TP3     H116778   5.004   3.462   7.863  0.6447 -0.4912 -1.0463
 1653TP3     H216779   5.114   3.515   7.952  0.8229 -0.8468 -1.0557
 1654TP3      O16780   4.519   4.301   1.074  0.2012  0.0171  0.6648
 1654TP3     H116781   4.449   4.254   1.118  0.0475 -0.3641  0.0172
 1654TP3     H216782   4.589   4.236   1.063 -0.6798 -0.6250 -1.8395
 1655TP3      O16783   5.184   4.430   0.489 -0.0347  0.0907 -0.1529
 1655TP3     H116784   5.252   4.396   0.431 -0.4524  0.3730 -0.8078
 1655TP3     H216785   5.103   4.393   0.457 -0.2275 -0.0813  0.5073
 1656TP3      O16786   1.689   4.037   7.922 -0.3684  0.7723 -0.2140
 1656TP3     H116787   1.625   4.044   7.993 -0.6082 -0.4451 -0.2842
 1656TP3     H216788   1.769   4.007   7.965  0.3056  2.6565 -0.0685
 1657TP3      O16789   0.883   3.457   6.235  0.2970  0.0328 -0.3969
 1657TP3     H116790   0.956   3.397   6.221  0.1515  0.0488 -1.2669
 1657TP3     H216791   0.870   3.457   6.330  3.5007  2.4652  0.2218
 1658TP3      O16792   0.233   1.982   9.414 -0.5570 -0.1301  0.2302
 1658TP3     H116793   0.154   2.028   9.442 -0.7821 -0.2537 -0.2010
 1658TP3     H216794   0.290   2.050   9.379 -0.5916 -0.0853  0.2611
 1659TP3      O16795   2.989   3.697   8.975 -0.2589 -0.8870 -0.0558
 1659TP3     H116796   2.948   3.629   9.028 -0.5679 -0.0176  0.8464
 1659TP3     H216797   3.071   3.657   8.945 -0.9403 -2.0235 -0.4383
 1660TP3      O16798   2.220   2.403   7.734  0.2582  0.1418  0.3895
 1660TP3     H116799   2.291   2.444   7.685  0.7025 -1.4341 -0.3573
 1660TP3     H216800   2.161   2.475   7.755  0.6439  1.0564 -1.4439
 1661TP3      O16801   2.073   3.318   8.244  0.0596  0.3643 -0.0770
 1661TP3     H116802   2.159   3.360   8.245 -0.2715  1.1166  2.0718
 1661TP3     H216803   2.046   3.321   8.152  1.8233  1.1717 -0.6031
 1662TP3      O16804   0.307   0.327   9.450  0.4596 -0.6371 -0.6633
 1662TP3     H116805   0.271   0.240   9.465  0.9697 -0.5771  1.1011
 1662TP3     H216806   0.249   0.387   9.497  0.3643 -0.0488 -1.4931
 1663TP3      O16807   0.619   0.220   1.001 -0.0110 -0.0737 -0.4753
 1663TP3     H116808   0.675   0.147   0.972 -0.4654 -1.1402  1.1737
 1663TP3     H216809   0.674   0.269   1.062  0.1678  0.7817 -1.3063
 1664TP3      O16810   0.937   1.989   8.959 -0.2091  0.2740 -0.6875
 1664TP3     H116811   0.930   2.075   8.918 -1.0325  0.4159 -0.2635
 1664TP3     H216812   0.927   2.007   9.053  1.3781 -0.0771 -0.4134
 1665TP3      O16813   5.265   0.821   7.697 -0.0968 -0.5613 -0.0141
 1665TP3     H116814   5.192   0.832   7.637 -0.6487  0.6062  0.8527
 1665TP3     H216815   5.231   0.765   7.767  0.4910 -1.7682 -0.6642
 1666TP3      O16816   2.495   2.610   2.220  0.0305  0.1752  0.1592
 1666TP3     H116817   2.504   2.688   2.166  1.2595  1.4853  2.1352
 1666TP3     H216818   2.554   2.546   2.181  1.4745  1.3547  0.3305
 1667TP3      O16819   4.581   4.266   0.587  0.3318  0.2638 -0.2692
 1667TP3     H116820   4.605   4.211   0.512  1.5309 -0.5024  0.6345
 1667TP3     H216821   4.526   4.209   0.641  0.9604  0.1925  0.3049
 1668TP3      O16822   2.588   2.721   7.363 -0.3078  0.3141  0.4541
 1668TP3     H116823   2.573   2.812   7.391  1.8250  0.6184  0.7847
 1668TP3     H216824   2.581   2.670   7.444 -0.3661  0.3394  0.4649
 1669TP3      O16825   1.870   3.747   0.245  0.6247  0.4069  0.2544
 1669TP3     H116826   1.905   3.790   0.323 -0.1675 -0.5606  1.1646
 1669TP3     H216827   1.805   3.809   0.212  0.1475  0.3312  1.0274
 1670TP3      O16828   2.795   0.396   9.134 -0.1460  0.6011  0.4778
 1670TP3     H116829   2.873   0.414   9.082 -0.5522 -1.6903 -1.0663
 1670TP3     H216830   2.829   0.367   9.219  0.8864 -1.9380 -0.6757
 1671TP3      O16831   3.341   0.474   8.418 -0.1320  0.2476  0.1532
 1671TP3     H116832   3.327   0.383   8.446 -0.5036  0.2420 -0.0535
 1671TP3     H216833   3.388   0.466   8.335 -1.3802  0.2087 -0.5741
 1672TP3      O16834   0.503   1.118   0.734  0.1799  0.4948  0.3820
 1672TP3     H116835   0.505   1.141   0.641 -0.8518 -0.0817  0.2042
 1672TP3     H216836   0.464   1.193   0.777 -1.1235  0.0128  0.0867
 1673TP3      O16837   5.059   0.385   2.454 -0.5540  0.3420  0.7068
 1673TP3     H116838   5.090   0.303   2.493 -1.1029 -0.5616 -0.6766
 1673TP3     H216839   4.976   0.403   2.499  0.1919  0.8657  1.9259
 1674TP3      O16840   4.855   4.015   9.907 -0.3808  0.1776  0.0212
 1674TP3     H116841   4.770   3.972   9.920  0.0123 -0.8025 -0.5861
 1674TP3     H216842   4.919   3.951   9.936  0.3100 -0.4081 -2.4944
 1675TP3      O16843   0.331   4.866   7.016  0.4472 -0.3659  0.1736
 1675TP3     H116844   0.384   4.945   7.010  1.4861 -0.9461  1.2504
 1675TP3     H216845   0.264   4.886   7.081 -0.3989  0.2137 -0.8550
 1676TP3      O16846   4.105   0.785   2.979 -0.2177  0.0314 -0.6795
 1676TP3     H116847   4.134   0.762   3.067 -1.2422 -0.5244 -0.4754
 1676TP3     H216848   4.175   0.753   2.922  0.1949 -0.0955 -0.1090
 1677TP3      O16849   1.664   3.957   9.204  0.0010 -0.0637  0.0721
 1677TP3     H116850   1.597   3.891   9.186  1.6143 -1.2776 -1.8258
 1677TP3     H216851   1.744   3.907   9.220  1.8851  1.2691 -3.8535
 1678TP3      O16852   2.593   5.193   6.883 -0.0926 -0.6209 -0.3262
 1678TP3     H116853   2.630   5.139   6.953 -2.4841 -1.3920  0.4537
 1678TP3     H216854   2.550   5.265   6.929  1.0447  0.6707 -1.2290
 1679TP3      O16855   0.144   3.888   7.364 -0.1137  0.6498 -0.5073
 1679TP3     H116856   0.222   3.927   7.404  0.8066 -0.2098 -1.4074
 1679TP3     H216857   0.162   3.890   7.270  0.0784 -2.0872 -0.5975
 1680TP3      O16858   2.379   0.726   7.836  0.3294 -0.3848 -0.0679
 1680TP3     H116859   2.433   0.649   7.819  0.6851 -0.3230  0.7486
 1680TP3     H216860   2.313   0.696   7.899  1.0792  0.1986  1.0445
 1681TP3      O16861   4.301   0.025   6.245  0.1182  0.1896  0.0183
 1681TP3     H116862   4.365   0.057   6.309 -0.8243  1.3918  0.3963
 1681TP3     H216863   4.224   0.080   6.258 -1.0344 -1.2437 -0.3949
 1682TP3      O16864   1.755   3.426   8.092  0.6010 -0.2860 -0.3066
 1682TP3     H116865   1.716   3.493   8.146 -0.6285 -0.5840 -0.7882
 1682TP3     H216866   1.687   3.402   8.029  2.4155  1.1336 -3.0244
 1683TP3      O16867   0.432   3.542   9.910 -0.5085 -0.0807 -0.3663
 1683TP3     H116868   0.414   3.479   9.980 -0.2468 -0.0389 -0.2575
 1683TP3     H216869   0.371   3.519   9.840  0.2346 -1.0625 -0.7068
 1684TP3      O16870   3.470   0.939   9.064 -0.3019 -0.5105  0.5393
 1684TP3     H116871   3.505   0.870   9.008 -0.1447 -0.5416  0.6753
 1684TP3     H216872   3.544   0.998   9.078  0.1163 -1.3379  2.0238
 1685TP3      O16873   1.451   2.727   0.872  0.2459 -0.2898 -0.9394
 1685TP3     H116874   1.410   2.726   0.786  0.0551  0.7900 -0.8732
 1685TP3     H216875   1.391   2.778   0.927  1.1590  0.4502 -0.5903
 1686TP3      O16876   1.979   1.840   0.821  0.5136 -0.1451 -0.1019
 1686TP3     H116877   1.903   1.804   0.867  0.5217 -2.0383 -1.4468
 1686TP3     H216878   1.942   1.885   0.745  0.6465  0.4676  0.1953
 1687TP3      O16879   3.704   1.005   6.410 -0.1853 -0.1369  0.0517
 1687TP3     H116880   3.726   0.932   6.352  0.1429 -0.0416  0.0538
 1687TP3     H216881   3.608   1.006   6.413 -0.2107 -1.6580  1.4198
 1688TP3      O16882   2.420   1.518   0.257  0.2588 -0.3007 -0.4336
 1688TP3     H116883   2.381   1.439   0.295  2.3158 -0.9374  0.5585
 1688TP3     H216884   2.486   1.484   0.196  0.5246  0.6691 -0.6985
 1689TP3      O16885   3.165   1.443   9.615  0.5929  0.1297  0.3037
 1689TP3     H116886   3.114   1.405   9.687  0.7136 -1.4300 -0.3917
 1689TP3     H216887   3.101   1.453   9.544  1.1677 -1.6488 -0.5069
 1690TP3      O16888   3.668   3.771   7.598  0.3955  0.1969  0.3936
 1690TP3     H116889   3.718   3.691   7.581  2.1237  1.0482  1.2237
 1690TP3     H216890   3.665   3.816   7.514 -2.9820 -1.9108 -0.8170
 1691TP3      O16891   1.606   1.668   2.691  0.3881 -0.2453 -0.0883
 1691TP3     H116892   1.513   1.669   2.711  0.0640  0.0482 -1.5294
 1691TP3     H216893   1.631   1.576   2.698 -0.0258 -0.3396  0.2060
 1692TP3      O16894   4.854   5.152   7.422 -0.4480  0.0582  0.0179
 1692TP3     H116895   4.843   5.182   7.513  0.1357 -0.2911  0.2142
 1692TP3     H216896   4.839   5.231   7.369  1.1741  0.7647  0.5318
 1693TP3      O16897   4.942   3.500   2.733  0.1157 -0.3033 -0.3016
 1693TP3     H116898   4.891   3.427   2.768  0.4669 -1.5200 -2.1749
 1693TP3     H216899   5.001   3.525   2.804 -0.0391 -1.8144  0.3879
 1694TP3      O16900   3.679   0.478   2.995  0.9168  0.1719  0.0373
 1694TP3     H116901   3.681   0.497   3.088  0.6653 -1.3911  0.3934
 1694TP3     H216902   3.587   0.464   2.975  0.9955  0.2500 -0.3923
 1695TP3      O16903   3.676   3.882   8.407 -0.5101 -0.3630 -0.3125
 1695TP3     H116904   3.651   3.821   8.338  0.1485  0.8182 -1.6296
 1695TP3     H216905   3.642   3.841   8.488 -0.1445 -2.4115 -1.1323
 1696TP3      O16906   3.845   1.922   9.264 -0.6357  0.1562  0.1950
 1696TP3     H116907   3.761   1.967   9.264 -1.1183 -0.7113  0.9169
 1696TP3     H216908   3.842   1.865   9.187 -0.7195  0.1157  0.2284
 1697TP3      O16909   4.286   1.864   7.733  0.3026 -0.2822 -0.0300
 1697TP3     H116910   4.351   1.933   7.722  1.0904 -0.7193  1.5280
 1697TP3     H216911   4.294   1.839   7.825 -1.7355 -0.7033  0.0797
 1698TP3      O16912   3.427   2.801   2.617  0.3344 -0.1074 -0.1653
 1698TP3     H116913   3.500   2.860   2.635  1.8882 -1.9229 -0.1056
 1698TP3     H216914   3.407   2.762   2.702  1.3954 -1.8334 -0.6515
 1699TP3      O16915   1.465   2.461   0.633 -0.1319  0.0356 -0.0677
 1699TP3     H116916   1.394   2.525   0.635 -0.0937  0.1077  2.9422
 1699TP3     H216917   1.542   2.512   0.608 -1.0208 -0.0712 -3.5158
 1700TP3      O16918   1.214   0.526   2.406  1.0565 -0.9099  0.2376
 1700TP3     H116919   1.169   0.553   2.327 -0.3242 -0.3332  1.1814
 1700TP3     H216920   1.272   0.599   2.427  0.0286 -0.2125  0.7657
 1701TP3      O16921   2.890   2.014   0.922  0.1378 -0.6639 -0.3287
 1701TP3     H116922   2.807   2.027   0.967  0.7189 -0.4157  0.7075
 1701TP3     H216923   2.875   2.049   0.834 -0.7383 -0.2897 -0.0404
 1702TP3      O16924   0.841   3.370   7.091 -0.2161 -0.0165  0.5672
 1702TP3     H116925   0.813   3.378   6.999 -0.9538 -1.0261  0.6827
 1702TP3     H216926   0.913   3.433   7.099  0.8021 -0.8970 -1.0679
 1703TP3      O16927   0.990   1.220   2.081 -0.1854  0.2630  0.1040
 1703TP3     H116928   1.014   1.176   2.162 -0.0913  1.5368  0.7863
 1703TP3     H216929   1.073   1.230   2.034 -0.3267 -1.0473 -0.4693
 1704TP3      O16930   1.800   2.432   0.878 -0.1204  0.1628 -0.0237
 1704TP3     H116931   1.782   2.457   0.787 -0.3150 -0.1546 -0.0740
 1704TP3     H216932   1.860   2.358   0.871  0.1233  0.3456  0.1162
 1705TP3      O16933   4.045   0.330   1.667  0.1676  0.4320 -0.4159
 1705TP3     H116934   4.074   0.416   1.636  1.6493 -0.1646 -0.7627
 1705TP3     H216935   4.064   0.332   1.761  3.2616 -0.5963 -0.8990
 1706TP3      O16936   2.300   4.566   8.893 -0.5022 -0.2492 -0.1992
 1706TP3     H116937   2.300   4.481   8.938  0.6562 -0.5902 -0.8110
 1706TP3     H216938   2.339   4.548   8.808 -0.9034  0.7716 -0.6130
 1707TP3      O16939   3.815   1.398   1.148 -0.7005  0.1154 -0.2897
 1707TP3     H116940   3.909   1.404   1.128 -0.8735  2.5594 -0.7459
 1707TP3     H216941   3.774   1.378   1.064 -0.6511 -0.0325 -0.2782
 1708TP3      O16942   1.682   3.514   7.573  0.4162 -0.3575  0.5891
 1708TP3     H116943   1.745   3.505   7.501 -0.9672 -3.3531 -0.3991
 1708TP3     H216944   1.674   3.426   7.609 -1.0762  0.5300  2.5902
 1709TP3      O16945   2.545   2.219   1.685 -0.4261 -0.1762  0.5111
 1709TP3     H116946   2.557   2.128   1.659 -3.3367 -0.0855 -1.7852
 1709TP3     H216947   2.482   2.215   1.757 -1.3139 -0.0343 -0.2231
 1710TP3      O16948   1.427   0.763   8.293 -0.1551  0.5633  0.4615
 1710TP3     H116949   1.450   0.770   8.201  2.2511 -0.7472  0.9036
 1710TP3     H216950   1.449   0.673   8.317 -0.4677  0.9562  2.3924
 1711TP3      O16951   2.921   4.149   9.594 -0.0395 -0.3539  0.4439
 1711TP3     H116952   2.878   4.110   9.670  0.4828 -1.5597  0.1523
 1711TP3     H216953   2.957   4.231   9.626  1.8068 -1.7008  2.0413
 1712TP3      O16954   3.613   4.438   8.540  0.0052 -0.3506 -0.2006
 1712TP3     H116955   3.570   4.440   8.626 -0.1707  2.0094 -0.2638
 1712TP3     H216956   3.586   4.355   8.501  0.1360 -1.5071  2.0222
 1713TP3      O16957   0.292   0.793   9.511 -0.4067 -0.1022  0.0291
 1713TP3     H116958   0.312   0.703   9.539 -0.4476 -0.1303 -0.0330
 1713TP3     H216959   0.234   0.783   9.436 -0.4066 -0.0231  0.0183
 1714TP3      O16960   1.635   1.158  10.022  0.4730  0.3106 -0.6480
 1714TP3     H116961   1.626   1.209  10.102  0.6169  0.2315 -0.5810
 1714TP3     H216962   1.723   1.121  10.027 -0.3893 -1.7680  0.4004
 1715TP3      O16963   1.427   2.487   7.895 -0.3947  0.2939  0.3359
 1715TP3     H116964   1.510   2.467   7.937 -0.7417  1.1580  1.4902
 1715TP3     H216965   1.428   2.582   7.883 -1.3493  0.3642  0.6929
 1716TP3      O16966   2.212   3.432   0.189  0.1277 -0.3377  0.2303
 1716TP3     H116967   2.227   3.527   0.186 -0.4102 -0.2212  0.7706
 1716TP3     H216968   2.299   3.393   0.182  0.2742  0.1637 -0.9776
 1717TP3      O16969   0.309   0.210   7.720  0.6036  0.1380 -0.4248
 1717TP3     H116970   0.347   0.295   7.743  1.4184 -0.3379  0.0701
 1717TP3     H216971   0.238   0.231   7.660  0.1966  1.2379  0.3908
 1718TP3      O16972   4.703   5.156   0.740 -0.0516  0.1678  0.5825
 1718TP3     H116973   4.657   5.154   0.656  0.0271 -0.7925  0.5530
 1718TP3     H216974   4.768   5.226   0.730 -0.4259  0.4499  0.0586
 1719TP3      O16975   3.958   1.616   8.033 -0.4457 -0.1112  0.1953
 1719TP3     H116976   3.888   1.559   8.000 -0.6779  0.4486 -0.2906
 1719TP3     H216977   3.960   1.689   7.972  1.0740 -0.4857 -0.2366
 1720TP3      O16978   4.111   4.067   0.775 -0.2824 -0.1114  0.3527
 1720TP3     H116979   4.145   4.005   0.710  0.2686  1.0491 -0.5168
 1720TP3     H216980   4.132   4.153   0.738  1.3158  0.6084  2.7036
 1721TP3      O16981   2.864   0.335   9.397  0.6506  0.1947 -0.1462
 1721TP3     H116982   2.858   0.305   9.488  2.6424 -0.9629 -0.3519
 1721TP3     H216983   2.855   0.430   9.403  2.3627  0.3076  1.4568
 1722TP3      O16984   0.114   1.075  10.034 -0.7013 -0.5664 -0.0066
 1722TP3     H116985   0.208   1.061  10.046 -0.3947 -0.0209 -1.5769
 1722TP3     H216986   0.100   1.064   9.940 -2.0071  0.5168  0.0337
 1723TP3      O16987   3.546   3.724   8.613 -0.3921  0.0134  0.1204
 1723TP3     H116988   3.470   3.781   8.598 -0.5040 -0.8423 -3.2718
 1723TP3     H216989   3.508   3.636   8.622  0.1083 -0.2398 -0.2366
 1724TP3      O16990   1.760   1.133   2.204  0.3462 -0.6495  0.2807
 1724TP3     H116991   1.829   1.110   2.142 -0.1729 -2.2139  0.2430
 1724TP3     H216992   1.683   1.149   2.149  0.2631 -0.5710  0.4214
 1725TP3      O16993   0.923   1.985   2.048  0.1630 -0.1509  0.2803
 1725TP3     H116994   0.905   2.065   1.999  1.0323 -0.4423 -0.5400
 1725TP3     H216995   1.014   1.994   2.077 -0.4799  0.2445  2.3194
 1726TP3      O16996   3.288   0.851   7.189  0.7755  0.1571  0.3154
 1726TP3     H116997   3.249   0.931   7.153 -0.2871  0.0429  1.1558
 1726TP3     H216998   3.298   0.793   7.114  0.4868  0.6627 -0.1175
 1727TP3      O16999   4.758   2.046   0.098  0.0053  0.1090 -0.1223
 1727TP3     H117000   4.835   2.102   0.085  0.7101 -0.6172  0.7703
 1727TP3     H217001   4.761   1.983   0.026  1.6602 -1.4381  1.1953
 1728TP3      O17002   2.867   1.758   0.544 -0.4599 -0.0282  0.5578
 1728TP3     H117003   2.829   1.670   0.555  0.5662 -0.2626  3.1043
 1728TP3     H217004   2.804   1.816   0.586 -1.8077  0.7363 -2.3180
 1729TP3      O17005   5.210   3.846   0.827  0.0758  0.4101  0.2055
 1729TP3     H117006   5.143   3.785   0.797  0.0857 -0.2516  1.4638
 1729TP3     H217007   5.224   3.823   0.918  1.1177  1.3709  0.3092
 1730TP3      O17008   4.445   3.662   9.222 -1.0331  0.7930  0.2326
 1730TP3     H117009   4.501   3.585   9.212 -1.6150  0.4704 -0.6597
 1730TP3     H217010   4.502   3.735   9.196 -0.8334  0.5401 -0.0508
 1731TP3      O17011   0.017   1.912   8.475 -0.0261  0.1520 -0.0712
 1731TP3     H117012  -0.027   1.996   8.476 -0.8250 -0.2390  1.6972
 1731TP3     H217013   0.107   1.932   8.500  0.5416  0.7749 -2.3537
 1732TP3      O17014   1.252   5.291   9.181 -0.1455  0.2957 -0.4842
 1732TP3     H117015   1.269   5.244   9.100  0.8150  1.0034 -0.7157
 1732TP3     H217016   1.166   5.260   9.210  0.0195 -0.8292 -1.1502
 1733TP3      O17017   1.056   1.997   2.410  0.0609 -0.5394  0.1317
 1733TP3     H117018   0.998   1.954   2.348  1.2702  1.5751 -2.6926
 1733TP3     H217019   1.006   2.072   2.442  1.1674  1.5518 -2.6541
 1734TP3      O17020   2.559   1.588  10.013 -0.6529 -0.4897  0.1681
 1734TP3     H117021   2.518   1.609   9.929 -0.2512  0.2057  0.1403
 1734TP3     H217022   2.528   1.657  10.072  1.3212  0.7197 -0.1238
 1735TP3      O17023   4.339   4.343   8.203  0.0372  0.4183  0.6909
 1735TP3     H117024   4.320   4.436   8.190  0.4006  0.2233 -1.6671
 1735TP3     H217025   4.426   4.342   8.243 -0.3612  1.0869  1.6144
 1736TP3      O17026   1.647   4.104   2.914 -0.0157 -0.1461 -0.0919
 1736TP3     H117027   1.736   4.098   2.948 -0.9373  1.6864  3.0112
 1736TP3     H217028   1.597   4.040   2.965 -0.5815 -1.1718 -1.8140
 1737TP3      O17029   5.130   2.448   1.533  0.1143 -0.2967  0.0502
 1737TP3     H117030   5.136   2.542   1.545  0.7105 -0.3325  0.0365
 1737TP3     H217031   5.101   2.437   1.442  0.4506 -0.1384 -0.0749
 1738TP3      O17032   2.388   2.388   9.961  0.3659  0.0800  0.1252
 1738TP3     H117033   2.340   2.470   9.957  1.4241  0.6850 -0.4102
 1738TP3     H217034   2.458   2.404  10.024  1.7133  0.2296 -1.3529
 1739TP3      O17035   1.749   3.698   7.826  0.4532  0.0921  0.0695
 1739TP3     H117036   1.731   3.609   7.795 -2.6246  1.5362 -3.0281
 1739TP3     H217037   1.783   3.743   7.749 -1.4029  2.3669  0.4580
 1740TP3      O17038   0.315   4.144   0.797  0.3152  0.6170 -0.1394
 1740TP3     H117039   0.265   4.076   0.751  2.2653 -0.7880 -0.3650
 1740TP3     H217040   0.378   4.094   0.849  2.3644  2.2369 -0.9420
 1741TP3      O17041   2.566   4.195   7.628  0.1893 -0.0318 -0.2340
 1741TP3     H117042   2.586   4.142   7.705 -1.6895 -2.7547 -1.4472
 1741TP3     H217043   2.614   4.153   7.557  1.0526  1.7999 -0.8061
 1742TP3      O17044   4.482   0.197   7.759 -0.1754  0.1535 -0.2192
 1742TP3     H117045   4.495   0.284   7.721  3.0726 -0.0614  0.1005
 1742TP3     H217046   4.438   0.147   7.691  0.5512  1.2952 -1.5707
 1743TP3      O17047   1.165   5.124   0.403  0.0114  0.0373  0.0815
 1743TP3     H117048   1.245   5.174   0.415  0.2052 -0.1442 -0.4265
 1743TP3     H217049   1.190   5.033   0.422  0.2650 -0.2223 -1.3583
 1744TP3      O17050   0.765   0.529   1.438 -0.6199 -0.1537  0.2811
 1744TP3     H117051   0.832   0.464   1.461  0.6964  1.3348  0.8244
 1744TP3     H217052   0.714   0.540   1.519 -1.2466 -0.9501  0.0034
 1745TP3      O17053   4.030   4.348   7.679 -0.3276 -0.1119  0.8042
 1745TP3     H117054   4.086   4.353   7.602  0.6226 -0.2100  1.4619
 1745TP3     H217055   3.943   4.370   7.647 -0.1120 -0.9541 -0.4482
 1746TP3      O17056   1.387   1.517   0.552 -0.1941  0.4713 -0.5950
 1746TP3     H117057   1.356   1.605   0.573 -0.6057  0.6509 -1.8331
 1746TP3     H217058   1.309   1.462   0.557 -0.3717  0.5706 -1.8040
 1747TP3      O17059   1.712   2.705  10.045 -0.0184 -0.0542 -0.1381
 1747TP3     H117060   1.768   2.776  10.012 -0.1552  0.6365  1.0826
 1747TP3     H217061   1.711   2.641   9.973  1.2483  0.5275 -0.7145
 1748TP3      O17062   0.068   5.126   1.756 -0.4536  0.2937 -0.3000
 1748TP3     H117063   0.059   5.038   1.793 -0.9671  1.2396  2.0299
 1748TP3     H217064   0.161   5.133   1.735 -0.2113 -0.4573  0.4453
 1749TP3      O17065   2.145   2.216  10.023 -0.1834  0.2007  0.0361
 1749TP3     H117066   2.231   2.254  10.006  0.1239  0.7805  2.3973
 1749TP3     H217067   2.084   2.275   9.980  0.5710 -0.6219 -2.2990
 1750TP3      O17068   1.935   3.174   1.388 -0.0741  0.1055 -0.0881
 1750TP3     H117069   1.947   3.253   1.442  1.3991 -0.1483 -0.0068
 1750TP3     H217070   1.909   3.208   1.302 -1.9354  0.5366  0.5964
 1751TP3      O17071   3.059   4.260   8.619 -0.2256 -0.3658  0.5107
 1751TP3     H117072   2.999   4.334   8.627 -0.0917 -0.3522  1.6396
 1751TP3     H217073   3.046   4.227   8.530 -0.9428  0.4507  0.3037
 1752TP3      O17074   1.033   3.517   3.002  0.5314 -0.0611  0.0977
 1752TP3     H117075   1.099   3.457   3.036  0.4881 -0.0995  0.1140
 1752TP3     H217076   0.982   3.464   2.941  0.2110 -0.1625  0.4462
 1753TP3      O17077   1.107   1.511   1.111 -0.4146 -0.4173 -0.0679
 1753TP3     H117078   1.119   1.595   1.155 -1.9430 -0.6351  0.8396
 1753TP3     H217079   1.194   1.487   1.081 -0.0021  1.6837 -0.7335
 1754TP3      O17080   3.347   0.155   1.452  0.1608  0.0687 -0.4365
 1754TP3     H117081   3.401   0.218   1.404 -0.8288  0.7903 -0.6162
 1754TP3     H217082   3.284   0.208   1.500 -0.4540 -0.7667 -0.2912
 1755TP3      O17083   1.983   4.823   9.710 -0.3525 -0.3264 -0.6287
 1755TP3     H117084   1.965   4.750   9.769  1.3086  0.1669  0.5723
 1755TP3     H217085   1.898   4.847   9.675 -1.1642 -1.7278  0.2908
 1756TP3      O17086   1.090   1.681   2.103 -0.7040 -0.4487  0.0458
 1756TP3     H117087   1.065   1.774   2.105  2.0123  0.3679  0.2641
 1756TP3     H217088   1.161   1.674   2.167  0.1108 -2.3754 -0.9965
 1757TP3      O17089   1.969   1.476   8.825 -0.6350  0.4269 -0.3616
 1757TP3     H117090   2.024   1.554   8.816 -0.7929  0.5091 -0.6323
 1757TP3     H217091   1.887   1.508   8.862  0.3339 -0.0418  2.4195
 1758TP3      O17092   1.955   2.075   9.176  0.0037  0.1569  0.3157
 1758TP3     H117093   2.043   2.105   9.197 -1.0413  3.1486  0.8068
 1758TP3     H217094   1.966   1.982   9.156  3.2254  0.4067  0.4381
 1759TP3      O17095   1.803   1.557   9.887  0.2539 -0.2453  0.4861
 1759TP3     H117096   1.755   1.602   9.817  1.5066 -0.2846 -0.4173
 1759TP3     H217097   1.742   1.489   9.916 -0.0508 -0.6500 -1.0123
 1760TP3      O17098   5.123   1.856   1.476 -0.7471 -0.3406  0.4647
 1760TP3     H117099   5.132   1.948   1.453  0.5446 -0.2526  1.2320
 1760TP3     H217100   5.206   1.816   1.449 -0.4829 -0.8622  1.9335
 1761TP3      O17101   3.195   3.390   8.487 -0.7503  0.0638 -0.4412
 1761TP3     H117102   3.177   3.332   8.561 -0.9359 -1.6488 -1.7664
 1761TP3     H217103   3.259   3.342   8.434  0.5620  1.9159 -0.6559
 1762TP3      O17104   0.630   1.506   0.151  0.5334 -0.0988 -0.4446
 1762TP3     H117105   0.676   1.529   0.071 -1.8111  3.5554 -0.9601
 1762TP3     H217106   0.688   1.534   0.222  1.0697  0.0378 -0.9352
 1763TP3      O17107   4.030   4.390   9.654  0.4717 -0.1820  0.5766
 1763TP3     H117108   4.045   4.350   9.568 -1.4292  0.7806 -0.2659
 1763TP3     H217109   3.989   4.474   9.634  0.9967  0.5525  2.4205
 1764TP3      O17110   2.892   2.747   9.370 -0.2005 -0.9418 -0.2229
 1764TP3     H117111   2.883   2.668   9.317  2.0349 -2.1513  1.0545
 1764TP3     H217112   2.942   2.719   9.447  0.5890  1.7028  0.3255
 1765TP3      O17113   0.360   1.371   1.604 -0.0126  0.6628  0.0708
 1765TP3     H117114   0.445   1.395   1.643  1.1356  0.6115 -2.2140
 1765TP3     H217115   0.325   1.454   1.573 -0.5522  0.5993  0.4971
 1766TP3      O17116   3.209   0.957   0.529 -0.1867 -0.1618  0.0970
 1766TP3     H117117   3.195   0.889   0.595  0.5733 -0.5658 -0.1533
 1766TP3     H217118   3.294   0.936   0.491 -0.3432  0.4316 -0.5832
 1767TP3      O17119   2.457   1.932   9.030  0.1659  0.0530 -0.2448
 1767TP3     H117120   2.501   2.016   9.019 -2.4736  1.6691  0.7832
 1767TP3     H217121   2.524   1.875   9.069  1.8231  1.8457 -0.3473
 1768TP3      O17122   1.800   2.750   0.352  0.5007  0.2654  0.3063
 1768TP3     H117123   1.890   2.727   0.376 -0.1067 -1.9928  0.5756
 1768TP3     H217124   1.801   2.846   0.348  3.1726  0.2957 -0.7164
 1769TP3      O17125   3.498   3.052   0.538  0.9470  0.7134 -0.4910
 1769TP3     H117126   3.524   3.139   0.569 -1.1435  1.1192  0.3250
 1769TP3     H217127   3.451   3.013   0.612  0.0572 -0.2801 -1.5365
 1770TP3      O17128   2.683   5.158   6.474 -0.0992  0.1813 -0.4654
 1770TP3     H117129   2.717   5.225   6.414  0.4820  0.6775  0.3996
 1770TP3     H217130   2.621   5.205   6.529 -0.0493 -0.1004 -0.1693
 1771TP3      O17131   1.006   1.372   1.519  0.1612 -0.1222 -0.1669
 1771TP3     H117132   0.956   1.430   1.462  1.2342 -0.4867 -1.5737
 1771TP3     H217133   1.015   1.291   1.467  0.4178 -0.8026  0.9089
 1772TP3      O17134   0.728   3.765   9.401  0.1907 -0.0213 -0.3586
 1772TP3     H117135   0.811   3.807   9.379 -0.2268 -0.0224 -2.0713
 1772TP3     H217136   0.686   3.749   9.317 -0.5389 -2.1374  0.3415
 1773TP3      O17137   0.597   3.392   9.601  0.1281 -0.3614  0.5398
 1773TP3     H117138   0.543   3.313   9.597 -0.3065 -0.1194  1.4510
 1773TP3     H217139   0.603   3.412   9.694  0.2633  0.6650  0.3141
 1774TP3      O17140   4.350   0.472   8.211  0.1300 -0.4098 -0.2391
 1774TP3     H117141   4.385   0.506   8.293  3.3336 -0.5544 -1.3873
 1774TP3     H217142   4.405   0.396   8.191 -0.3673 -0.2225 -2.6385
 1775TP3      O17143   0.445   3.941   7.261  0.9250 -0.4555 -0.1424
 1775TP3     H117144   0.363   3.941   7.212  0.0786 -2.1084  1.1884
 1775TP3     H217145   0.512   3.915   7.197  0.3767  0.5658 -1.1505
 1776TP3      O17146   1.187   4.857   8.850  0.3336  0.5218  0.2814
 1776TP3     H117147   1.239   4.804   8.790 -0.2653  0.3050 -0.0466
 1776TP3     H217148   1.249   4.881   8.919  0.8546  0.2084 -0.0653
 1777TP3      O17149   3.526   0.218   2.301  0.2324  0.2151  0.3150
 1777TP3     H117150   3.520   0.295   2.244  1.0795  1.5408  1.9093
 1777TP3     H217151   3.581   0.247   2.374 -3.1408 -0.4096  3.3569
 1778TP3      O17152   3.404   1.486   8.962  0.0761  0.9805  0.3436
 1778TP3     H117153   3.328   1.432   8.983  0.2889  0.4812 -0.1654
 1778TP3     H217154   3.430   1.458   8.875  0.9476  1.0360  0.5783
 1779TP3      O17155   2.001   2.767   8.033  0.1770  0.3418 -0.3730
 1779TP3     H117156   1.998   2.848   8.084  1.2542  0.9968 -1.3074
 1779TP3     H217157   2.088   2.730   8.051 -0.0220 -0.2211 -0.5344
 1780TP3      O17158   0.418   2.383   1.410 -0.1098 -0.5046  0.1163
 1780TP3     H117159   0.385   2.420   1.329  0.5902 -0.6981 -0.2640
 1780TP3     H217160   0.503   2.424   1.423 -0.6316  0.2682  1.2852
 1781TP3      O17161   2.577   3.936   0.512  0.3553  0.1108 -0.0598
 1781TP3     H117162   2.497   3.909   0.559 -0.3343 -0.2477 -1.3994
 1781TP3     H217163   2.645   3.932   0.579 -0.7613  0.5696  1.1717
 1782TP3      O17164   2.788   1.489   0.611  0.2229  0.4330 -0.2142
 1782TP3     H117165   2.797   1.493   0.706  0.2893 -0.3723 -0.1763
 1782TP3     H217166   2.700   1.455   0.597  0.1780  0.6440 -0.4432
 1783TP3      O17167   0.353   4.880   0.256 -0.5120 -0.2440 -0.1734
 1783TP3     H117168   0.277   4.921   0.214 -0.9679  0.8278  1.5924
 1783TP3     H217169   0.424   4.892   0.192 -1.4876  0.0131 -1.2509
 1784TP3      O17170   2.340   5.283   0.309 -0.7846  0.3140 -0.5908
 1784TP3     H117171   2.368   5.205   0.261 -1.8588  0.1421 -0.9468
 1784TP3     H217172   2.416   5.342   0.303 -0.5138 -0.1063 -1.6157
 1785TP3      O17173   1.738   4.522   7.180  0.7097 -0.1539 -0.8983
 1785TP3     H117174   1.692   4.494   7.102  0.8399  1.5348 -1.6388
 1785TP3     H217175   1.791   4.596   7.151 -2.0872  3.1134  1.4362
 1786TP3      O17176   2.844   1.168   7.672  0.2246 -0.6878  0.2937
 1786TP3     H117177   2.825   1.095   7.731 -2.9799  0.5037  0.9743
 1786TP3     H217178   2.758   1.207   7.654  1.3231  0.4865 -3.2851
 1787TP3      O17179   4.444   2.850   8.700  0.4355 -0.8892  0.5439
 1787TP3     H117180   4.422   2.778   8.641  0.0394 -0.2126 -0.1562
 1787TP3     H217181   4.364   2.863   8.752 -0.3700  0.5819 -0.9680
 1788TP3      O17182   5.005   2.903   9.351 -0.1281  0.3701  0.2478
 1788TP3     H117183   5.081   2.883   9.406  1.5819  0.7575 -1.8088
 1788TP3     H217184   5.039   2.965   9.286 -2.3858  1.0016 -0.4126
 1789TP3      O17185   2.786   3.617  10.059 -0.5940  0.2281  0.5094
 1789TP3     H117186   2.851   3.685  10.076  0.1801 -0.2901 -0.3371
 1789TP3     H217187   2.836   3.540  10.034 -1.4217 -0.9104  2.1759
 1790TP3      O17188   1.306   2.995   6.465 -0.0537 -0.0422  0.2096
 1790TP3     H117189   1.243   2.923   6.467  1.8564 -1.8097  0.1929
 1790TP3     H217190   1.260   3.066   6.420 -1.1771 -2.1072 -2.0989
 1791TP3      O17191   0.054   4.067   2.678  0.1535 -0.0218  0.4092
 1791TP3     H117192   0.032   4.096   2.589 -1.1904 -1.6442  0.1436
 1791TP3     H217193  -0.008   4.114   2.734 -0.7912 -0.9372  0.1728
 1792TP3      O17194   1.618   1.922   0.418  0.1868 -0.2555  0.3631
 1792TP3     H117195   1.558   1.849   0.405 -0.4013  0.6358 -2.9819
 1792TP3     H217196   1.582   1.971   0.492 -2.6392 -0.3897 -0.8050
 1793TP3      O17197   1.193   4.091   1.229  0.0707  0.1069 -0.0788
 1793TP3     H117198   1.104   4.123   1.246  0.4368  1.2684 -0.2975
 1793TP3     H217199   1.182   3.997   1.214 -1.1394  0.2575 -0.2178
 1794TP3      O17200   2.484   3.298   7.779  0.2289 -0.1124 -0.4501
 1794TP3     H117201   2.513   3.381   7.742 -0.1261  0.0270 -0.4199
 1794TP3     H217202   2.426   3.262   7.712  0.3023 -0.2883 -0.4189
 1795TP3      O17203   4.325   2.196   9.364  0.1792 -0.0761 -0.2704
 1795TP3     H117204   4.324   2.127   9.431  1.0956  1.7881  1.7987
 1795TP3     H217205   4.233   2.219   9.352  0.0116 -0.3161  0.5004
 1796TP3      O17206   0.052   4.777   9.575 -0.3225  0.1543  0.3324
 1796TP3     H117207   0.092   4.819   9.499  0.5506 -1.2681 -0.0365
 1796TP3     H217208  -0.036   4.753   9.545 -0.8383  1.6391  0.5511
 1797TP3      O17209   3.327   0.699   2.232  0.2633  0.4329  0.2834
 1797TP3     H117210   3.309   0.691   2.326  2.9549  0.3677  0.8890
 1797TP3     H217211   3.320   0.793   2.215 -1.2362  0.3416  0.2732
 1798TP3      O17212   1.345   1.096   3.153 -0.0089  0.3779  0.8507
 1798TP3     H117213   1.356   1.055   3.239 -1.0877 -0.8876  0.4042
 1798TP3     H217214   1.435   1.113   3.124  0.4643 -1.2904  1.2373
 1799TP3      O17215   3.291   3.755   0.775  0.3021  0.4346 -0.0532
 1799TP3     H117216   3.287   3.841   0.817  1.7728 -0.5790  2.3856
 1799TP3     H217217   3.359   3.708   0.823 -0.9613 -2.3823 -0.7998
 1800TP3      O17218   3.418   2.418   9.032 -0.3239 -0.4694 -0.2753
 1800TP3     H117219   3.327   2.388   9.043  0.3674 -2.2792  0.8784
 1800TP3     H217220   3.415   2.511   9.056 -2.2051  0.0713 -2.2146
 1801TP3      O17221   1.395   4.631   9.070 -0.2764  0.1941  0.6426
 1801TP3     H117222   1.367   4.648   9.160  0.6110  0.0743  0.9545
 1801TP3     H217223   1.472   4.686   9.058 -0.4949  0.3449 -0.1080
 1802TP3      O17224   1.790   2.564   9.806  0.5354 -0.1287 -0.2638
 1802TP3     H117225   1.764   2.494   9.747 -1.4538 -0.3188  0.7349
 1802TP3     H217226   1.871   2.599   9.769 -0.1502 -0.8254 -2.5585
 1803TP3      O17227   3.742   4.834   1.226  0.5657  0.4772  0.0938
 1803TP3     H117228   3.681   4.861   1.157  2.3705  2.2748 -0.9138
 1803TP3     H217229   3.770   4.747   1.199 -2.1878 -0.8627  1.1228
 1804TP3      O17230   3.052   4.488   6.928  0.4904 -0.1294 -0.0214
 1804TP3     H117231   3.006   4.422   6.981  0.6394  0.8792  1.4149
 1804TP3     H217232   3.064   4.562   6.987 -0.5113  1.5907 -1.8551
 1805TP3      O17233   0.743   0.033   0.697  0.5320  0.5687 -0.7174
 1805TP3     H117234   0.819   0.058   0.644  1.0297 -1.3902 -1.0235
 1805TP3     H217235   0.779  -0.030   0.761 -0.1471  2.4621  1.6619
 1806TP3      O17236   4.663   3.284   0.573 -0.2215 -0.4119 -0.2749
 1806TP3     H117237   4.627   3.320   0.492  1.9137  2.1899 -0.1864
 1806TP3     H217238   4.736   3.230   0.545 -0.3941 -0.7287 -0.1280
 1807TP3      O17239   0.241   3.729   2.543 -0.0884 -0.0524  0.0724
 1807TP3     H117240   0.287   3.662   2.592 -0.8950 -1.2304 -0.7187
 1807TP3     H217241   0.173   3.760   2.602  1.1388  1.0943  0.9388
 1808TP3      O17242   0.741   2.467   1.938 -0.1084 -0.2244 -0.5706
 1808TP3     H117243   0.732   2.497   1.848 -0.1847 -0.2396 -0.5680
 1808TP3     H217244   0.812   2.403   1.935 -0.9393 -1.1554 -0.8475
 1809TP3      O17245   0.939   4.151   1.314 -0.4115  0.4851 -0.7739
 1809TP3     H117246   0.867   4.214   1.324 -2.2075 -1.7291  1.7024
 1809TP3     H217247   0.931   4.094   1.390  3.4367 -0.5148 -0.9088
 1810TP3      O17248   2.301   1.770   8.566 -0.1020  0.4925  0.2086
 1810TP3     H117249   2.340   1.744   8.483  1.3514  0.8029  0.7663
 1810TP3     H217250   2.357   1.732   8.632  1.0908  3.4434  1.0489
 1811TP3      O17251   1.383   0.627   9.281  0.4972 -0.1962  0.2301
 1811TP3     H117252   1.350   0.682   9.209  1.7676  1.8586  1.1170
 1811TP3     H217253   1.455   0.578   9.242 -0.1763 -0.7003 -0.4021
 1812TP3      O17254   1.126   1.238   8.130  0.7696  0.0177  0.6338
 1812TP3     H117255   1.202   1.298   8.125  0.9428 -0.2331  0.2490
 1812TP3     H217256   1.102   1.240   8.222  3.0231 -2.0843  1.3704
 1813TP3      O17257   1.036   2.455   7.270 -0.1132  0.3895  0.2190
 1813TP3     H117258   0.966   2.470   7.333 -1.0383  0.9804 -0.8863
 1813TP3     H217259   1.002   2.493   7.188  1.3213  0.2896 -0.4544
 1814TP3      O17260   2.217   0.229   9.805  0.1993  0.1909 -0.0060
 1814TP3     H117261   2.202   0.281   9.883  0.4821  0.4642 -0.1300
 1814TP3     H217262   2.288   0.169   9.829 -0.0436 -0.0585  0.0985
 1815TP3      O17263   1.032   1.101   0.413  0.8812  0.3090  0.4095
 1815TP3     H117264   0.987   1.170   0.365 -0.0013  0.9141  2.0260
 1815TP3     H217265   1.045   1.031   0.349 -0.9547  0.7588 -0.4990
 1816TP3      O17266   2.577   0.544  10.102 -0.6643  0.3600 -0.1530
 1816TP3     H117267   2.563   0.637  10.120  0.6235  0.5314  0.0731
 1816TP3     H217268   2.668   0.539  10.075 -1.6227 -0.3446 -3.7303
 1817TP3      O17269   2.602   2.815   6.434 -0.2595  0.2397 -0.1552
 1817TP3     H117270   2.570   2.892   6.480 -0.4403 -0.3810  0.7851
 1817TP3     H217271   2.539   2.746   6.455  0.0702 -0.2521 -0.7215
 1818TP3      O17272   4.063   1.354   0.694  0.1991  0.4931  0.3316
 1818TP3     H117273   4.094   1.444   0.702  0.8773  0.2463  0.5942
 1818TP3     H217274   3.969   1.362   0.680  0.4746  1.2968 -1.2704
 1819TP3      O17275   4.141   2.084   7.418  0.1829  0.3638 -0.0322
 1819TP3     H117276   4.175   2.121   7.337  1.6394  3.6913  1.8790
 1819TP3     H217277   4.189   2.130   7.487 -1.8257 -1.3922  2.7482
 1820TP3      O17278   2.257   4.649   1.261  0.6326  0.3134 -0.0682
 1820TP3     H117279   2.229   4.637   1.352  1.0147 -0.0747  0.0055
 1820TP3     H217280   2.332   4.590   1.252  0.4673  0.1937 -0.6979
 1821TP3      O17281   0.125   4.972   8.939 -0.0188 -0.6698 -0.0640
 1821TP3     H117282   0.155   4.960   8.848 -0.4436  1.6632 -0.5734
 1821TP3     H217283   0.103   5.065   8.945  2.1336 -0.1985  3.0782
 1822TP3      O17284   2.193   3.484   8.503  0.4189 -0.7594 -0.3514
 1822TP3     H117285   2.217   3.417   8.439  1.9280 -1.1609  0.5731
 1822TP3     H217286   2.231   3.565   8.469  0.6534 -0.8457 -0.2986
 1823TP3      O17287   3.780   3.184   2.498  0.0679 -0.1435 -0.5615
 1823TP3     H117288   3.770   3.203   2.405  1.3989  2.8869 -0.2343
 1823TP3     H217289   3.718   3.244   2.541  0.6950 -0.2423  0.5237
 1824TP3      O17290   0.419   0.605   0.362 -0.6359  0.7340  0.2515
 1824TP3     H117291   0.485   0.673   0.352 -0.2782  0.2464 -0.8916
 1824TP3     H217292   0.445   0.536   0.300 -1.7919  0.2029  0.3173
 1825TP3      O17293   0.532   2.642   6.330  0.1110  0.4672 -0.4666
 1825TP3     H117294   0.464   2.693   6.374 -0.0362 -0.2724  0.1860
 1825TP3     H217295   0.485   2.585   6.270 -0.0379 -1.2447  1.1750
 1826TP3      O17296   1.004   0.002   7.922 -0.2862 -0.5011  0.0629
 1826TP3     H117297   1.073   0.027   7.985  1.1130 -0.6138 -1.3529
 1826TP3     H217298   1.001  -0.093   7.926  0.5324 -0.5742 -0.7415
 1827TP3      O17299   3.120   2.596   0.492  0.1572 -0.0638 -0.3151
 1827TP3     H117300   3.209   2.589   0.527 -0.0938  1.8951  0.8181
 1827TP3     H217301   3.129   2.650   0.414 -0.1941  1.2821  0.5543
 1828TP3      O17302   0.710   0.609   9.667  0.2430  0.7290 -0.1452
 1828TP3     H117303   0.686   0.624   9.758 -0.3903  1.8430 -0.4683
 1828TP3     H217304   0.718   0.514   9.658 -2.6351  0.3622  0.3501
 1829TP3      O17305   0.455   4.850   0.614 -0.4122 -0.2869 -0.0420
 1829TP3     H117306   0.450   4.928   0.668  0.6393 -0.3529  0.1758
 1829TP3     H217307   0.539   4.809   0.638 -0.9297 -1.4693 -0.1573
 1830TP3      O17308   1.586   1.950   9.303  0.5904  1.0087 -0.1958
 1830TP3     H117309   1.656   1.997   9.257 -0.3370  1.6151 -1.0116
 1830TP3     H217310   1.538   1.904   9.234  0.6587 -0.0656  0.4468
 1831TP3      O17311   0.866   2.494   7.459 -0.1453 -0.5243  0.4841
 1831TP3     H117312   0.795   2.434   7.480 -0.0436 -0.5128  0.8694
 1831TP3     H217313   0.864   2.559   7.529  0.8816 -1.0840  1.0498
 1832TP3      O17314   3.414   1.541   7.742  0.0346  0.8215  0.2038
 1832TP3     H117315   3.374   1.587   7.667 -1.9706  1.5888  1.6328
 1832TP3     H217316   3.490   1.497   7.705  1.7277  4.6579 -1.4985
 1833TP3      O17317   3.764   4.088   0.766 -0.2531 -0.3185 -0.1429
 1833TP3     H117318   3.855   4.107   0.743 -0.1187 -0.5567  0.1927
 1833TP3     H217319   3.737   4.022   0.702 -0.4284  0.2990 -0.7198
 1834TP3      O17320   2.460   2.983   7.446  0.0035 -0.1037  0.0815
 1834TP3     H117321   2.405   2.974   7.369  1.2352 -0.7889 -0.7492
 1834TP3     H217322   2.498   3.071   7.439 -0.3487  0.0646  0.2397
 1835TP3      O17323   2.200   1.394   9.289 -0.3300  0.0433 -0.4922
 1835TP3     H117324   2.232   1.304   9.294  1.2218  0.3859 -2.9566
 1835TP3     H217325   2.139   1.401   9.362  0.7808 -2.4774  0.8088
 1836TP3      O17326   3.982   3.575   9.033  0.3206  0.0662  0.2416
 1836TP3     H117327   4.040   3.644   9.002  0.7219 -0.1897  0.4074
 1836TP3     H217328   3.957   3.527   8.954  0.7950 -0.1700  0.2304
 1837TP3      O17329   4.758   4.250   9.433  0.2112  0.2836 -0.0380
 1837TP3     H117330   4.757   4.223   9.341  0.1676  1.6479 -0.4621
 1837TP3     H217331   4.699   4.189   9.477 -1.8496  1.1977 -1.3980
 1838TP3      O17332   2.357   2.750   1.330 -0.2259  0.0282  0.1292
 1838TP3     H117333   2.389   2.802   1.256 -2.6392  1.0251 -0.3106
 1838TP3     H217334   2.345   2.814   1.400  1.1101 -0.7511  1.1067
 1839TP3      O17335   2.802   3.647   9.328 -0.7574  0.1575 -0.8611
 1839TP3     H117336   2.761   3.691   9.403 -1.9177 -1.9783 -0.1584
 1839TP3     H217337   2.845   3.718   9.280 -1.4082  1.8472  0.8902
 1840TP3      O17338   5.051   1.155   0.766 -0.0681 -0.0823 -0.1454
 1840TP3     H117339   5.035   1.231   0.709  1.8676  0.3068 -0.2277
 1840TP3     H217340   5.142   1.131   0.748  0.0982 -0.9007  1.6678
 1841TP3      O17341   2.223   2.254   8.818 -0.1075  0.4765  0.2290
 1841TP3     H117342   2.247   2.277   8.728  2.1509 -0.7793  0.4374
 1841TP3     H217343   2.227   2.337   8.866 -1.7054  1.2240 -0.8609
 1842TP3      O17344   3.302   4.950   2.470  0.0268 -0.1767 -0.1442
 1842TP3     H117345   3.373   4.966   2.409 -1.4245  1.6974 -1.4750
 1842TP3     H217346   3.286   5.035   2.512 -1.7576 -0.3719 -0.3224
 1843TP3      O17347   2.307   4.090   7.530 -0.4818  0.3102  0.0697
 1843TP3     H117348   2.243   4.073   7.460  0.8063  0.2184 -1.1252
 1843TP3     H217349   2.376   4.025   7.516 -0.4364 -0.0616  1.7763
 1844TP3      O17350   3.188   1.598   8.656 -0.2076 -0.2492 -0.3017
 1844TP3     H117351   3.280   1.598   8.684 -0.5582 -0.2621  0.8972
 1844TP3     H217352   3.152   1.680   8.690 -0.7176 -0.3856 -0.5060
 1845TP3      O17353   3.317   3.793   9.209  0.1253  0.2218 -0.0853
 1845TP3     H117354   3.367   3.712   9.200 -1.5457 -0.8865  0.0455
 1845TP3     H217355   3.266   3.800   9.128  0.6480  1.4495 -0.3310
 1846TP3      O17356   4.098   4.026   1.329  0.3783 -0.3671 -0.5131
 1846TP3     H117357   4.021   4.025   1.385  0.3666  0.6882 -0.4875
 1846TP3     H217358   4.063   4.019   1.240  0.3968 -2.0321 -0.4222
 1847TP3      O17359   0.206   3.787   6.404 -0.1169  0.3726 -0.2827
 1847TP3     H117360   0.229   3.871   6.443 -0.6440  0.5130 -0.2648
 1847TP3     H217361   0.286   3.735   6.410  0.3909  1.0787 -0.8600
 1848TP3      O17362   5.129   3.900   8.714  0.2985 -0.1418 -0.3776
 1848TP3     H117363   5.183   3.894   8.635 -1.4379  0.2330 -1.6668
 1848TP3     H217364   5.175   3.963   8.770  1.8237 -0.8001 -0.8380
 1849TP3      O17365   4.239   3.730   9.713 -0.6119  0.1237 -0.1392
 1849TP3     H117366   4.257   3.821   9.736 -0.1595  0.0798 -0.3118
 1849TP3     H217367   4.325   3.693   9.694 -0.6441 -0.6864  1.1792
 1850TP3      O17368   2.424   0.606   3.650  0.0181 -0.3930  0.3873
 1850TP3     H117369   2.464   0.520   3.642 -1.0709 -0.9033  0.2474
 1850TP3     H217370   2.494   0.667   3.629  1.0937 -1.1878  1.5291
 1851TP3      O17371   2.747   4.310   3.230  0.0052  0.2116  0.1497
 1851TP3     H117372   2.800   4.385   3.258  2.0572 -0.9427 -0.4887
 1851TP3     H217373   2.767   4.241   3.293  0.1808 -0.6100 -0.7871
 1852TP3      O17374   0.286   2.279   7.477 -0.4066  0.6978 -0.4522
 1852TP3     H117375   0.345   2.248   7.409  0.5884 -0.1481  0.7381
 1852TP3     H217376   0.230   2.203   7.497  0.6469  0.2595  1.0258
 1853TP3      O17377   2.057   2.363   0.182  0.1272  0.3638 -0.1675
 1853TP3     H117378   2.070   2.416   0.103 -0.9337  2.0629  0.7302
 1853TP3     H217379   2.000   2.292   0.153 -0.5340  1.1474 -0.8878
 1854TP3      O17380   4.695   2.017   9.150  0.2142 -0.5765  0.7848
 1854TP3     H117381   4.698   2.076   9.075  0.8697 -1.2202  0.2863
 1854TP3     H217382   4.740   2.065   9.220  1.3435 -0.7396  0.1895
 1855TP3      O17383   5.040   0.830   1.083  0.3245 -0.0289 -0.0811
 1855TP3     H117384   5.133   0.810   1.072  0.4385  0.1727  0.4663
 1855TP3     H217385   5.028   0.833   1.178 -0.2392 -0.0442 -0.1529
 1856TP3      O17386   4.027   0.845   7.882 -0.0585  0.4728 -0.2667
 1856TP3     H117387   4.115   0.856   7.847  0.2788 -0.3703  0.2902
 1856TP3     H217388   4.036   0.855   7.976 -0.4119 -0.4185 -0.1261
 1857TP3      O17389   5.256   2.189   7.784 -0.2720  0.2943 -0.3305
 1857TP3     H117390   5.330   2.200   7.843  0.0558 -0.3914 -0.5924
 1857TP3     H217391   5.284   2.230   7.702 -0.1454 -0.0174 -0.4481
 1858TP3      O17392   2.306   5.010   0.202 -0.2413  0.2902 -0.4012
 1858TP3     H117393   2.267   4.940   0.254  0.7735  0.7644  1.0580
 1858TP3     H217394   2.299   4.979   0.112  0.3088 -1.7651  0.2021
 1859TP3      O17395   4.105   0.772   9.826  0.0014  0.8187 -0.2977
 1859TP3     H117396   4.086   0.807   9.739  0.9291  1.2224 -0.3439
 1859TP3     H217397   4.177   0.826   9.859  1.9717 -1.4441 -0.6503
 1860TP3      O17398   4.496   1.559   9.264  0.7438 -0.5204 -0.2204
 1860TP3     H117399   4.406   1.576   9.294 -0.1838 -1.3085 -2.3576
 1860TP3     H217400   4.551   1.594   9.334 -1.1990  0.8490  0.7298
 1861TP3      O17401   1.545   3.637   9.636  1.1097 -0.0624  0.0646
 1861TP3     H117402   1.526   3.731   9.644  0.7444 -0.1928  0.8083
 1861TP3     H217403   1.558   3.623   9.542  2.1708  0.9196  0.0405
 1862TP3      O17404   0.952   5.247   1.573 -0.4743 -0.4700 -0.1033
 1862TP3     H117405   1.025   5.275   1.518 -1.8894  1.5152 -1.0955
 1862TP3     H217406   0.918   5.168   1.531  2.2030 -2.6679  1.4817
 1863TP3      O17407   0.200   4.790   0.864  0.2181  0.2680 -0.3629
 1863TP3     H117408   0.157   4.829   0.788  0.5317 -0.3810 -0.8874
 1863TP3     H217409   0.290   4.822   0.860  0.3962 -0.2479 -0.6225
 1864TP3      O17410   1.648   4.409   8.794 -0.0170 -0.5121  0.1843
 1864TP3     H117411   1.657   4.382   8.885  0.6126  0.4146  0.4138
 1864TP3     H217412   1.628   4.328   8.747  2.9384 -1.6590  0.6770
 1865TP3      O17413   3.710   1.107   9.105 -0.4793 -0.2019  0.2004
 1865TP3     H117414   3.746   1.167   9.170 -1.0484 -0.1040  0.4392
 1865TP3     H217415   3.772   1.108   9.033 -1.0481  1.5728 -0.3168
 1866TP3      O17416   5.013   4.428   0.771 -0.2378  0.2516  0.3663
 1866TP3     H117417   4.961   4.410   0.693 -0.4859  0.9865  0.3491
 1866TP3     H217418   4.949   4.460   0.835 -0.1309 -0.9285  1.0816
 1867TP3      O17419   2.468   1.447   8.628 -0.8139  0.4330  0.0192
 1867TP3     H117420   2.398   1.402   8.676 -0.3081  0.3573  0.7077
 1867TP3     H217421   2.434   1.456   8.539 -0.9055 -1.3979 -0.1754
 1868TP3      O17422   1.857   3.544   1.485 -0.0140  0.1105  0.0525
 1868TP3     H117423   1.861   3.521   1.393  0.0287 -0.6822  0.2500
 1868TP3     H217424   1.827   3.635   1.486  0.2751  0.2158 -0.7493
 1869TP3      O17425   0.516   3.247   7.485 -0.4217  0.2233  0.1000
 1869TP3     H117426   0.547   3.179   7.545 -0.6383  1.2067  1.3485
 1869TP3     H217427   0.588   3.311   7.482 -0.6724  0.4952 -0.1998
 1870TP3      O17428   3.148   1.814   1.857  0.0924 -0.2410 -0.1440
 1870TP3     H117429   3.095   1.876   1.807 -2.2317 -1.0754  1.1490
 1870TP3     H217430   3.194   1.867   1.921  1.8508  0.6374 -1.9992
 1871TP3      O17431   5.283   1.610   8.145 -0.0827 -1.2325 -0.1888
 1871TP3     H117432   5.263   1.558   8.067  0.3262 -0.2244 -0.9947
 1871TP3     H217433   5.296   1.699   8.111 -2.8937 -0.1057  1.3702
 1872TP3      O17434   0.758   1.050   2.016 -0.1301 -0.4377  0.0855
 1872TP3     H117435   0.841   1.094   2.005  0.6288 -1.9934 -0.8510
 1872TP3     H217436   0.710   1.069   1.935 -0.2370 -0.4349  0.1497
 1873TP3      O17437   4.936   4.722   8.136 -0.5801 -0.4803  0.1561
 1873TP3     H117438   5.006   4.665   8.105  0.7449  1.1770 -0.0732
 1873TP3     H217439   4.953   4.732   8.230 -1.1256 -0.8718  0.3023
 1874TP3      O17440   4.934   3.871   6.955  0.0888  0.0813  0.0605
 1874TP3     H117441   4.925   3.778   6.979 -1.1270  0.1689  0.0111
 1874TP3     H217442   4.990   3.908   7.023 -1.5328 -0.1468  1.5984
 1875TP3      O17443   1.370   1.174   0.853 -0.2198  0.1563  0.1881
 1875TP3     H117444   1.391   1.092   0.899 -2.0632  0.8987  2.5472
 1875TP3     H217445   1.298   1.150   0.795 -0.8465  0.1017  0.9711
 1876TP3      O17446   2.796   1.580   9.716  0.1619  0.3942  0.3265
 1876TP3     H117447   2.839   1.549   9.637  2.4443  1.4438  1.0757
 1876TP3     H217448   2.727   1.639   9.686  1.4860  1.3732 -0.8777
 1877TP3      O17449   2.117   4.984   1.700 -0.4869 -0.2751 -0.4952
 1877TP3     H117450   2.045   5.035   1.662 -0.3035 -0.0236 -0.5117
 1877TP3     H217451   2.078   4.939   1.774 -0.8051 -0.6212 -0.8719
 1878TP3      O17452   4.986   3.335   2.517  0.5053 -0.3941  0.2569
 1878TP3     H117453   5.048   3.343   2.444 -0.0037 -0.7380 -0.2182
 1878TP3     H217454   5.014   3.402   2.579  3.1734 -2.4020  1.4133
 1879TP3      O17455   1.119   4.839   0.926 -0.4756  0.1349 -0.1463
 1879TP3     H117456   1.174   4.879   0.860 -1.7939  1.0215 -0.7602
 1879TP3     H217457   1.029   4.854   0.895 -1.1006 -0.2437  1.3730
 1880TP3      O17458   1.064   2.660   9.175 -0.2229 -0.2453  0.1578
 1880TP3     H117459   1.027   2.639   9.261 -0.0730 -0.8864  0.0723
 1880TP3     H217460   1.051   2.754   9.166 -0.0989 -0.1425  0.9510
 1881TP3      O17461   0.918   4.200   9.536 -0.1302  0.2908  0.4303
 1881TP3     H117462   0.844   4.211   9.477  0.3143 -1.4545 -0.5197
 1881TP3     H217463   0.993   4.184   9.479  1.0277  1.9426  1.3670
 1882TP3      O17464   5.068   5.244   9.024 -0.1854 -0.0229 -0.0887
 1882TP3     H117465   5.021   5.186   9.084 -0.2985  0.3499  0.1825
 1882TP3     H217466   5.120   5.301   9.080 -0.8456  0.8122 -0.3053
 1883TP3      O17467   4.552   5.186   0.065 -0.2270  0.3071 -0.2174
 1883TP3     H117468   4.626   5.141   0.106 -0.5518  0.1961  0.2676
 1883TP3     H217469   4.588   5.225  -0.014  0.4697  0.6803  0.2718
 1884TP3      O17470   2.593   3.429   9.875 -0.0506 -0.3191  0.2449
 1884TP3     H117471   2.547   3.468   9.801  1.3605 -0.8649 -0.9676
 1884TP3     H217472   2.686   3.437   9.854  0.4830  0.7152  2.6028
 1885TP3      O17473   4.477   1.915   8.557  0.1450 -0.6156  0.2363
 1885TP3     H117474   4.403   1.859   8.533  1.7969 -2.8728  0.0870
 1885TP3     H217475   4.552   1.855   8.561  1.8498  1.4504  1.0637
 1886TP3      O17476   1.409   3.012   9.693 -0.6029 -0.4216  0.4943
 1886TP3     H117477   1.481   2.951   9.675 -0.4088 -0.0444 -0.0440
 1886TP3     H217478   1.333   2.974   9.648 -0.4012 -0.1022 -0.1332
 1887TP3      O17479   2.274   2.485   7.298  0.1427  0.2175 -0.0998
 1887TP3     H117480   2.199   2.428   7.317 -0.0143  0.8188  1.1867
 1887TP3     H217481   2.330   2.432   7.241 -1.5055 -0.0455 -1.5904
 1888TP3      O17482   0.318   2.140   9.188 -0.1725  0.2157  0.2245
 1888TP3     H117483   0.250   2.080   9.158 -0.0271  0.1516  0.0189
 1888TP3     H217484   0.384   2.083   9.228  0.5430  0.1104 -1.0527
 1889TP3      O17485   3.356   1.192   7.265 -0.7310  0.2099 -0.2802
 1889TP3     H117486   3.355   1.140   7.345 -0.2318  1.5629  0.6369
 1889TP3     H217487   3.299   1.144   7.205 -0.9432 -0.9452  0.8058
 1890TP3      O17488   3.122   1.840   8.784  0.3215 -0.4338 -0.0776
 1890TP3     H117489   3.106   1.853   8.877 -0.5469  2.1554 -0.5230
 1890TP3     H217490   3.172   1.916   8.756  2.1371 -2.0126 -1.4382
 1891TP3      O17491   2.724   0.267   7.835  0.1145  0.4069 -0.0207
 1891TP3     H117492   2.781   0.249   7.760  0.5260  0.1158  0.3557
 1891TP3     H217493   2.638   0.282   7.796  0.7283  2.3760 -0.7384
 1892TP3      O17494   3.669   1.042   7.038  0.3114  0.1772  0.1682
 1892TP3     H117495   3.573   1.047   7.041  0.3763  1.6506  2.6657
 1892TP3     H217496   3.695   1.117   6.985  0.1006  1.2487  1.5287
 1893TP3      O17497   0.812   4.019   1.571  0.0869 -0.4073 -0.0763
 1893TP3     H117498   0.891   3.988   1.527  0.4171  0.3703 -0.0408
 1893TP3     H217499   0.786   3.945   1.627  0.3926 -0.9218 -0.6026
 1894TP3      O17500   4.582   3.479   7.870 -0.1853 -0.3460 -0.1928
 1894TP3     H117501   4.514   3.540   7.900 -0.1769 -0.4398  0.0198
 1894TP3     H217502   4.533   3.410   7.825 -0.1188  0.3499 -1.3651
 1895TP3      O17503   4.493   1.032   0.762  0.2541 -0.8363  0.1771
 1895TP3     H117504   4.543   1.108   0.794 -0.2426 -0.7054  0.6424
 1895TP3     H217505   4.435   1.009   0.834 -0.7336 -0.6649 -0.5451
 1896TP3      O17506   0.342   4.060  10.030  0.5523  0.2064  0.4179
 1896TP3     H117507   0.262   4.113  10.028 -0.9694 -1.9039  1.6358
 1896TP3     H217508   0.365   4.049   9.938 -0.1003  1.4506  0.0718
 1897TP3      O17509   2.147   3.465   6.931 -0.2570  0.0783 -0.4132
 1897TP3     H117510   2.157   3.560   6.933  0.4328 -0.0063  0.6997
 1897TP3     H217511   2.168   3.437   7.020 -0.9314 -1.0725 -0.6017
 1898TP3      O17512   2.090   4.106   8.383  0.2505 -0.1887 -0.1840
 1898TP3     H117513   2.169   4.119   8.436 -0.2639 -0.5509  0.7067
 1898TP3     H217514   2.095   4.014   8.356  0.5881  0.0361 -0.9116
 1899TP3      O17515   4.442   1.257   7.790 -0.1588 -0.0486  0.8416
 1899TP3     H117516   4.497   1.191   7.748 -0.2289  0.1429  0.4470
 1899TP3     H217517   4.482   1.341   7.767  1.0139  0.0086  2.8632
 1900TP3      O17518   3.392   2.865   7.279 -0.4005 -0.3626 -0.2659
 1900TP3     H117519   3.456   2.871   7.207  0.1377  0.1995  0.2456
 1900TP3     H217520   3.442   2.832   7.353 -1.1060 -1.5682 -0.3146
 1901TP3      O17521   2.663   0.966   2.473 -0.0168 -0.1767 -0.4500
 1901TP3     H117522   2.645   1.053   2.438 -1.4066 -0.0651  0.4723
 1901TP3     H217523   2.741   0.937   2.425  0.3236  1.4518 -0.9560
 1902TP3      O17524   1.757   3.140   8.420 -0.1985 -0.3172  0.3579
 1902TP3     H117525   1.678   3.163   8.469 -1.0929  1.5293 -1.7585
 1902TP3     H217526   1.726   3.124   8.331  1.7826  0.1633 -0.4669
 1903TP3      O17527   2.776   3.561   7.907 -0.0619  0.4961 -0.0207
 1903TP3     H117528   2.869   3.544   7.893 -0.2359 -0.0644 -0.5709
 1903TP3     H217529   2.763   3.547   8.001  0.9905  3.5618  0.7124
 1904TP3      O17530   4.160   3.889   2.401  0.0982  0.3169 -0.0034
 1904TP3     H117531   4.099   3.865   2.471 -1.3962  3.2189 -0.1597
 1904TP3     H217532   4.208   3.964   2.436  0.8999  0.4562 -1.3286
 1905TP3      O17533   4.775   4.745   7.359 -0.1011  0.6547 -0.1933
 1905TP3     H117534   4.759   4.651   7.346  1.4110 -0.0287  2.2004
 1905TP3     H217535   4.848   4.765   7.301 -0.4538  0.4006 -0.7449
 1906TP3      O17536   0.762   1.374   2.086  0.3805  0.1273 -0.1261
 1906TP3     H117537   0.837   1.316   2.074 -0.0506 -1.6109  3.9914
 1906TP3     H217538   0.779   1.418   2.170 -2.4166  0.9330  0.1118
 1907TP3      O17539   3.079   1.448   0.110 -0.1420 -0.0794  0.3641
 1907TP3     H117540   3.116   1.450   0.198 -0.4123 -1.6941  0.5380
 1907TP3     H217541   2.994   1.492   0.119  0.4367  1.0137  0.5921
 1908TP3      O17542   2.420   4.919   7.955 -0.2355  0.2831 -0.9699
 1908TP3     H117543   2.448   4.845   8.009  0.3359  0.3801 -1.1243
 1908TP3     H217544   2.353   4.963   8.007 -0.1335  0.0136 -0.6090
 1909TP3      O17545   4.658   5.003   0.293  0.4043  0.0043 -0.4732
 1909TP3     H117546   4.605   5.075   0.327  0.6947  0.5572 -1.1588
 1909TP3     H217547   4.637   4.928   0.349  0.6385  0.8066  0.7197
 1910TP3      O17548   2.144   3.410   6.646 -0.1450  0.3875 -0.0667
 1910TP3     H117549   2.229   3.401   6.601 -1.0732  1.6203 -2.2034
 1910TP3     H217550   2.166   3.453   6.729  1.1735  2.4394 -1.3761
 1911TP3      O17551   2.776   0.894   1.374  0.5215 -0.0132  0.4181
 1911TP3     H117552   2.779   0.859   1.463  0.5578  0.0061  0.4242
 1911TP3     H217553   2.814   0.826   1.320  1.6754  0.4871  0.5732
 1912TP3      O17554   4.593   3.117   7.701 -0.6649 -0.1618  1.2263
 1912TP3     H117555   4.671   3.161   7.669  0.0457 -1.9853  0.2648
 1912TP3     H217556   4.527   3.186   7.707 -0.0238  0.8286 -1.4972
 1913TP3      O17557   0.861   1.822   2.257  0.0220  0.0896  0.2715
 1913TP3     H117558   0.765   1.817   2.258  0.0311 -0.0259  0.7537
 1913TP3     H217559   0.881   1.870   2.176 -0.3945 -0.7541 -0.3465
 1914TP3      O17560   0.259   0.592   1.868  0.0236  0.4235  0.5723
 1914TP3     H117561   0.238   0.607   1.775 -2.3348 -1.3460  0.7289
 1914TP3     H217562   0.343   0.546   1.866 -0.2094 -0.0003 -0.7306
 1915TP3      O17563   3.700   2.893   1.516 -0.0292  0.5402 -0.1355
 1915TP3     H117564   3.660   2.806   1.519 -1.4420  1.1678 -0.0434
 1915TP3     H217565   3.668   2.937   1.594  1.8584  0.6928  0.6216
 1916TP3      O17566   0.702   5.208   8.070 -0.6672 -0.3782 -0.1150
 1916TP3     H117567   0.765   5.224   7.999  0.0921 -0.6036  0.4913
 1916TP3     H217568   0.648   5.287   8.072  0.4141  0.3709  0.1807
 1917TP3      O17569   1.897   2.974   7.373  0.0655  0.2801  0.5450
 1917TP3     H117570   1.941   2.938   7.296 -0.1775  0.5955  0.2519
 1917TP3     H217571   1.842   2.903   7.405 -0.7136  0.4938 -0.2608
 1918TP3      O17572   2.410   2.322   2.328 -0.0986 -0.2409  0.3013
 1918TP3     H117573   2.358   2.401   2.340 -2.2609 -1.4195 -0.6169
 1918TP3     H217574   2.350   2.251   2.352  0.5899 -1.7576 -2.1215
 1919TP3      O17575   3.561   2.582   7.248  0.5796 -0.4660  0.1003
 1919TP3     H117576   3.603   2.502   7.216 -0.2017 -0.4879 -0.9005
 1919TP3     H217577   3.582   2.648   7.182 -2.8004 -0.9860 -1.7098
 1920TP3      O17578   3.784   3.529   9.221 -0.0981  0.3392  0.5817
 1920TP3     H117579   3.721   3.544   9.150 -1.1580 -1.4652  1.0829
 1920TP3     H217580   3.869   3.544   9.180 -0.7011 -0.3278 -1.0015
 1921TP3      O17581   2.520   1.714   1.958 -0.0088 -0.2351 -0.2325
 1921TP3     H117582   2.466   1.651   1.909 -0.1252 -0.2586 -0.0759
 1921TP3     H217583   2.609   1.682   1.948 -0.2580 -1.6652  1.6332
 1922TP3      O17584   0.324   2.463   8.171  0.3753 -0.2126  0.2960
 1922TP3     H117585   0.255   2.523   8.201 -0.6555 -0.6413 -1.0942
 1922TP3     H217586   0.303   2.380   8.214  0.6889 -0.0626  0.7434
 1923TP3      O17587   2.034   2.264   0.777 -0.2515  0.0355  0.0491
 1923TP3     H117588   2.082   2.243   0.857 -1.1251 -0.2192  0.5231
 1923TP3     H217589   2.073   2.207   0.710  1.7539  1.5807 -0.1836
 1924TP3      O17590   4.782   3.265   9.435  0.1562 -0.1417 -0.4317
 1924TP3     H117591   4.731   3.297   9.509  1.7624 -2.6025  1.9395
 1924TP3     H217592   4.873   3.273   9.463  0.9595  0.7739 -3.0493
 1925TP3      O17593   0.328   5.097   0.487 -0.0141  0.3455  0.4264
 1925TP3     H117594   0.325   5.027   0.422 -0.9303  2.8889 -2.5011
 1925TP3     H217595   0.254   5.078   0.546 -1.1296 -0.4019 -1.1456
 1926TP3      O17596   3.860   3.369   9.443 -0.0044  0.7329  0.5864
 1926TP3     H117597   3.883   3.454   9.403 -3.4690  1.3145 -0.4938
 1926TP3     H217598   3.914   3.306   9.395  2.9450  2.2307  1.6630
 1927TP3      O17599   1.247   0.402   9.148  0.3005  0.0157  0.0997
 1927TP3     H117600   1.309   0.344   9.192  1.0559 -0.8400 -1.9183
 1927TP3     H217601   1.248   0.482   9.200  0.0436 -1.3637  2.3666
 1928TP3      O17602   0.796   2.870   7.188  0.1947  0.1806  0.0352
 1928TP3     H117603   0.851   2.818   7.129  1.1213 -0.3261  1.3012
 1928TP3     H217604   0.798   2.958   7.151  0.6705 -0.1415 -0.7367
 1929TP3      O17605   3.286   4.452   7.147  0.3218  0.1008 -0.3316
 1929TP3     H117606   3.375   4.431   7.174 -0.3421 -1.5395  0.7381
 1929TP3     H217607   3.296   4.485   7.058  1.8665 -1.7352 -0.9234
 1930TP3      O17608   3.458   0.863   7.418  0.0501 -0.0039 -0.3070
 1930TP3     H117609   3.405   0.868   7.339 -1.3726 -0.7927  0.5635
 1930TP3     H217610   3.469   0.769   7.434  1.1502  0.1483 -0.1044
 1931TP3      O17611   2.389   0.870   7.360 -0.0193 -0.4215  0.2430
 1931TP3     H117612   2.336   0.826   7.294  0.3364 -0.5275  0.0288
 1931TP3     H217613   2.347   0.848   7.443  0.5787 -1.7652  0.2046
 1932TP3      O17614   0.125   4.125   7.739 -0.2528  0.4161  0.1269
 1932TP3     H117615   0.147   4.164   7.654  5.3671 -0.2147  0.8994
 1932TP3     H217616   0.071   4.049   7.717 -0.7884  1.4778 -2.6108
 1933TP3      O17617   1.143   4.941   2.451  0.8257 -0.5983  0.1344
 1933TP3     H117618   1.111   5.017   2.500  1.1967 -1.2060  1.3437
 1933TP3     H217619   1.072   4.922   2.389  1.6976  2.1836 -1.9352
 1934TP3      O17620   1.400   5.039   1.205 -0.4858 -0.0928  0.0595
 1934TP3     H117621   1.330   5.064   1.265 -0.1234 -1.5996  1.1792
 1934TP3     H217622   1.453   4.977   1.255  1.4993  0.7968 -0.8450
 1935TP3      O17623   2.759   5.220   0.285  0.2624 -0.7917 -0.2963
 1935TP3     H117624   2.745   5.213   0.190  2.7276  0.8054 -0.8871
 1935TP3     H217625   2.723   5.139   0.321 -0.5580 -1.5344 -2.6142
 1936TP3      O17626   5.261   0.135   2.014 -0.3612  0.1133 -0.0739
 1936TP3     H117627   5.198   0.128   1.942 -0.7724  0.7270  0.2171
 1936TP3     H217628   5.267   0.047   2.050  0.3819 -0.3623 -1.2916
 1937TP3      O17629   3.790   1.702   6.913  0.2602  0.0259  0.0515
 1937TP3     H117630   3.727   1.761   6.872 -0.8222 -0.8385  0.4448
 1937TP3     H217631   3.768   1.705   7.006  0.0029 -1.2176  0.0379
 1938TP3      O17632   0.189   0.063   1.209  0.4706  0.3738 -0.4088
 1938TP3     H117633   0.223   0.115   1.135  2.3640  0.4875  0.4873
 1938TP3     H217634   0.199  -0.028   1.180 -2.2410  0.3896 -1.7155
 1939TP3      O17635   0.542   1.989   9.328 -0.4946 -0.5356  0.1782
 1939TP3     H117636   0.573   2.071   9.365 -0.9224 -1.3156  2.4406
 1939TP3     H217637   0.612   1.962   9.269  0.9161  0.1471  1.4587
 1940TP3      O17638   2.242   2.500   2.433 -0.2970  0.1756 -0.2501
 1940TP3     H117639   2.166   2.546   2.395 -0.3805 -0.4601 -0.8779
 1940TP3     H217640   2.301   2.570   2.461 -1.5633  0.7211  1.2365
 1941TP3      O17641   2.307   2.483   9.129  0.3416 -0.5120  0.2141
 1941TP3     H117642   2.270   2.570   9.143  0.7438 -0.0679 -1.2956
 1941TP3     H217643   2.234   2.432   9.094  0.8635  0.1244 -1.9297
 1942TP3      O17644   1.773   1.926   7.624  0.2862 -0.5171 -0.0401
 1942TP3     H117645   1.786   1.974   7.542  2.6075 -2.1203 -0.7188
 1942TP3     H217646   1.846   1.954   7.679 -0.0846 -1.0023  0.7144
 1943TP3      O17647   0.040   3.258   8.242  0.1497  0.9219 -0.4780
 1943TP3     H117648   0.126   3.267   8.284 -0.3168  2.3217  0.2453
 1943TP3     H217649   0.046   3.313   8.164 -0.1064  1.0504 -0.4065
 1944TP3      O17650   5.148   0.587   9.695 -0.2242  0.0319  0.2947
 1944TP3     H117651   5.086   0.575   9.623 -0.2472 -1.6966  0.5589
 1944TP3     H217652   5.134   0.677   9.723 -1.1132  0.3424 -1.0313
 1945TP3      O17653   0.912   3.891   2.552  0.2456 -0.2488  0.2431
 1945TP3     H117654   0.916   3.798   2.573  1.5567 -0.2584  0.0589
 1945TP3     H217655   0.983   3.930   2.604  0.1077  0.5422 -0.1432
 1946TP3      O17656   2.903   4.585   9.286  0.1783  0.8538 -0.0003
 1946TP3     H117657   2.926   4.676   9.307 -0.7069  1.0271  0.2632
 1946TP3     H217658   2.808   4.585   9.280  0.1241 -0.1794  0.5652
 1947TP3      O17659   2.088   0.435   9.995 -0.2023  0.0692 -0.6993
 1947TP3     H117660   1.998   0.424  10.027  0.1513  0.1395  0.3581
 1947TP3     H217661   2.141   0.439  10.074  0.9654 -1.8576 -1.3259
 1948TP3      O17662   0.207   0.781   2.048 -0.0624 -0.0810 -0.2212
 1948TP3     H117663   0.173   0.742   2.128 -0.7954 -0.4291 -0.6963
 1948TP3     H217664   0.225   0.707   1.991  0.0152  0.1933 -0.5533
 1949TP3      O17665   5.007   2.224   0.561  0.3428 -0.5214  0.4106
 1949TP3     H117666   4.912   2.239   0.557  0.3434 -0.2638  1.1657
 1949TP3     H217667   5.027   2.176   0.481 -0.2244  0.5400 -0.4033
 1950TP3      O17668   2.084   1.732   8.096 -0.5019 -0.1217  0.1397
 1950TP3     H117669   2.013   1.675   8.126  0.3860 -0.1299  2.3929
 1950TP3     H217670   2.101   1.791   8.169  0.2493  1.4504 -1.2319
 1951TP3      O17671   1.581   0.731   0.997  0.2906  0.7850  0.6346
 1951TP3     H117672   1.650   0.685   0.949 -1.1713 -0.0182 -0.8087
 1951TP3     H217673   1.628   0.787   1.058  2.1953 -1.3539  1.2809
 1952TP3      O17674   1.634   1.397   1.956  0.1208  0.3050  0.7382
 1952TP3     H117675   1.603   1.482   1.926  0.4230  0.2777  0.3289
 1952TP3     H217676   1.714   1.382   1.906 -0.2285 -0.4683  0.3871
 1953TP3      O17677   5.270   0.068   9.175  0.3868  0.0798  0.0407
 1953TP3     H117678   5.270  -0.010   9.230 -1.0645  0.8469  1.2131
 1953TP3     H217679   5.308   0.137   9.230 -1.9002  1.0731  0.5039
 1954TP3      O17680   3.926   4.304   7.322 -0.2554 -0.1650  0.3558
 1954TP3     H117681   3.839   4.298   7.361 -0.8522  0.7279 -0.7537
 1954TP3     H217682   3.919   4.255   7.240 -0.5521  2.0617 -1.0379
 1955TP3      O17683   2.290   0.036   6.889 -0.2163 -0.4060 -0.1510
 1955TP3     H117684   2.346   0.067   6.961 -1.6584  0.2779  0.7306
 1955TP3     H217685   2.317   0.089   6.814  0.2968 -0.0467  0.2787
 1956TP3      O17686   3.863   1.172   9.523  0.5813  0.1322 -0.3964
 1956TP3     H117687   3.911   1.092   9.543  0.3686 -0.0821 -0.7208
 1956TP3     H217688   3.858   1.174   9.427  1.0523  0.8186 -0.4156
 1957TP3      O17689   3.180   4.379   1.077  0.4413 -0.0371  0.2292
 1957TP3     H117690   3.235   4.456   1.062  0.3109  0.2311  1.0801
 1957TP3     H217691   3.239   4.314   1.114 -0.2436  1.1195  3.6840
 1958TP3      O17692   2.899   1.514   9.443 -0.6401 -0.4488 -0.1578
 1958TP3     H117693   2.900   1.552   9.355  1.5713 -0.0589 -0.0100
 1958TP3     H217694   2.884   1.420   9.427  1.0614 -0.6067 -1.0975
 1959TP3      O17695   4.719   2.921   2.496  0.2441 -0.4089  0.5325
 1959TP3     H117696   4.765   2.973   2.563  0.4199 -1.3691  1.1870
 1959TP3     H217697   4.626   2.940   2.511  0.3249  0.0388  0.4869
 1960TP3      O17698   0.745   3.494   7.530  0.0733 -0.1288 -0.6959
 1960TP3     H117699   0.823   3.471   7.480  1.1273  1.1828  0.2741
 1960TP3     H217700   0.745   3.435   7.605  1.0752  0.9337  0.1714
 1961TP3      O17701   2.000   1.128   2.890 -0.0866  0.4559 -0.1396
 1961TP3     H117702   2.033   1.060   2.949 -3.0387  0.2469  1.4484
 1961TP3     H217703   1.946   1.184   2.945  0.5075  2.9084 -1.8461
 1962TP3      O17704   3.078   4.412   9.166 -0.1162 -0.6270  0.2768
 1962TP3     H117705   3.013   4.476   9.196  1.2624  0.0397  1.9767
 1962TP3     H217706   3.063   4.335   9.222 -0.5505 -1.1453 -0.5194
 1963TP3      O17707   4.158   2.974   7.947  0.1006 -0.0205  0.5943
 1963TP3     H117708   4.092   3.004   7.885 -0.2078 -0.9545  0.4591
 1963TP3     H217709   4.124   2.891   7.981  1.3606 -0.7124  0.2354
 1964TP3      O17710   2.739   5.202   1.215 -0.1127  0.5815  0.2001
 1964TP3     H117711   2.832   5.207   1.194 -0.1458 -1.2189 -0.5419
 1964TP3     H217712   2.704   5.288   1.190  0.9845  0.5934 -1.4359
 1965TP3      O17713   1.051   1.290  10.109  0.0771 -0.4274 -0.1887
 1965TP3     H117714   1.036   1.322  10.198 -1.5072 -0.8006 -0.2988
 1965TP3     H217715   1.017   1.359  10.052 -2.9772 -1.9793 -0.4254
 1966TP3      O17716   1.369   4.646   2.739  0.2356 -0.6217  0.4302
 1966TP3     H117717   1.321   4.588   2.680  1.1936 -0.8068 -0.1934
 1966TP3     H217718   1.317   4.726   2.741  0.8940 -0.0447 -1.8646
 1967TP3      O17719   2.457   5.250   3.537 -0.2588  0.0074 -0.5454
 1967TP3     H117720   2.452   5.309   3.613 -1.6228  0.8011 -1.2119
 1967TP3     H217721   2.377   5.199   3.541 -0.4097  0.1517 -1.5097
 1968TP3      O17722   0.591   5.063   8.626 -0.1994  0.8675 -0.5942
 1968TP3     H117723   0.542   4.999   8.679 -2.3667  2.4987 -0.5126
 1968TP3     H217724   0.683   5.043   8.645 -0.8449 -0.1897  1.9032
 1969TP3      O17725   0.721   0.263   8.254  0.5067 -0.3489  0.2885
 1969TP3     H117726   0.808   0.224   8.265 -0.1477 -2.3492 -1.0660
 1969TP3     H217727   0.724   0.306   8.169  0.1797 -0.3356  0.2836
 1970TP3      O17728   4.264   3.336   9.985 -0.0084 -0.2021  0.5167
 1970TP3     H117729   4.228   3.393   9.917 -0.3216  0.3699  1.1486
 1970TP3     H217730   4.262   3.249   9.947 -0.0894  0.1253 -0.2452
 1971TP3      O17731   2.099   2.425   9.396 -0.0307  0.0985 -0.6570
 1971TP3     H117732   2.019   2.461   9.357 -1.4564 -3.8763 -1.8805
 1971TP3     H217733   2.140   2.376   9.326  0.7833 -2.0306  1.1994
 1972TP3      O17734   2.282   2.789   8.717 -0.1531  0.0076  0.9024
 1972TP3     H117735   2.343   2.801   8.644 -0.4133 -0.3194  0.6257
 1972TP3     H217736   2.196   2.779   8.675 -0.5514  1.4468  1.3239
 1973TP3      O17737   3.790   1.752   2.801 -0.6413  0.9791 -0.3990
 1973TP3     H117738   3.795   1.701   2.882 -0.3755  1.6217 -0.0090
 1973TP3     H217739   3.853   1.710   2.743 -0.0083  1.1980  0.1149
 1974TP3      O17740   4.587   1.462   0.688 -0.1806 -0.5311  0.4143
 1974TP3     H117741   4.546   1.438   0.605 -0.4666  1.0215  0.0739
 1974TP3     H217742   4.669   1.414   0.689  1.6304  2.1338 -2.5645
 1975TP3      O17743   3.906   2.167   8.322  0.2862 -0.1703 -0.0124
 1975TP3     H117744   3.925   2.209   8.238 -2.5313  0.9018 -0.1907
 1975TP3     H217745   3.828   2.114   8.305 -0.6225  0.4487  2.0108
 1976TP3      O17746   1.399   4.875   1.611 -0.0212 -0.2457  0.3988
 1976TP3     H117747   1.349   4.884   1.530  0.6698 -0.4174 -0.0523
 1976TP3     H217748   1.473   4.935   1.601  0.6727 -1.0684  0.4142
 1977TP3      O17749   4.437   3.211   0.730  0.5143  0.2590 -0.3005
 1977TP3     H117750   4.505   3.226   0.664  1.8222 -0.8701  0.7163
 1977TP3     H217751   4.444   3.287   0.788  0.7160  0.2858 -0.3583
 1978TP3      O17752   0.091   3.012   8.567 -0.1572  0.2572  0.5038
 1978TP3     H117753   0.155   3.076   8.599  0.9801 -0.8645  0.5380
 1978TP3     H217754   0.041   2.988   8.646  0.1395  0.2800  0.7001
 1979TP3      O17755   4.646   3.435   9.967 -0.1014  0.3551 -0.1425
 1979TP3     H117756   4.721   3.400  10.015 -0.8551  0.1179  0.8920
 1979TP3     H217757   4.643   3.528   9.992  0.3019  0.5544 -0.8001
 1980TP3      O17758   3.293   4.589   0.388  0.2853 -0.2876  0.1819
 1980TP3     H117759   3.260   4.599   0.477 -0.3549 -2.6361  0.2855
 1980TP3     H217760   3.224   4.624   0.332 -0.9590 -2.0434  0.5300
 1981TP3      O17761   2.617   2.829   0.542  0.3251  0.0946 -0.3959
 1981TP3     H117762   2.685   2.763   0.530 -0.6754 -0.6633 -2.3419
 1981TP3     H217763   2.644   2.903   0.487  1.3978  1.3552  1.7070
 1982TP3      O17764   2.340   4.313   8.990  0.1985 -0.0260  0.0429
 1982TP3     H117765   2.342   4.249   9.061  1.4252 -1.5731 -1.3290
 1982TP3     H217766   2.430   4.317   8.958 -0.3898  0.3682 -1.6461
 1983TP3      O17767   1.288   3.380   2.238  0.1100 -0.6951 -0.0511
 1983TP3     H117768   1.208   3.365   2.287 -0.2388 -3.0818 -1.1926
 1983TP3     H217769   1.355   3.330   2.285  0.2433 -1.2349 -0.8034
 1984TP3      O17770   3.919   1.824   7.846 -0.0136 -0.9818  0.0404
 1984TP3     H117771   3.935   1.879   7.769 -1.1783 -0.7876 -0.0807
 1984TP3     H217772   3.909   1.887   7.918 -2.3798 -0.9113 -0.2740
 1985TP3      O17773   5.157   4.041   9.111 -0.2043 -0.3041 -0.1667
 1985TP3     H117774   5.083   4.100   9.100 -0.1826  0.3201  2.4033
 1985TP3     H217775   5.119   3.953   9.102 -0.8982  0.0418 -0.6736
 1986TP3      O17776   1.437   3.676   7.579 -0.1408  0.3991  0.2959
 1986TP3     H117777   1.513   3.619   7.577 -0.7347 -0.3925 -1.2881
 1986TP3     H217778   1.420   3.697   7.487 -0.8410  1.9215  0.7380
 1987TP3      O17779   2.544   1.214   9.835  0.2693  0.3046 -0.4518
 1987TP3     H117780   2.567   1.276   9.905  2.1167  1.1088 -1.7007
 1987TP3     H217781   2.628   1.177   9.808 -0.4870 -0.4476 -1.8430
 1988TP3      O17782   4.166   1.922   0.724 -0.5858 -0.0653 -0.0653
 1988TP3     H117783   4.109   1.999   0.717  1.1750  1.4152  0.8743
 1988TP3     H217784   4.145   1.886   0.810 -0.6263  0.0174 -0.0397
 1989TP3      O17785   2.552   0.296   8.864 -0.3543 -0.4356  0.6168
 1989TP3     H117786   2.518   0.278   8.952  0.5656 -0.7887  0.9195
 1989TP3     H217787   2.579   0.388   8.867  1.2580 -0.8891  1.2824
 1990TP3      O17788   2.417   4.911   2.758 -0.2960 -0.5616 -0.3590
 1990TP3     H117789   2.466   4.876   2.832 -0.9342 -0.1884  0.2554
 1990TP3     H217790   2.396   4.835   2.704 -0.0332 -0.8728 -0.0236
 1991TP3      O17791   0.908   3.392   0.735 -0.1104 -0.1934  0.7406
 1991TP3     H117792   0.819   3.428   0.732  0.3216  0.8284 -0.0697
 1991TP3     H217793   0.932   3.379   0.644  0.6262 -0.3454  0.9478
 1992TP3      O17794   1.480   0.983   9.238  0.4633  0.0096  0.1093
 1992TP3     H117795   1.518   0.959   9.322 -0.1033 -0.6809  0.1798
 1992TP3     H217796   1.385   0.978   9.252  0.3605 -0.3235 -0.6133
 1993TP3      O17797   0.557   3.301   1.838 -0.1190 -0.1092  0.0980
 1993TP3     H117798   0.525   3.225   1.887 -0.4013 -0.6231 -0.8624
 1993TP3     H217799   0.479   3.351   1.816 -0.0336 -0.0971 -0.1841
 1994TP3      O17800   3.752   2.506   9.655  0.1632  0.1576 -0.3500
 1994TP3     H117801   3.776   2.477   9.743 -0.4873 -0.6193 -0.4248
 1994TP3     H217802   3.666   2.548   9.667  0.4682  0.8270 -0.4751
 1995TP3      O17803   1.272   2.050   7.671 -0.0699 -0.3502 -0.0477
 1995TP3     H117804   1.213   2.124   7.654  1.9319  1.3012 -0.2175
 1995TP3     H217805   1.302   2.063   7.761  1.7214  0.1809 -0.6712
 1996TP3      O17806   4.486   2.644   9.648 -0.0100 -0.1152  0.0373
 1996TP3     H117807   4.431   2.601   9.583 -0.7693  0.8460  0.0001
 1996TP3     H217808   4.470   2.738   9.634  0.4997  0.1324  1.0091
 1997TP3      O17809   5.174   5.140   9.976 -0.0849 -0.0882  0.2498
 1997TP3     H117810   5.230   5.105  10.045  0.6129 -0.0947 -0.3112
 1997TP3     H217811   5.214   5.110   9.895  0.2208  1.5192 -0.2320
 1998TP3      O17812   0.916   2.865   9.469 -0.0046 -0.6463 -0.4377
 1998TP3     H117813   0.880   2.923   9.402  0.2165  0.0882  0.0600
 1998TP3     H217814   0.846   2.858   9.534 -0.0048 -0.8866 -0.4643
 1999TP3      O17815   4.349   1.421   9.057 -0.0258  0.7554 -0.0873
 1999TP3     H117816   4.392   1.482   9.117 -2.0202  2.7543 -0.5449
 1999TP3     H217817   4.323   1.475   8.982 -1.9437 -0.6177 -0.4977
 2000TP3      O17818   0.609   4.978   9.242  0.2623  0.3298 -0.1106
 2000TP3     H117819   0.670   5.048   9.218  1.2343  0.4918  2.4974
 2000TP3     H217820   0.632   4.906   9.184  2.3939  0.6885  0.1838
 2001TP3      O17821   0.162   1.410   0.829 -0.6263  0.2516 -0.0551
 2001TP3     H117822   0.247   1.369   0.814 -0.4104  1.0117 -0.9603
 2001TP3     H217823   0.120   1.354   0.895  0.5857 -0.1025  0.4462
 2002TP3      O17824   0.983   2.356   0.774 -0.3819  0.7949 -0.5232
 2002TP3     H117825   0.970   2.274   0.821  0.1313 -0.1756 -1.9767
 2002TP3     H217826   0.939   2.342   0.690  2.7105  0.5473 -2.2633
 2003TP3      O17827   1.337   0.448   7.741  0.1841 -0.3744  0.1029
 2003TP3     H117828   1.368   0.457   7.831  1.1517  0.6519 -0.3204
 2003TP3     H217829   1.332   0.537   7.708 -1.1864 -0.6568 -0.5429
 2004TP3      O17830   0.326   2.255   8.327  0.1621  0.0810  0.2031
 2004TP3     H117831   0.413   2.224   8.305  1.3095  0.0932  4.0369
 2004TP3     H217832   0.268   2.181   8.309  1.5977 -1.3726  1.3250
 2005TP3      O17833   2.714   3.126   7.695  0.2232 -0.1885 -0.1785
 2005TP3     H117834   2.668   3.186   7.753  0.9394  0.7551 -0.5688
 2005TP3     H217835   2.673   3.139   7.609  1.5006  1.0060 -0.6325
 2006TP3      O17836   3.863   1.996   8.061 -0.3240 -0.1059  0.5255
 2006TP3     H117837   3.797   1.999   8.130  0.7831  1.0405  1.5873
 2006TP3     H217838   3.845   2.074   8.008 -0.7898 -0.6505 -0.1240
 2007TP3      O17839   2.247   1.088   7.792  0.6027 -0.0688  0.3202
 2007TP3     H117840   2.337   1.056   7.790  0.9506  0.8962 -0.0102
 2007TP3     H217841   2.230   1.108   7.884  1.2048  1.0282  0.2083
 2008TP3      O17842   2.728   4.095   6.671 -0.0091 -0.4639  0.4066
 2008TP3     H117843   2.772   4.021   6.629 -1.2706 -0.9014 -0.1947
 2008TP3     H217844   2.685   4.142   6.600 -0.2118  0.1698  0.9289
 2009TP3      O17845   0.602   1.600   9.162  0.1211 -0.2831  0.8064
 2009TP3     H117846   0.513   1.590   9.128  0.3106  1.3013 -0.2607
 2009TP3     H217847   0.624   1.513   9.197 -1.6420 -0.8404  0.6315
 2010TP3      O17848   4.183   1.450   0.098 -0.1273  0.0435  0.2332
 2010TP3     H117849   4.245   1.514   0.063  0.6908 -0.0919  1.3890
 2010TP3     H217850   4.121   1.436   0.026  1.6145 -0.3992 -1.2542
 2011TP3      O17851   1.194   0.976   1.549 -0.0702  0.3880 -0.7262
 2011TP3     H117852   1.266   0.972   1.611 -0.2898  0.5178 -0.4569
 2011TP3     H217853   1.115   0.981   1.605 -0.2077  1.6518 -1.0020
 2012TP3      O17854   4.498   5.002   8.476  0.0700  0.3126  0.3923
 2012TP3     H117855   4.550   4.923   8.467  0.2584  0.4977 -0.1915
 2012TP3     H217856   4.548   5.057   8.536  1.5858  1.3134 -1.6795
 2013TP3      O17857   1.985   2.191   0.478  0.4313 -0.2136  0.2993
 2013TP3     H117858   2.040   2.266   0.499  1.7867 -0.4891 -1.9177
 2013TP3     H217859   1.895   2.224   0.482  0.9588  1.2841  0.1563
 2014TP3      O17860   0.040   2.251   0.323 -0.0314 -0.0497  0.7790
 2014TP3     H117861   0.007   2.263   0.233  0.5653  0.2033  0.5861
 2014TP3     H217862   0.131   2.222   0.311 -0.5508 -1.9939  1.2903
 2015TP3      O17863   2.860   3.541   8.546  0.7289  0.0808  0.4481
 2015TP3     H117864   2.848   3.447   8.532 -0.2708  0.1732  0.5769
 2015TP3     H217865   2.796   3.563   8.614  1.0859  0.8164  0.5487
 2016TP3      O17866   0.485   2.343   9.866 -0.2278  0.6892 -0.1584
 2016TP3     H117867   0.441   2.291   9.799  0.3155  0.1916 -0.1374
 2016TP3     H217868   0.572   2.359   9.830  0.7716 -1.2680  1.2361
 2017TP3      O17869   4.164   3.628   1.274 -0.2568  0.3589 -0.3667
 2017TP3     H117870   4.102   3.633   1.348 -0.9236  2.0801 -0.9843
 2017TP3     H217871   4.236   3.685   1.300 -0.7765  1.4568 -1.2691
 2018TP3      O17872   5.206   0.506   1.375 -0.2563  0.0667  0.2607
 2018TP3     H117873   5.191   0.411   1.375  1.4204 -0.2469  1.7999
 2018TP3     H217874   5.161   0.537   1.296 -1.1262 -1.9437 -0.1065
 2019TP3      O17875   4.337   0.567   8.494  0.2446  0.4829  0.4256
 2019TP3     H117876   4.418   0.565   8.545 -0.9617  1.6901  2.5588
 2019TP3     H217877   4.342   0.647   8.442  0.1347  0.9696  1.1442
 2020TP3      O17878   2.673   2.475   2.094  0.4451  0.3420 -0.1973
 2020TP3     H117879   2.761   2.488   2.058  0.7108 -0.3123  0.1912
 2020TP3     H217880   2.669   2.381   2.113  0.1721  0.6016  1.0960
 2021TP3      O17881   0.124   4.656   7.622  0.6090  0.3976  0.0389
 2021TP3     H117882   0.029   4.660   7.613  0.7582  1.9205 -1.4372
 2021TP3     H217883   0.155   4.738   7.583  2.5427 -0.1380  0.3380
 2022TP3      O17884   4.280   2.258   1.239 -0.3329  0.2339 -0.0834
 2022TP3     H117885   4.285   2.183   1.298  0.9943  0.2286 -0.1689
 2022TP3     H217886   4.370   2.291   1.235 -0.5040  0.5619 -1.6792
 2023TP3      O17887   0.417   0.094   0.108  0.5362  0.1314  0.1061
 2023TP3     H117888   0.504   0.073   0.143  0.2644  1.9548  2.0619
 2023TP3     H217889   0.365   0.117   0.185 -1.1134  1.0826 -1.2261
 2024TP3      O17890   1.690   3.337   9.453 -0.4862 -0.3733  0.3252
 2024TP3     H117891   1.679   3.325   9.547  1.8133  0.2989  0.7456
 2024TP3     H217892   1.711   3.250   9.420  0.4544 -0.3201  0.7501
 2025TP3      O17893   3.609   1.945   0.213 -0.8932  0.1055 -0.0216
 2025TP3     H117894   3.521   1.909   0.208 -1.2711  0.9746  0.2251
 2025TP3     H217895   3.599   2.027   0.262  0.0160  0.3013 -0.1461
 2026TP3      O17896   2.852   0.275   9.680  0.1166 -0.4547  0.1086
 2026TP3     H117897   2.818   0.236   9.760  0.6628  0.0200  0.5848
 2026TP3     H217898   2.780   0.327   9.646 -0.5140 -1.5979 -0.3603
 2027TP3      O17899   1.670   1.119   1.258 -0.2593 -0.4356 -0.0634
 2027TP3     H117900   1.583   1.095   1.225  0.6692  0.0848 -3.1379
 2027TP3     H217901   1.656   1.203   1.301 -1.3020 -0.3626 -0.5014
 2028TP3      O17902   2.282   3.740   1.797  0.3484 -0.0148 -0.2590
 2028TP3     H117903   2.229   3.794   1.739  1.9370  0.4305 -1.3496
 2028TP3     H217904   2.295   3.658   1.749  1.1964  0.1326 -0.2866
 2029TP3      O17905   4.205   5.128   7.613  0.1833 -0.3666 -0.2487
 2029TP3     H117906   4.221   5.130   7.518  0.0908 -1.2177 -0.2857
 2029TP3     H217907   4.220   5.218   7.641  1.0073 -0.2708 -0.9484
 2030TP3      O17908   0.479   0.594   0.826  0.1357 -0.4173  0.1412
 2030TP3     H117909   0.498   0.500   0.816 -1.6521 -0.9304  1.1550
 2030TP3     H217910   0.412   0.598   0.894  1.6886  1.7755  1.7151
 2031TP3      O17911   4.823   0.292   1.512 -0.0574  0.4676  0.2501
 2031TP3     H117912   4.834   0.378   1.554  2.2634  0.7030 -0.6690
 2031TP3     H217913   4.835   0.310   1.419 -0.4460 -0.7480 -0.0480
 2032TP3      O17914   4.123   1.629   0.740 -0.0916 -0.1276  0.2528
 2032TP3     H117915   4.095   1.715   0.772  1.2172 -0.1879  1.6481
 2032TP3     H217916   4.214   1.621   0.769 -0.3789 -2.2394  0.6898
 2033TP3      O17917   3.261   1.276   1.695  0.0976  0.6544  0.4355
 2033TP3     H117918   3.337   1.277   1.753  1.8198 -0.1565 -1.6770
 2033TP3     H217919   3.212   1.198   1.721  1.2548 -0.1300  0.3089
 2034TP3      O17920   2.265   1.523   7.865 -0.4450 -0.6452  0.4554
 2034TP3     H117921   2.300   1.530   7.776  2.0367  0.6350  1.4445
 2034TP3     H217922   2.325   1.462   7.909 -0.0428  0.7424  1.9174
 2035TP3      O17923   1.808   1.313   9.635  0.1891 -0.3898 -0.1736
 2035TP3     H117924   1.782   1.227   9.602 -0.6566  0.1377 -0.9412
 2035TP3     H217925   1.760   1.324   9.717 -1.6539  0.3213 -1.2728
 2036TP3      O17926   1.474   2.439   6.687  0.2624 -0.1936  0.2540
 2036TP3     H117927   1.513   2.500   6.750 -0.3091  0.1438  0.2984
 2036TP3     H217928   1.429   2.496   6.624 -1.6414 -0.5629  1.1852
 2037TP3      O17929   0.701   1.862   0.316 -0.5166  0.6496 -0.4293
 2037TP3     H117930   0.752   1.781   0.317 -0.5268  0.6442  0.4032
 2037TP3     H217931   0.661   1.864   0.229  1.4843  1.0276 -1.3906
 2038TP3      O17932   0.002   4.105   2.400 -0.4491 -0.5967 -0.4158
 2038TP3     H117933  -0.087   4.080   2.375 -0.4277 -1.2776  0.1955
 2038TP3     H217934   0.005   4.200   2.384 -1.7216 -0.3121  0.8770
 2039TP3      O17935   4.455   2.426   6.663 -0.1854 -0.1921  0.3514
 2039TP3     H117936   4.382   2.468   6.619  0.8317  1.9778  0.6043
 2039TP3     H217937   4.476   2.351   6.608 -1.6223  0.0253 -0.5419
 2040TP3      O17938   0.267   4.730   0.460  0.1268  0.4197 -0.0849
 2040TP3     H117939   0.302   4.772   0.381  0.0758  0.1910 -0.2305
 2040TP3     H217940   0.322   4.762   0.531 -1.3083  2.5570  0.1684
 2041TP3      O17941   4.833   0.752   9.295  0.4877 -0.5946  0.1638
 2041TP3     H117942   4.768   0.695   9.338  0.0950 -0.3180 -0.0531
 2041TP3     H217943   4.787   0.836   9.284  0.9986 -0.2936  0.3128
 2042TP3      O17944   5.022   0.271   0.017 -0.4228 -0.0733 -0.1188
 2042TP3     H117945   5.018   0.328  -0.059 -1.8605  0.1149  0.0810
 2042TP3     H217946   4.971   0.316   0.084  2.3594  0.7269  1.6571
 2043TP3      O17947   4.122   3.733   0.336  0.5576  0.0523  0.2712
 2043TP3     H117948   4.079   3.732   0.250  0.3657  0.2176  0.3632
 2043TP3     H217949   4.173   3.652   0.339 -0.1419 -0.3947  0.3562
 2044TP3      O17950   4.843   3.758   8.504 -0.0651  0.1500  0.3819
 2044TP3     H117951   4.899   3.692   8.464 -0.3332 -0.6202  1.2611
 2044TP3     H217952   4.759   3.714   8.519 -0.5068  0.9232  0.2263
 2045TP3      O17953   2.759   0.244   0.690  0.6302  0.0104 -0.2587
 2045TP3     H117954   2.787   0.174   0.630 -0.3162  0.1437 -0.8686
 2045TP3     H217955   2.702   0.201   0.753  2.0342 -0.2349  0.9172
 2046TP3      O17956   3.768   2.489   0.012  0.0569  0.1200  0.2209
 2046TP3     H117957   3.755   2.395   0.003 -0.2227  0.0705  1.0432
 2046TP3     H217958   3.779   2.503   0.106 -1.5829  1.1153  0.3019
 2047TP3      O17959   1.421   2.486   0.228  0.1415  0.1945 -0.2684
 2047TP3     H117960   1.424   2.561   0.287  0.6172 -0.3542  0.4178
 2047TP3     H217961   1.469   2.516   0.150  1.5318  0.1568  0.5442
 2048TP3      O17962   3.247   4.760   7.372  0.7388  0.2004 -0.0101
 2048TP3     H117963   3.309   4.824   7.336  1.8246 -0.2696  0.9402
 2048TP3     H217964   3.289   4.730   7.453  0.5974 -2.2359 -0.7634
 2049TP3      O17965   5.014   1.527   2.745 -0.0361 -0.0104  0.1254
 2049TP3     H117966   5.068   1.606   2.735 -1.8559  1.2403 -0.3588
 2049TP3     H217967   4.977   1.535   2.832 -0.1503 -0.3976  0.1129
 2050TP3      O17968   1.676   1.839   8.345 -0.3997 -0.1043 -0.3027
 2050TP3     H117969   1.672   1.862   8.438  0.7279 -0.6736 -0.1058
 2050TP3     H217970   1.632   1.912   8.301  0.1331  0.7728  0.5787
 2051TP3      O17971   2.894   4.193   6.889 -0.0504 -0.1934 -0.1719
 2051TP3     H117972   2.841   4.263   6.925  2.5150  2.0360 -0.3688
 2051TP3     H217973   2.852   4.171   6.806 -1.8722 -0.1429  0.6990
 2052TP3      O17974   2.020   4.783   8.306 -0.6108  0.3371 -0.2584
 2052TP3     H117975   1.990   4.864   8.265  0.1999  1.2482  0.8586
 2052TP3     H217976   2.060   4.734   8.235 -0.4371  1.2622 -0.8241
 2053TP3      O17977   1.137   3.210   8.685 -0.4499 -0.1339  0.7838
 2053TP3     H117978   1.189   3.281   8.722  2.4148 -1.7820  0.2263
 2053TP3     H217979   1.119   3.152   8.760  0.4016 -0.6138  0.6307
 2054TP3      O17980   3.912   0.319   7.170 -0.7226 -0.6859 -0.3308
 2054TP3     H117981   3.912   0.412   7.148  1.0924 -0.7548 -0.7434
 2054TP3     H217982   3.868   0.277   7.096 -0.7861 -0.2462 -0.5453
 2055TP3      O17983   4.265   0.496   9.087  0.2962 -0.1172  0.0390
 2055TP3     H117984   4.325   0.425   9.064  2.4386  1.8312 -0.8067
 2055TP3     H217985   4.272   0.558   9.014 -2.2414  0.5872  0.2757
 2056TP3      O17986   0.123   4.929   7.859 -0.5410  0.1318  0.1976
 2056TP3     H117987   0.068   5.004   7.835 -1.1061 -0.8149 -1.6731
 2056TP3     H217988   0.092   4.903   7.945 -1.2892  1.1810  0.2709
 2057TP3      O17989   3.794   0.652   2.800  0.5895  0.2278  0.8950
 2057TP3     H117990   3.714   0.663   2.747  0.5162 -0.6834  0.7906
 2057TP3     H217991   3.763   0.610   2.880  0.8803  0.4344  1.1131
 2058TP3      O17992   2.764   1.309   8.829  0.3267  0.0585  0.4554
 2058TP3     H117993   2.828   1.238   8.838 -0.0672 -0.2449  0.8497
 2058TP3     H217994   2.683   1.274   8.864  0.1076  0.6843  0.5934
 2059TP3      O17995   4.754   1.218   7.879  0.6451  0.3225  0.2616
 2059TP3     H117996   4.787   1.261   7.958  1.1907 -0.7719  0.6443
 2059TP3     H217997   4.683   1.275   7.849  0.1830  0.5603  1.7399
 2060TP3      O17998   4.528   4.805   0.472  0.2817 -0.4959 -0.5270
 2060TP3     H117999   4.497   4.720   0.443  1.7531 -1.1508 -0.2738
 2060TP3     H218000   4.591   4.785   0.541 -1.5717  0.9061  1.7469
 2061TP3      O18001   4.845   4.929   0.661 -0.7494 -0.2458  0.4214
 2061TP3     H118002   4.789   4.857   0.688 -1.9772 -0.1540 -1.6875
 2061TP3     H218003   4.802   5.007   0.696 -1.8646 -0.2033 -0.9303
 2062TP3      O18004   1.361   1.988   1.074  0.1078 -0.2082  0.5209
 2062TP3     H118005   1.302   1.931   1.124 -1.8547  1.1110 -0.1514
 2062TP3     H218006   1.422   2.023   1.139 -0.9500 -0.2698  1.5838
 2063TP3      O18007   0.413   2.922   7.817  0.1450 -0.1565  0.2136
 2063TP3     H118008   0.324   2.940   7.847  0.2974 -1.7463  1.8124
 2063TP3     H218009   0.422   2.827   7.826  2.1380  0.0167  0.4676
 2064TP3      O18010   1.316   3.452   8.894  0.2052  0.0993 -0.4183
 2064TP3     H118011   1.225   3.433   8.916  0.0757 -0.4795 -1.4097
 2064TP3     H218012   1.314   3.543   8.862 -0.4080 -0.5677 -2.4055
 2065TP3      O18013   1.347   1.442   0.270  0.1022 -0.3293 -0.3478
 2065TP3     H118014   1.371   1.401   0.187  2.3875 -0.2983  0.2343
 2065TP3     H218015   1.371   1.378   0.337  0.5829  0.6019  0.3948
 2066TP3      O18016   1.364   3.108   9.940 -0.3931 -0.0780 -0.4751
 2066TP3     H118017   1.434   3.173   9.942  0.7060 -1.1748  2.6521
 2066TP3     H218018   1.364   3.075   9.850  1.1096  2.0063 -1.3059
 2067TP3      O18019   3.399   0.147   1.822 -0.3217 -0.4141  0.2015
 2067TP3     H118020   3.486   0.167   1.856 -0.6830  1.4806  0.1367
 2067TP3     H218021   3.415   0.100   1.740  0.6584  0.0752  0.0977
 2068TP3      O18022   0.031   1.518   0.051 -0.4383 -0.5439 -0.1640
 2068TP3     H118023  -0.036   1.526  -0.016  0.5121 -0.4205 -1.1345
 2068TP3     H218024   0.103   1.471   0.008  0.4637  0.1341  0.5501
 2069TP3      O18025   0.758   1.125   8.684 -0.4421  0.0893 -0.8657
 2069TP3     H118026   0.810   1.134   8.604  0.0633  2.7356 -0.3283
 2069TP3     H218027   0.673   1.093   8.653 -0.7138  2.2915 -2.7022
 2070TP3      O18028   3.721   2.907   8.451  0.4404 -0.6062  0.3121
 2070TP3     H118029   3.672   2.903   8.533  0.0104 -0.2208  0.0787
 2070TP3     H218030   3.806   2.869   8.472  0.7992  0.6725  1.2623
 2071TP3      O18031   2.900   5.174   8.813  0.4798  0.1860  0.1636
 2071TP3     H118032   2.958   5.124   8.757  0.2969  0.4366 -0.2579
 2071TP3     H218033   2.843   5.222   8.753 -0.5497 -0.4961  0.5556
 2072TP3      O18034   1.320   1.057   8.893  0.0266  0.0863  0.3461
 2072TP3     H118035   1.334   0.978   8.841 -0.2254  0.5260 -0.4066
 2072TP3     H218036   1.229   1.050   8.922 -0.4117  0.6966 -0.7948
 2073TP3      O18037   1.619   1.939   7.269 -0.6352 -0.4353  0.0858
 2073TP3     H118038   1.536   1.955   7.314 -1.2541 -2.7376 -0.1132
 2073TP3     H218039   1.597   1.879   7.198  0.7923  0.9987 -1.6553
 2074TP3      O18040   4.359   2.577   8.587 -0.0573 -0.0874 -0.1956
 2074TP3     H118041   4.447   2.568   8.550  0.1549 -0.8112  0.4597
 2074TP3     H218042   4.340   2.491   8.625 -1.5396 -0.3254 -1.3598
 2075TP3      O18043   1.449   4.802   0.232 -0.1962 -0.2346  0.7589
 2075TP3     H118044   1.398   4.796   0.314  0.4211  1.5660  1.3428
 2075TP3     H218045   1.384   4.828   0.166 -0.5551 -0.8894  0.8474
 2076TP3      O18046   0.165   4.518   8.310 -0.2161 -0.2558 -0.0428
 2076TP3     H118047   0.094   4.566   8.353  1.0524  0.3510  1.4598
 2076TP3     H218048   0.157   4.428   8.343 -2.0391 -0.9704 -2.1675
 2077TP3      O18049   0.020   1.438   7.623 -0.2565 -0.1880 -0.2241
 2077TP3     H118050   0.073   1.445   7.544 -1.2924  0.0439 -0.9089
 2077TP3     H218051   0.032   1.347   7.651  1.6881  0.2306  0.5102
 2078TP3      O18052   2.037   0.691   1.272  0.5365  0.4037 -0.2515
 2078TP3     H118053   2.018   0.746   1.348  1.9744  0.3839  0.1404
 2078TP3     H218054   1.965   0.628   1.270 -1.6221  2.7333 -1.1893
 2079TP3      O18055   1.984   1.692   8.566  0.4190  0.7855 -0.2033
 2079TP3     H118056   2.079   1.689   8.556  0.6778 -0.2282  1.9169
 2079TP3     H218057   1.971   1.701   8.660 -1.5726 -1.0499 -0.2282
 2080TP3      O18058   2.166   1.474   8.266  0.2194 -0.2666  0.7376
 2080TP3     H118059   2.123   1.468   8.181  0.5691 -0.8302  0.5954
 2080TP3     H218060   2.148   1.391   8.308 -0.5935  0.2972  1.5341
 2081TP3      O18061   1.349   1.334   7.822  1.0439  0.3913  0.2311
 2081TP3     H118062   1.291   1.383   7.879  0.7978  0.6371 -0.2293
 2081TP3     H218063   1.361   1.390   7.745 -0.1341 -0.7240 -0.8126
 2082TP3      O18064   1.741   4.331   7.354  0.2595 -0.7113  0.6418
 2082TP3     H118065   1.703   4.362   7.436  0.3381 -1.0489  0.8065
 2082TP3     H218066   1.740   4.408   7.297  0.1210 -0.4988  0.9278
 2083TP3      O18067   0.762   3.431   2.455  0.2029  0.2183 -0.3250
 2083TP3     H118068   0.688   3.419   2.514 -0.4071  0.2083 -1.0619
 2083TP3     H218069   0.804   3.345   2.452  1.1790  0.6007  1.2693
 2084TP3      O18070   1.873   0.721  10.065 -0.7076  0.0934 -0.0404
 2084TP3     H118071   1.832   0.714   9.979 -0.7736 -1.4603  0.1058
 2084TP3     H218072   1.803   0.700  10.127 -0.2161 -0.5567  0.3073
 2085TP3      O18073   3.991   3.141   1.263  0.3135 -0.3150  0.0366
 2085TP3     H118074   4.076   3.116   1.300 -0.4872 -1.2963  1.3104
 2085TP3     H218075   3.971   3.226   1.303  1.8765  1.2951 -2.3504
 2086TP3      O18076   0.101   2.474   7.347 -0.1714 -0.2702 -0.1322
 2086TP3     H118077   0.121   2.441   7.435  0.9350  0.8783  0.0725
 2086TP3     H218078   0.184   2.467   7.300 -0.6189 -0.3516 -0.9284
 2087TP3      O18079   3.848   1.641   7.637 -0.4107  0.0327  0.0176
 2087TP3     H118080   3.932   1.596   7.639  0.5435  1.7318  0.6183
 2087TP3     H218081   3.852   1.702   7.711 -1.5180  1.2527 -0.8810
 2088TP3      O18082   1.160   4.543   1.623 -0.1203  0.2192  0.8366
 2088TP3     H118083   1.074   4.510   1.652 -0.5987  0.6548 -0.0383
 2088TP3     H218084   1.184   4.485   1.552  2.0480 -2.1954  3.3305
 2089TP3      O18085   4.131   0.454   8.633  0.0500  0.1459 -0.4187
 2089TP3     H118086   4.133   0.403   8.553 -0.4340  1.1452 -1.0925
 2089TP3     H218087   4.213   0.505   8.631 -0.3613  0.8073 -0.7208
 2090TP3      O18088   1.698   0.768   0.676 -1.0829 -0.3977  0.5219
 2090TP3     H118089   1.672   0.856   0.648 -1.4929 -0.8994 -0.7584
 2090TP3     H218090   1.614   0.723   0.691 -1.0313 -1.5689 -2.1439
 2091TP3      O18091   3.554   0.635   2.653  0.5017  0.4525 -1.0213
 2091TP3     H118092   3.478   0.693   2.648 -0.8237 -1.2028 -0.9513
 2091TP3     H218093   3.517   0.547   2.660  2.4366 -0.4216 -1.0389
 2092TP3      O18094   3.625   1.153   1.176 -0.0149  0.6440 -0.1900
 2092TP3     H118095   3.696   1.213   1.153  0.4572  0.5778  1.0271
 2092TP3     H218096   3.665   1.066   1.175 -0.8129  0.2316 -2.4380
 2093TP3      O18097   3.494   4.752   7.201  0.2355  0.1183  0.1000
 2093TP3     H118098   3.572   4.706   7.169 -0.4502 -0.1332 -1.2741
 2093TP3     H218099   3.431   4.683   7.217  0.3773  0.2928  1.5462
 2094TP3      O18100   3.024   2.285   0.505 -0.2860  0.0633  0.1680
 2094TP3     H118101   2.990   2.263   0.418  0.0833  0.4318 -0.0715
 2094TP3     H218102   3.036   2.380   0.502  1.0678 -0.0951  0.1295
 2095TP3      O18103   0.299   3.480   6.629 -0.1568  1.1210 -0.3703
 2095TP3     H118104   0.328   3.476   6.538  1.0961 -1.4991  0.0425
 2095TP3     H218105   0.274   3.391   6.650  0.9482  1.3459  2.2584
 2096TP3      O18106   0.659   2.119   7.615  0.4142  0.0579 -0.4632
 2096TP3     H118107   0.684   2.140   7.525  0.1560 -1.0581 -0.8131
 2096TP3     H218108   0.741   2.118   7.664  0.5493  0.7282 -0.6656
 2097TP3      O18109   3.592   2.403   6.868 -0.2187 -0.2353  0.8257
 2097TP3     H118110   3.542   2.370   6.794  1.4803 -0.0093 -0.4834
 2097TP3     H218111   3.551   2.362   6.945 -1.1362 -1.5904 -0.3361
 2098TP3      O18112   3.275   4.703   1.687  0.1522  0.2237  0.3896
 2098TP3     H118113   3.192   4.748   1.696  0.4939  0.8315  0.5319
 2098TP3     H218114   3.322   4.751   1.619 -0.1951 -1.0121 -0.7797
 2099TP3      O18115   0.754   0.220   0.299  0.4711 -0.4120  0.3763
 2099TP3     H118116   0.802   0.290   0.255  0.0401  0.8621  1.8423
 2099TP3     H218117   0.805   0.141   0.280  1.8630  0.5370 -0.0173
 2100TP3      O18118   2.037   2.729   8.626 -0.1263 -0.1915 -0.4970
 2100TP3     H118119   1.977   2.794   8.660  0.1686 -0.7374  1.1286
 2100TP3     H218120   1.981   2.659   8.591 -0.4368  0.7883 -2.0720
 2101TP3      O18121   4.569   3.917   8.511 -0.4779  0.0260  0.1367
 2101TP3     H118122   4.629   3.960   8.451  1.3422 -1.6008  0.7025
 2101TP3     H218123   4.534   3.988   8.565  0.7239  1.0533 -0.3846
 2102TP3      O18124   4.692   2.427   9.778 -0.1854  0.2462  0.3791
 2102TP3     H118125   4.614   2.449   9.727  0.2395  0.6892 -0.0886
 2102TP3     H218126   4.735   2.359   9.726 -1.1620 -1.3123  1.5064
 2103TP3      O18127   3.957   1.775  10.075 -0.3102 -0.0313 -0.4990
 2103TP3     H118128   4.047   1.771  10.108 -0.6252 -0.4021  0.3315
 2103TP3     H218129   3.907   1.817  10.145 -1.0074 -0.9254 -0.4356
 2104TP3      O18130   0.064   3.162   8.945 -0.4934  0.0234  0.3034
 2104TP3     H118131  -0.016   3.140   8.897  0.6420 -0.6735 -1.3482
 2104TP3     H218132   0.122   3.087   8.932  1.0284  1.1781  0.0803
 2105TP3      O18133   2.335   2.093   8.085  0.0922  0.3879 -0.2260
 2105TP3     H118134   2.369   2.179   8.110  1.1341 -0.1451  0.2737
 2105TP3     H218135   2.345   2.040   8.164 -1.9464  0.1865 -0.0511
 2106TP3      O18136   1.318   2.847   7.498  0.2820  0.3083 -0.4312
 2106TP3     H118137   1.299   2.809   7.412  1.6428  1.1031 -1.1146
 2106TP3     H218138   1.301   2.941   7.487  0.7693  0.4581  0.0785
 2107TP3      O18139   4.937   2.158   1.285 -0.1811  0.3465 -0.3560
 2107TP3     H118140   4.924   2.137   1.377  0.9868  0.3438 -0.1684
 2107TP3     H218141   5.032   2.161   1.275 -0.2842  2.3299 -1.1153
 2108TP3      O18142   1.294   3.118   0.089  0.0696  1.0136 -0.1678
 2108TP3     H118143   1.326   3.128  -0.001 -0.8663 -1.2407 -0.8088
 2108TP3     H218144   1.370   3.087   0.138 -0.1561 -0.7870 -0.8981
 2109TP3      O18145   1.981   4.312   6.765  0.0921 -0.2015 -0.2115
 2109TP3     H118146   1.947   4.237   6.716 -0.3348 -0.8377  1.0352
 2109TP3     H218147   2.038   4.274   6.831 -0.9357  0.4728  1.1073
 2110TP3      O18148   4.028   3.610   2.570  0.4467  0.4768 -0.5437
 2110TP3     H118149   3.980   3.611   2.487  0.4257  1.2534 -0.5306
 2110TP3     H218150   4.120   3.609   2.545  0.4553 -1.8703 -0.5731
 2111TP3      O18151   1.901   4.924   8.515  0.4308  0.2156  0.3136
 2111TP3     H118152   1.932   4.857   8.453 -1.5507 -0.6184  0.1551
 2111TP3     H218153   1.964   4.996   8.506 -0.2312  0.5252 -3.3634
 2112TP3      O18154   0.249   2.280   0.627 -0.4208  0.3268 -0.6235
 2112TP3     H118155   0.172   2.258   0.680 -0.6112  2.0243 -0.1233
 2112TP3     H218156   0.214   2.322   0.549 -0.0751 -0.9955 -1.5189
 2113TP3      O18157   3.493   1.532   3.385  0.6669 -0.0016  0.2047
 2113TP3     H118158   3.424   1.494   3.330  0.6981 -2.0273  1.4466
 2113TP3     H218159   3.572   1.481   3.363  0.9759  0.0392  1.1768
 2114TP3      O18160   3.033   1.863   9.043 -0.7545 -0.6017  0.3749
 2114TP3     H118161   2.953   1.908   9.016 -0.6846 -2.0732 -2.7072
 2114TP3     H218162   3.006   1.809   9.117 -2.7970 -1.4088 -0.8614
 2115TP3      O18163   2.333   2.592   9.644 -0.0318  0.6653  0.0792
 2115TP3     H118164   2.357   2.569   9.734 -0.6491  0.9466  0.3260
 2115TP3     H218165   2.273   2.523   9.617 -0.6451  1.1121  0.2581
 2116TP3      O18166   3.046   2.666   2.256 -0.9238  0.5026  0.3292
 2116TP3     H118167   2.998   2.748   2.249 -1.9185 -0.1196 -0.3281
 2116TP3     H218168   2.979   2.598   2.264 -0.2649 -0.4980 -1.6630
 2117TP3      O18169   5.153   3.903   1.146 -0.5324 -0.3026  0.5592
 2117TP3     H118170   5.125   3.985   1.186 -2.1420 -0.3673 -0.3609
 2117TP3     H218171   5.082   3.880   1.087  1.5273 -0.4315 -2.0436
 2118TP3      O18172   3.174   2.397   2.335  0.1516 -0.0475 -0.0366
 2118TP3     H118173   3.267   2.413   2.320 -0.1015 -0.6483 -2.8424
 2118TP3     H218174   3.140   2.482   2.363  0.9877  1.2165 -2.5059
 2119TP3      O18175   0.861   2.371   9.106 -0.0376 -0.0236  0.3392
 2119TP3     H118176   0.840   2.288   9.148 -0.9556  0.1410  0.2200
 2119TP3     H218177   0.957   2.374   9.105  0.0025 -1.0776  0.3380
 2120TP3      O18178   4.788   3.414   2.027  0.3956 -0.4643 -0.3404
 2120TP3     H118179   4.881   3.390   2.027  0.4738 -0.1833 -0.9552
 2120TP3     H218180   4.786   3.501   1.986 -0.1381 -0.4634 -0.3154
 2121TP3      O18181   2.311   2.078   6.755 -0.0859 -0.2545  0.1439
 2121TP3     H118182   2.326   2.097   6.848 -1.2355 -2.5156  0.8606
 2121TP3     H218183   2.382   2.018   6.732  1.5391  1.9787 -1.1628
 2122TP3      O18184   1.134   3.343   6.275  0.7049 -0.0271  0.4455
 2122TP3     H118185   1.123   3.330   6.369  1.8128 -0.1647  0.5753
 2122TP3     H218186   1.195   3.417   6.269  1.0773 -0.3718 -0.1414
 2123TP3      O18187   4.009   0.021   1.720 -0.0483  0.2290 -0.0101
 2123TP3     H118188   3.929   0.049   1.764  0.7176  0.0446  1.5820
 2123TP3     H218189   4.079   0.070   1.764  0.6967  0.7901 -1.7126
 2124TP3      O18190   2.972   3.389   1.547  0.1386 -0.6935  0.1209
 2124TP3     H118191   2.960   3.346   1.462 -1.3747  0.9589 -0.5439
 2124TP3     H218192   2.970   3.317   1.610 -2.0548 -1.6794 -0.9767
 2125TP3      O18193   3.121   3.497  10.006 -0.1261 -0.2630  0.0014
 2125TP3     H118194   3.123   3.504   9.911 -0.4688 -2.6000 -0.2516
 2125TP3     H218195   3.211   3.477  10.031 -0.2102 -0.5627  0.0678
 2126TP3      O18196   0.864   1.345   9.872 -0.5452 -0.1740 -0.0046
 2126TP3     H118197   0.777   1.316   9.901 -1.3766  0.4377 -1.7550
 2126TP3     H218198   0.846   1.419   9.814  1.1740  0.0467 -0.3007
 2127TP3      O18199   1.640   0.497   7.840  0.2618 -0.0265  0.1291
 2127TP3     H118200   1.633   0.428   7.774 -1.1902  0.0749  0.1579
 2127TP3     H218201   1.707   0.556   7.806 -0.0916 -0.2584 -0.9955
 2128TP3      O18202   3.659   4.061   8.745 -0.6038  0.1222 -0.2192
 2128TP3     H118203   3.709   4.021   8.674  1.0309  1.3364  0.1903
 2128TP3     H218204   3.669   4.000   8.818  0.5474  0.4505 -0.0702
 2129TP3      O18205   2.755   2.479   9.829  0.0522  0.0789 -0.0457
 2129TP3     H118206   2.753   2.395   9.782 -0.3809 -0.2487  0.5511
 2129TP3     H218207   2.848   2.503   9.831  0.0512  0.2678 -1.3592
 2130TP3      O18208   4.962   1.175   3.401  0.1416 -0.3711 -0.5183
 2130TP3     H118209   4.924   1.089   3.418  1.2734 -1.0349 -1.2646
 2130TP3     H218210   5.034   1.182   3.464  0.1141  0.0014 -0.5252
 2131TP3      O18211   2.532   2.675   8.099  0.8711  0.1729 -0.4091
 2131TP3     H118212   2.569   2.727   8.170  0.0657 -0.7120  0.6873
 2131TP3     H218213   2.606   2.628   8.061  1.1658 -0.0794  0.4776
 2132TP3      O18214   3.068   2.388   0.245  0.3951 -0.1437  0.3536
 2132TP3     H118215   3.067   2.459   0.309  1.3804  0.5210 -0.3272
 2132TP3     H218216   3.153   2.346   0.257  0.2661 -0.5121  0.0067
 2133TP3      O18217   1.141   1.569   8.421 -0.2885  0.0291  0.4461
 2133TP3     H118218   1.126   1.519   8.502  0.0066  0.3322  0.6883
 2133TP3     H218219   1.162   1.502   8.356  2.1925 -0.0573  1.2378
 2134TP3      O18220   2.452   3.330   1.074  0.0893  0.3999  0.2305
 2134TP3     H118221   2.506   3.265   1.030 -0.3295 -0.3393  0.8009
 2134TP3     H218222   2.385   3.354   1.009 -0.9768 -1.2285  0.6691
 2135TP3      O18223   4.915   5.229   2.624  0.5960 -0.4480  0.0506
 2135TP3     H118224   4.928   5.302   2.685  0.7002 -1.2937  1.0566
 2135TP3     H218225   4.826   5.242   2.591  1.4322  1.5148 -1.6842
 2136TP3      O18226   4.194   0.306   9.429 -0.5996 -0.4003 -0.4087
 2136TP3     H118227   4.106   0.338   9.406 -1.0484 -0.8140  0.6486
 2136TP3     H218228   4.178   0.221   9.471  0.3002 -0.4288 -0.1019
 2137TP3      O18229   1.535   2.724   7.277 -0.0475 -0.6110  0.0830
 2137TP3     H118230   1.443   2.697   7.279  0.1584 -1.3254  0.1838
 2137TP3     H218231   1.571   2.693   7.361  0.4332 -0.8644 -0.2121
 2138TP3      O18232   5.261   3.274   7.819  0.3196  0.0814  0.7794
 2138TP3     H118233   5.171   3.297   7.795  0.4254  1.4333  1.5911
 2138TP3     H218234   5.272   3.185   7.785 -1.4186 -0.2367  0.9221
 2139TP3      O18235   4.183   1.221   7.351 -0.2179 -0.2229 -0.3241
 2139TP3     H118236   4.125   1.206   7.276 -0.7425  0.3640 -0.0379
 2139TP3     H218237   4.125   1.220   7.427  0.3277 -0.9264  0.0947
 2140TP3      O18238   0.903   2.625   0.604 -0.3591  0.3635  0.3132
 2140TP3     H118239   0.919   2.704   0.552  0.6088  0.0622  0.1361
 2140TP3     H218240   0.843   2.573   0.551  0.7668 -0.0267 -0.6134
 2141TP3      O18241   0.828   2.899   1.635 -0.2737  0.4279  0.0375
 2141TP3     H118242   0.866   2.986   1.626  1.1548 -0.0570  1.1714
 2141TP3     H218243   0.864   2.850   1.561 -0.7381  0.6708 -0.3544
 2142TP3      O18244   3.923   0.347   7.565 -0.4110 -0.3526 -0.0230
 2142TP3     H118245   4.013   0.342   7.533 -1.0451  0.0341 -2.0467
 2142TP3     H218246   3.931   0.386   7.652  1.2669  1.7485 -1.0058
 2143TP3      O18247   1.036   5.284   0.604  0.4053  0.0508 -0.2593
 2143TP3     H118248   1.026   5.231   0.525  1.6634  0.2544 -0.5799
 2143TP3     H218249   1.123   5.324   0.595  0.2401  0.7026  0.8537
 2144TP3      O18250   2.745   0.958   0.139 -0.0910  0.2341 -0.5344
 2144TP3     H118251   2.787   0.945   0.054 -2.1622  2.0371 -1.9703
 2144TP3     H218252   2.736   1.053   0.146 -1.5161  0.0304  0.8951
 2145TP3      O18253   1.849   0.777   2.461 -0.6376  0.3267 -0.0905
 2145TP3     H118254   1.823   0.852   2.514  0.3654  1.7126 -1.4874
 2145TP3     H218255   1.903   0.724   2.519  0.5247  1.8608  0.2750
 2146TP3      O18256   3.830   0.114   7.847  0.3400 -0.5205 -0.1462
 2146TP3     H118257   3.913   0.138   7.888 -0.8845  1.9567  1.0636
 2146TP3     H218258   3.817   0.022   7.872  2.2778 -0.7028  0.3461
 2147TP3      O18259   2.279   4.203   9.338 -0.6877 -0.0250  0.3862
 2147TP3     H118260   2.329   4.152   9.275 -1.4478 -1.5135  0.9207
 2147TP3     H218261   2.227   4.137   9.385 -2.4975  1.3407  0.4156
 2148TP3      O18262   4.751   4.376   1.674 -0.2625  0.6283  0.2370
 2148TP3     H118263   4.838   4.335   1.666 -0.2911  0.4408  0.8475
 2148TP3     H218264   4.722   4.388   1.584  0.1256  0.1011  0.0371
 2149TP3      O18265   3.789   0.881   2.262 -0.3127  0.0804 -0.4415
 2149TP3     H118266   3.739   0.914   2.336 -2.3377  0.6919 -2.0142
 2149TP3     H218267   3.775   0.786   2.264 -0.8081  0.1532 -0.3342
 2150TP3      O18268   3.495   0.520   1.957  0.1141  0.2255 -0.1131
 2150TP3     H118269   3.554   0.596   1.958  0.4412  0.0061 -1.1219
 2150TP3     H218270   3.503   0.483   2.045  0.1682  1.1914  0.3016
 2151TP3      O18271   2.555   1.631   8.134  0.2082  0.0073  0.1411
 2151TP3     H118272   2.506   1.594   8.060  0.2856 -1.8377  0.9456
 2151TP3     H218273   2.487   1.666   8.192  0.1509  1.5360 -0.7938
 2152TP3      O18274   0.268   2.036   8.514 -0.0385 -0.1054 -0.1388
 2152TP3     H118275   0.348   2.086   8.535  0.1298  0.1972 -1.4383
 2152TP3     H218276   0.232   2.079   8.437 -0.2095 -1.6370 -0.9549
 2153TP3      O18277   5.168   3.543   2.509 -0.2219  0.4476 -0.2828
 2153TP3     H118278   5.155   3.543   2.603 -0.0888  0.6681 -0.2633
 2153TP3     H218279   5.263   3.532   2.498 -0.0574  1.7738 -0.3601
 2154TP3      O18280   2.394   4.574   8.630  0.7776  0.5352  0.3860
 2154TP3     H118281   2.483   4.606   8.613  0.4790  0.7745 -0.8108
 2154TP3     H218282   2.337   4.647   8.606  0.2501  0.3724  1.1264
 2155TP3      O18283   1.064   0.406   1.280 -0.0277  0.2849  0.3300
 2155TP3     H118284   1.047   0.374   1.369  0.1589 -1.4561 -0.2244
 2155TP3     H218285   1.062   0.327   1.226 -1.5198  1.4542 -1.4352
 2156TP3      O18286   1.373   0.051   9.842 -0.0609  0.4482 -0.2248
 2156TP3     H118287   1.335   0.101   9.914 -0.8464 -0.6942  0.1875
 2156TP3     H218288   1.447   0.104   9.812 -0.6329  1.6513  0.4301
 2157TP3      O18289   0.221   0.437   8.603 -0.2346 -0.6241 -0.0250
 2157TP3     H118290   0.166   0.403   8.674 -0.7980 -2.0407 -1.1025
 2157TP3     H218291   0.279   0.364   8.580 -1.2652 -0.8231 -2.2023
 2158TP3      O18292   3.977   0.216   8.181 -0.2166 -0.9661 -0.0457
 2158TP3     H118293   3.980   0.131   8.226 -1.2104 -1.1998 -0.3954
 2158TP3     H218294   4.011   0.197   8.093 -0.2309 -0.9558 -0.0534
 2159TP3      O18295   1.139   4.476  10.073  0.4682  0.7878 -0.1591
 2159TP3     H118296   1.056   4.504  10.110  0.7452  0.9916  0.3113
 2159TP3     H218297   1.127   4.382  10.056 -0.4187  1.1342 -1.6396
 2160TP3      O18298   2.165   0.471   3.118 -0.0446 -0.4753  0.0192
 2160TP3     H118299   2.157   0.566   3.119 -0.1855 -0.4326  2.8158
 2160TP3     H218300   2.233   0.451   3.182 -1.4222 -2.3152  1.0185
 2161TP3      O18301   1.498   3.732   9.158  0.0267 -0.1559  0.2168
 2161TP3     H118302   1.442   3.758   9.231  0.9077  1.6475  0.3027
 2161TP3     H218303   1.554   3.663   9.195 -0.7757 -0.5689  0.6906
 2162TP3      O18304   4.701   4.930   9.210  0.6558  0.1504 -0.4770
 2162TP3     H118305   4.706   5.025   9.199  0.4053  0.0740 -1.3121
 2162TP3     H218306   4.641   4.918   9.283  1.7924  0.6667  0.5756
 2163TP3      O18307   1.361   2.383   1.523  0.5280  0.4879 -0.0022
 2163TP3     H118308   1.421   2.347   1.457 -0.5657  0.3172 -0.9182
 2163TP3     H218309   1.336   2.468   1.489  1.0665  1.0271  0.9038
 2164TP3      O18310   4.302   4.260   9.314 -0.1369  0.0232  0.3599
 2164TP3     H118311   4.311   4.273   9.219  0.7247 -0.9189  0.2851
 2164TP3     H218312   4.243   4.329   9.343 -1.3939 -0.3991 -1.0609
 2165TP3      O18313   2.091   2.679   6.881  0.4403  0.3347 -0.5572
 2165TP3     H118314   2.013   2.673   6.936  0.7212  0.1728 -0.1762
 2165TP3     H218315   2.155   2.624   6.924  0.2109 -0.9717 -1.8199
 2166TP3      O18316   0.450   2.730   2.721  0.1844 -0.8370  0.5323
 2166TP3     H118317   0.486   2.709   2.635 -2.1120 -2.1808 -0.1721
 2166TP3     H218318   0.499   2.673   2.781  2.8214  1.1271  0.4409
 2167TP3      O18319   4.414   2.296   1.839  0.7400  0.4967 -0.1982
 2167TP3     H118320   4.508   2.313   1.837  0.5120  1.7792 -0.9768
 2167TP3     H218321   4.377   2.357   1.775 -0.7317  0.7263  0.8287
 2168TP3      O18322   1.591   4.190   9.031  0.6633  0.4898 -0.0948
 2168TP3     H118323   1.534   4.243   9.087  0.5344 -0.8955  1.1471
 2168TP3     H218324   1.646   4.141   9.092  0.6424 -0.9474 -1.1847
 2169TP3      O18325   5.156   2.889   8.720  0.3864 -0.9819  0.0956
 2169TP3     H118326   5.214   2.814   8.707  2.1896  0.4647 -0.7287
 2169TP3     H218327   5.092   2.882   8.649  2.4587 -0.1276 -2.0317
 2170TP3      O18328   4.343   3.007   1.284 -0.2577  0.5760  0.1786
 2170TP3     H118329   4.275   2.940   1.269 -0.0025 -0.1962  2.1402
 2170TP3     H218330   4.425   2.961   1.271 -0.0949  0.9366 -0.0653
 2171TP3      O18331   4.079   2.200   2.295 -0.2056  0.7862  0.4227
 2171TP3     H118332   4.161   2.193   2.247 -0.0562  1.5975  0.5557
 2171TP3     H218333   4.044   2.111   2.294 -0.1382  0.7483 -1.0636
 2172TP3      O18334   3.016   2.058   1.744 -0.2691  0.3288  0.6721
 2172TP3     H118335   2.922   2.063   1.759 -0.2256  0.3554  0.9463
 2172TP3     H218336   3.052   2.131   1.794 -0.1303  0.5138  0.3075
 2173TP3      O18337   0.120   4.390   8.004  0.2712  0.2909 -0.3467
 2173TP3     H118338   0.150   4.453   8.069 -1.1667 -0.0171  0.6520
 2173TP3     H218339   0.025   4.386   8.016  0.0211 -0.1375 -2.1503
 2174TP3      O18340   2.676   2.697   1.391  0.6073 -0.3197  0.5755
 2174TP3     H118341   2.695   2.616   1.437 -0.8119 -1.0417 -0.0514
 2174TP3     H218342   2.601   2.735   1.438 -0.8565 -1.0571 -1.0382
 2175TP3      O18343   3.611   4.629   0.316  0.2679 -0.7107 -0.0619
 2175TP3     H118344   3.551   4.703   0.317  2.1525  0.8956 -0.2247
 2175TP3     H218345   3.567   4.561   0.368 -1.6143  0.3976 -0.1297
 2176TP3      O18346   3.915   1.101   7.840 -0.3191 -0.1794  0.3126
 2176TP3     H118347   3.984   1.140   7.894  0.1801 -0.6810  0.0491
 2176TP3     H218348   3.940   1.009   7.832 -1.5373 -0.5962  1.0120
 2177TP3      O18349   2.807   2.019   8.945 -0.2928  0.4290  0.1877
 2177TP3     H118350   2.764   1.968   8.876  0.5258  1.2367 -0.9635
 2177TP3     H218351   2.743   2.087   8.967 -1.1365 -0.6791  1.2863
 2178TP3      O18352   4.281   0.059   8.757 -0.2813  0.0750  0.2125
 2178TP3     H118353   4.260   0.060   8.663 -1.2555  0.1836  0.4184
 2178TP3     H218354   4.300   0.151   8.778 -0.3632  0.1002  0.1790
 2179TP3      O18355   3.557   2.113   1.451  0.1008 -0.0140  0.2061
 2179TP3     H118356   3.589   2.181   1.392 -0.4387 -0.3643 -0.5111
 2179TP3     H218357   3.608   2.035   1.428  0.1231 -0.0631  0.4273
 2180TP3      O18358   3.931   4.671   9.101 -0.6683 -0.5643  0.4670
 2180TP3     H118359   3.900   4.727   9.029  0.3638 -1.7078 -0.9412
 2180TP3     H218360   3.991   4.609   9.058 -0.0183 -1.2900  2.3401
 2181TP3      O18361   3.926   0.649   8.627 -0.5581 -0.9556 -0.0884
 2181TP3     H118362   3.991   0.578   8.634  0.1850 -0.2276  0.5702
 2181TP3     H218363   3.958   0.717   8.686 -2.4151 -0.9401  0.9845
 2182TP3      O18364   1.374   0.908   0.034  0.3022 -0.8862  0.0396
 2182TP3     H118365   1.401   0.999   0.027 -0.9365 -0.6032 -1.8195
 2182TP3     H218366   1.323   0.904   0.115 -1.4043  0.6223 -0.8860
 2183TP3      O18367   2.309   4.539   0.127 -0.2759  0.2090  0.3192
 2183TP3     H118368   2.315   4.467   0.065 -2.4126 -2.1507  2.5772
 2183TP3     H218369   2.258   4.606   0.082 -1.1363 -1.1201 -0.7583
 2184TP3      O18370   3.395   1.306   1.116  0.0298  0.4407  0.4615
 2184TP3     H118371   3.470   1.251   1.134 -0.2433 -1.3383 -3.0613
 2184TP3     H218372   3.337   1.294   1.192  2.9478  1.6117  3.1068
 2185TP3      O18373   2.313   3.255   7.502 -0.0905  0.0679  0.4613
 2185TP3     H118374   2.289   3.347   7.498 -1.0494 -0.1558  0.8197
 2185TP3     H218375   2.328   3.230   7.411 -1.2623  0.2205  0.2179
 2186TP3      O18376   1.636   2.344   7.337 -0.1541  0.3263  1.0257
 2186TP3     H118377   1.608   2.280   7.271  1.5864 -0.0159  0.5652
 2186TP3     H218378   1.556   2.390   7.362 -1.3521 -1.5791  0.8791
 2187TP3      O18379   0.713   3.935   0.040  0.6258 -0.2755 -0.1969
 2187TP3     H118380   0.758   3.853   0.058  0.2882 -1.1942 -2.9629
 2187TP3     H218381   0.623   3.920   0.070  0.5112 -1.0357 -0.8793
 2188TP3      O18382   3.552   2.192   0.791 -0.0273 -0.0163  0.2257
 2188TP3     H118383   3.528   2.121   0.851 -1.9404 -0.2791 -0.7628
 2188TP3     H218384   3.645   2.178   0.774 -0.2685 -2.1142  0.3372
 2189TP3      O18385   3.673   3.360   2.769  0.0032 -0.7293  0.2351
 2189TP3     H118386   3.623   3.352   2.850  0.3293 -0.2407  0.4884
 2189TP3     H218387   3.751   3.410   2.793  0.2706 -0.8734 -0.3068
 2190TP3      O18388   5.156   3.411   3.153 -0.7828 -0.5680 -0.1085
 2190TP3     H118389   5.122   3.365   3.230 -0.8669 -1.1096 -0.4667
 2190TP3     H218390   5.188   3.342   3.096  2.1191 -0.0805  0.7550
 2191TP3      O18391   4.272   0.791   1.342  0.2320 -0.0325  0.5485
 2191TP3     H118392   4.199   0.730   1.341 -1.1952  1.5938  1.1349
 2191TP3     H218393   4.338   0.751   1.285 -1.4736 -1.0904 -0.7570
 2192TP3      O18394   1.366   1.390   2.569 -0.1697 -0.2061  0.6536
 2192TP3     H118395   1.364   1.478   2.608  1.1753 -0.3525  1.0893
 2192TP3     H218396   1.387   1.332   2.642 -2.6177 -1.1331  0.7188
 2193TP3      O18397   0.275   3.008   9.608 -0.5017  0.1956 -0.1466
 2193TP3     H118398   0.208   3.077   9.606 -0.9012 -0.1744  0.2074
 2193TP3     H218399   0.341   3.040   9.669 -1.8192 -0.7274  1.8854
 2194TP3      O18400   1.528   4.330   1.116 -0.1356  0.4372  0.1771
 2194TP3     H118401   1.484   4.283   1.187  0.4631  0.4450  0.5626
 2194TP3     H218402   1.563   4.261   1.060  2.7660  0.2961  1.9753
 2195TP3      O18403   1.266   4.672   9.623  0.5007  0.1824  0.5826
 2195TP3     H118404   1.250   4.587   9.583  0.2186 -0.3213  1.7342
 2195TP3     H218405   1.198   4.680   9.691 -1.4282  2.6345 -1.4324
 2196TP3      O18406   1.972   2.040   7.831  0.1133  0.6462  0.2142
 2196TP3     H118407   1.931   2.002   7.909  1.8133  0.4874  1.1001
 2196TP3     H218408   2.021   2.115   7.865 -1.2377  2.2198 -1.1511
 2197TP3      O18409   1.823   2.479   8.600 -0.1983 -0.0870  0.3609
 2197TP3     H118410   1.791   2.505   8.687 -1.1250 -0.2017  0.0539
 2197TP3     H218411   1.759   2.515   8.539  1.0045  0.9020 -0.3609
 2198TP3      O18412   3.550   1.308   8.458 -0.2667  0.2674 -0.6908
 2198TP3     H118413   3.485   1.342   8.519  0.2769 -2.4485  1.5755
 2198TP3     H218414   3.540   1.213   8.462  2.8855 -0.2127 -1.2956
 2199TP3      O18415   4.574   2.365   0.578 -0.0731  0.0450  0.2335
 2199TP3     H118416   4.602   2.377   0.668  1.1889 -0.7912 -0.0263
 2199TP3     H218417   4.607   2.279   0.553 -0.2808  0.3109 -1.0675
 2200TP3      O18418   0.521   1.866   9.587 -0.0641 -0.7130  0.1202
 2200TP3     H118419   0.580   1.791   9.579 -0.7537 -1.2168 -0.4155
 2200TP3     H218420   0.529   1.912   9.504 -0.4693 -0.8305  0.0112
 2201TP3      O18421   3.933   0.137   1.456 -0.1401 -0.1470  0.0203
 2201TP3     H118422   3.960   0.132   1.548 -0.5324 -1.5638  0.0852
 2201TP3     H218423   3.994   0.198   1.416  0.1499  0.3505  1.1866
 2202TP3      O18424   3.307   2.778   9.819  0.3751  0.0518 -0.0944
 2202TP3     H118425   3.264   2.854   9.780 -1.7041 -1.4981 -0.9734
 2202TP3     H218426   3.277   2.778   9.910 -0.8701 -0.5099 -0.4755
 2203TP3      O18427   2.326   4.671   9.417  0.0712  0.0798  0.8664
 2203TP3     H118428   2.327   4.616   9.496 -0.4456 -0.2079  0.6777
 2203TP3     H218429   2.317   4.609   9.345 -1.5797  0.4409  0.7090
 2204TP3      O18430   4.387   2.948   2.817  0.5465  0.2151 -0.0023
 2204TP3     H118431   4.330   2.928   2.742 -0.9592  1.2786  0.8157
 2204TP3     H218432   4.459   2.998   2.779 -0.3926  1.0710 -0.7207
 2205TP3      O18433   4.909   1.747   9.717 -0.0454  0.0185 -0.2235
 2205TP3     H118434   4.881   1.661   9.685 -0.4370 -0.0624  0.3066
 2205TP3     H218435   5.005   1.744   9.715 -0.0585 -0.4036 -0.2827
 2206TP3      O18436   2.409   1.935   9.837  0.1032 -0.4484  0.5355
 2206TP3     H118437   2.401   1.963   9.746 -0.9227  2.1322  1.3283
 2206TP3     H218438   2.325   1.958   9.876  0.1056 -2.5099  1.9491
 2207TP3      O18439   3.748   1.349   8.832  0.3244  0.0126 -0.5042
 2207TP3     H118440   3.786   1.262   8.847 -1.1519 -0.5374  0.2686
 2207TP3     H218441   3.783   1.403   8.902  0.3957 -0.2522 -0.3342
 2208TP3      O18442   4.079   0.999   0.055  0.4092 -0.2704  0.3408
 2208TP3     H118443   4.120   1.066   0.110 -0.2148  1.7519 -1.4878
 2208TP3     H218444   3.987   1.000   0.081 -0.0895  1.3738 -1.2071
 2209TP3      O18445   0.946   4.556   7.242  0.1671  0.0712 -0.0089
 2209TP3     H118446   0.968   4.492   7.174  0.2453  0.0653  0.0218
 2209TP3     H218447   0.963   4.641   7.202 -3.2403  0.2916 -1.3141
 2210TP3      O18448   0.733   4.805   0.714  0.3209 -0.2178  0.1082
 2210TP3     H118449   0.736   4.710   0.701  0.6866 -0.1497 -0.3284
 2210TP3     H218450   0.810   4.838   0.667 -0.1102  0.3449 -0.2200
 2211TP3      O18451   3.380   0.827   7.721 -0.1284 -0.5709 -0.3237
 2211TP3     H118452   3.306   0.878   7.687 -0.9980 -1.7979 -0.3367
 2211TP3     H218453   3.398   0.762   7.653  0.4691 -0.7702  0.0126
 2212TP3      O18454   1.141   0.459   0.998  0.1992  0.4091  0.1547
 2212TP3     H118455   1.232   0.488   0.991  0.7021 -0.4705  2.2034
 2212TP3     H218456   1.096   0.530   1.043  0.0709  0.4373 -0.0138
 2213TP3      O18457   1.394   1.131   7.393 -0.2511 -0.1626 -0.2538
 2213TP3     H118458   1.415   1.207   7.338  2.0006 -0.3772  0.2216
 2213TP3     H218459   1.476   1.082   7.399 -1.2538 -1.8335  0.7318
 2214TP3      O18460   2.376   2.564   7.559  0.2357  0.6039 -0.1942
 2214TP3     H118461   2.369   2.561   7.464  1.9021 -0.4337 -0.3313
 2214TP3     H218462   2.348   2.652   7.583 -0.1036  0.9122 -1.6470
 2215TP3      O18463   1.083   0.756   9.644 -0.2674  0.0311 -0.0766
 2215TP3     H118464   1.026   0.704   9.700 -1.5901  1.4165 -0.0747
 2215TP3     H218465   1.128   0.692   9.589 -1.3900 -1.1444  0.3222
 2216TP3      O18466   1.620   1.655   8.712  0.2837 -0.1261 -0.2383
 2216TP3     H118467   1.527   1.660   8.690 -0.0061 -1.5697  0.5092
 2216TP3     H218468   1.654   1.584   8.657  1.5290  1.9178 -2.2587
 2217TP3      O18469   1.464   4.097   1.991  0.3036  0.2163 -0.5889
 2217TP3     H118470   1.437   4.073   1.902 -0.6329 -0.3899 -0.1631
 2217TP3     H218471   1.388   4.143   2.027 -0.0155 -1.0513  0.4592
 2218TP3      O18472   0.426   2.963   0.714 -0.4587  0.2041 -0.2350
 2218TP3     H118473   0.452   3.031   0.775 -0.6806  1.4010 -1.4233
 2218TP3     H218474   0.508   2.922   0.687 -0.3383 -0.1420  0.6224
 2219TP3      O18475   5.019   1.657   7.405 -0.1493 -0.0888  0.0223
 2219TP3     H118476   4.929   1.662   7.373  0.5814  1.9149 -1.9941
 2219TP3     H218477   5.072   1.648   7.326  1.5018 -0.3517  1.1037
 2220TP3      O18478   1.247   0.052   2.393  0.3642 -0.2821 -0.2508
 2220TP3     H118479   1.206   0.003   2.322  0.0286  1.0064 -0.9807
 2220TP3     H218480   1.185   0.123   2.412  1.5214  0.7686 -0.2975
 2221TP3      O18481   3.468   4.985   9.627 -0.5757  0.4649 -0.0642
 2221TP3     H118482   3.410   4.932   9.572 -0.1869  0.5439 -0.5626
 2221TP3     H218483   3.458   4.948   9.715 -1.0239  0.1776 -0.2309
 2222TP3      O18484   2.566   0.484   0.285  0.0292 -0.0654 -0.2127
 2222TP3     H118485   2.571   0.510   0.193  1.4555 -0.8857 -0.4025
 2222TP3     H218486   2.616   0.552   0.331  1.4153 -0.9366 -0.3736
 2223TP3      O18487   4.722   3.020   9.330  0.2909 -0.6448 -0.1803
 2223TP3     H118488   4.729   3.112   9.354 -1.9119 -0.7051  0.9025
 2223TP3     H218489   4.809   2.984   9.348  0.6222  0.7904  1.3035
 2224TP3      O18490   0.726   4.332   1.432 -0.1480 -0.1456 -0.0981
 2224TP3     H118491   0.640   4.329   1.474 -0.2335 -3.7392 -0.2804
 2224TP3     H218492   0.708   4.307   1.341  1.1623 -2.0836  0.1312
 2225TP3      O18493   4.141   0.301   9.903 -0.4532 -0.1907 -0.7976
 2225TP3     H118494   4.110   0.390   9.919  1.2841  0.2187  0.6065
 2225TP3     H218495   4.222   0.312   9.853  0.1886 -0.9132  0.0418
 2226TP3      O18496   4.230   3.496   8.805  0.7174  0.2960  0.0016
 2226TP3     H118497   4.169   3.433   8.767 -0.3885  0.5700  1.2544
 2226TP3     H218498   4.293   3.513   8.735  1.1800 -2.3304 -0.3247
 2227TP3      O18499   3.549   0.138   7.929 -0.1290 -0.0515 -0.9889
 2227TP3     H118500   3.497   0.098   7.860 -0.7141  0.8653 -1.0996
 2227TP3     H218501   3.618   0.186   7.883  0.2027 -0.4114 -0.8790
 2228TP3      O18502   3.312   1.696   8.278  0.3721  0.0671  0.4961
 2228TP3     H118503   3.232   1.669   8.322  0.1146  0.0163  0.0084
 2228TP3     H218504   3.376   1.628   8.300 -0.0060 -0.4419  0.0547
 2229TP3      O18505   0.462   1.520   8.756  0.1161 -0.3975  0.5732
 2229TP3     H118506   0.515   1.597   8.777  1.0042 -0.6064 -0.7565
 2229TP3     H218507   0.514   1.445   8.786  1.2035 -0.6731 -1.7423
 2230TP3      O18508   1.672   2.948   0.717 -0.6456  0.2480 -0.1189
 2230TP3     H118509   1.584   2.982   0.734 -0.4364  1.1350 -0.7413
 2230TP3     H218510   1.660   2.887   0.644 -0.6089  1.1602 -0.9167
 2231TP3      O18511   2.924   4.350   0.430 -0.6587 -0.1222  0.1257
 2231TP3     H118512   3.009   4.307   0.418 -0.9473 -1.5267  2.5089
 2231TP3     H218513   2.946   4.436   0.466 -0.2260 -0.1409 -0.0893
 2232TP3      O18514   5.227   1.089   7.094 -0.6635  0.4168  0.1392
 2232TP3     H118515   5.261   1.096   7.005 -0.0172 -0.9785  0.2538
 2232TP3     H218516   5.268   1.010   7.129 -2.0839  0.0897  1.1442
 2233TP3      O18517   4.183   0.341   7.479  1.1744 -0.2174 -0.6610
 2233TP3     H118518   4.170   0.408   7.412  0.3467  1.0282  0.6837
 2233TP3     H218519   4.269   0.361   7.517 -0.5641  2.5497  2.2648
 2234TP3      O18520   0.432   4.757   7.707 -0.5991  0.4542  1.0067
 2234TP3     H118521   0.414   4.707   7.627 -0.1461 -1.0233  1.7969
 2234TP3     H218522   0.409   4.847   7.684  1.7890  0.5480 -1.5825
 2235TP3      O18523   1.565   2.301   0.862 -0.1392  0.5998 -0.1273
 2235TP3     H118524   1.533   2.347   0.784 -1.4735  2.7832  1.6159
 2235TP3     H218525   1.640   2.353   0.891  0.1557 -0.0201  0.2428
 2236TP3      O18526   1.221   2.845   0.456 -0.6678 -0.0352  0.3730
 2236TP3     H118527   1.140   2.800   0.431 -0.9337 -0.1324  1.3486
 2236TP3     H218528   1.198   2.938   0.457  0.0524  0.2290 -2.2694
 2237TP3      O18529   4.460   1.257   6.545 -0.3580 -0.2701  0.4529
 2237TP3     H118530   4.380   1.296   6.582  0.5240 -0.2059  2.4563
 2237TP3     H218531   4.428   1.189   6.485 -1.9059  0.7069  0.1071
 2238TP3      O18532   0.020   0.286   1.000 -0.9908  0.2260 -0.2454
 2238TP3     H118533   0.018   0.274   0.905  0.7673  1.7869 -0.5430
 2238TP3     H218534   0.047   0.377   1.012 -0.8620 -0.0285  1.7544
 2239TP3      O18535   2.380   1.766   0.460  0.2976  1.0860 -0.0036
 2239TP3     H118536   2.368   1.724   0.545 -3.7347 -0.0351 -0.8986
 2239TP3     H218537   2.403   1.695   0.400  0.4184  1.3839 -0.3194
 2240TP3      O18538   1.443   1.775   9.166 -0.2719  0.4044 -0.2093
 2240TP3     H118539   1.492   1.696   9.187  1.9972  1.9340  0.6079
 2240TP3     H218540   1.429   1.770   9.071  0.3476 -0.6726 -0.2551
 2241TP3      O18541   2.454   3.969   1.069 -0.0561  0.3968 -0.3718
 2241TP3     H118542   2.389   3.957   1.138 -1.3776  0.9449 -1.4572
 2241TP3     H218543   2.532   4.000   1.114 -1.4108  2.4597  0.7574
 2242TP3      O18544   5.147   3.169   8.435  0.3799  0.7183 -0.0084
 2242TP3     H118545   5.214   3.212   8.382 -0.2503 -1.5831 -2.9726
 2242TP3     H218546   5.196   3.111   8.493  1.0229  1.9791  0.7660
 2243TP3      O18547   1.780   4.492   0.024  0.0555  0.1488 -0.5475
 2243TP3     H118548   1.764   4.578  -0.016  0.9181  0.3664 -0.4419
 2243TP3     H218549   1.694   4.451   0.026 -0.4396  1.1546 -0.2644
 2244TP3      O18550   0.379   3.073   8.199  0.3690  0.2993 -0.2409
 2244TP3     H118551   0.337   3.007   8.254  0.7883 -0.0301 -0.3117
 2244TP3     H218552   0.328   3.153   8.214  0.3668  0.1649  0.4820
 2245TP3      O18553   1.841   1.799   1.206 -0.4712  0.1520  0.0044
 2245TP3     H118554   1.937   1.802   1.204 -0.4575  0.4919  0.7515
 2245TP3     H218555   1.815   1.889   1.226 -0.8775 -0.2539  1.4300
 2246TP3      O18556   3.010   5.223   9.789 -0.0251  0.2271  0.4963
 2246TP3     H118557   2.986   5.252   9.877 -1.3216 -0.0434  0.2567
 2246TP3     H218558   3.047   5.301   9.747 -1.9512  1.1523  0.3974
 2247TP3      O18559   0.612   4.432   9.606 -0.0791  0.3348  0.0768
 2247TP3     H118560   0.620   4.386   9.690 -2.3289 -0.2964  0.0025
 2247TP3     H218561   0.674   4.388   9.548 -0.1277 -0.7287  0.8060
 2248TP3      O18562   2.476   0.920   0.782  0.4705  0.1559  0.8503
 2248TP3     H118563   2.389   0.955   0.766  0.8937  0.6834 -0.3419
 2248TP3     H218564   2.475   0.833   0.742  0.9071  0.6927 -0.3404
 2249TP3      O18565   3.447   3.052   9.983 -0.2646 -0.0804  0.2914
 2249TP3     H118566   3.397   3.041   9.902 -0.2343  0.7710  0.1489
 2249TP3     H218567   3.496   3.134   9.970 -0.2044  0.0254  1.1409
 2250TP3      O18568   1.212   3.824   1.213 -0.2883 -0.0436  0.1221
 2250TP3     H118569   1.274   3.841   1.284 -2.2209 -1.1725  2.2331
 2250TP3     H218570   1.206   3.728   1.210 -0.9336  0.0245 -0.9364
 2251TP3      O18571   4.574   4.945   7.972 -0.1168 -0.1200  0.1445
 2251TP3     H118572   4.589   4.887   8.046 -0.6363  0.2965  0.5857
 2251TP3     H218573   4.478   4.948   7.962 -0.0430 -0.5820 -0.8777
 2252TP3      O18574   3.645   4.328   8.206 -0.0157  0.6857  0.0113
 2252TP3     H118575   3.633   4.285   8.291  0.3434 -0.7943 -0.6589
 2252TP3     H218576   3.677   4.416   8.228 -2.5241  1.3566  1.4944
 2253TP3      O18577   3.764   1.202   8.289  0.0035  0.7173 -0.1690
 2253TP3     H118578   3.693   1.224   8.350  0.0249  1.9256 -0.5509
 2253TP3     H218579   3.812   1.132   8.334  0.5455  2.1618  1.6570
 2254TP3      O18580   3.286   4.731   9.016 -0.4694 -0.6222 -0.2511
 2254TP3     H118581   3.288   4.825   9.035  1.3381 -0.8308  0.8289
 2254TP3     H218582   3.193   4.710   9.008 -1.0360  0.8468  1.7276
 2255TP3      O18583   2.225   1.959   8.863 -0.0966  0.2212 -0.0652
 2255TP3     H118584   2.245   2.050   8.841  0.0128 -0.0797 -1.3043
 2255TP3     H218585   2.278   1.940   8.940 -0.8783  1.4961  0.8207
 2256TP3      O18586   2.178   0.264   2.956  0.4223  0.2051 -0.4011
 2256TP3     H118587   2.243   0.206   2.995  0.8498  0.4451 -0.7478
 2256TP3     H218588   2.172   0.338   3.016 -3.4353 -2.1053  2.5731
 2257TP3      O18589   3.867   3.456   0.439  0.0091  0.1066 -0.2856
 2257TP3     H118590   3.883   3.363   0.452 -0.9502 -0.0170  0.1010
 2257TP3     H218591   3.776   3.469   0.467  0.5016  1.3889  0.8597
 2258TP3      O18592   5.133   0.141   7.873 -0.0918  0.5509  0.3508
 2258TP3     H118593   5.156   0.048   7.874 -0.1076  0.3937 -3.1496
 2258TP3     H218594   5.037   0.143   7.878 -0.0907  0.3794  0.4333
 2259TP3      O18595   2.551   0.930   9.074 -0.7792  0.0246  0.0483
 2259TP3     H118596   2.618   0.863   9.060  0.9069  1.8746 -1.2627
 2259TP3     H218597   2.470   0.880   9.083  0.3945 -2.1984 -0.7945
 2260TP3      O18598   2.606   3.205   8.859 -0.7011  0.4105  0.0208
 2260TP3     H118599   2.598   3.154   8.778 -1.0641 -2.2688  1.6121
 2260TP3     H218600   2.519   3.200   8.899  0.2431 -1.1487  2.0627
 2261TP3      O18601   3.288   4.461   7.481 -0.1773  0.5931  0.8664
 2261TP3     H118602   3.237   4.491   7.405  0.2557  1.7441  0.9988
 2261TP3     H218603   3.360   4.411   7.443 -1.0904 -0.6005  0.6478
 2262TP3      O18604   0.741   0.511   2.589  0.4104 -0.1379  0.4632
 2262TP3     H118605   0.761   0.418   2.600  0.3082 -0.0634  1.3652
 2262TP3     H218606   0.756   0.528   2.496  1.0292 -0.9171  0.4063
 2263TP3      O18607   3.038   4.386   7.850 -0.7584 -0.7039  0.2380
 2263TP3     H118608   3.128   4.419   7.860 -0.0550 -2.4110  0.0132
 2263TP3     H218609   3.005   4.430   7.772  0.1602 -0.6097 -0.1166
 2264TP3      O18610   0.345   0.212   1.052 -0.6497  0.5674 -0.2871
 2264TP3     H118611   0.326   0.216   0.958 -0.9544 -1.2885 -0.3535
 2264TP3     H218612   0.438   0.193   1.056 -0.7377  0.1230 -0.2485
 2265TP3      O18613   1.582   0.115   2.289  0.2250 -0.0299  0.3315
 2265TP3     H118614   1.630   0.152   2.364 -0.3857  2.2354 -0.2989
 2265TP3     H218615   1.535   0.190   2.252 -2.1829 -1.7386 -0.3133
 2266TP3      O18616   3.905   5.044   8.367  0.5123 -0.4191  0.6760
 2266TP3     H118617   3.923   5.092   8.287  1.1186 -1.6203  0.0633
 2266TP3     H218618   3.817   5.070   8.393  0.0372 -0.5444 -0.7700
 2267TP3      O18619   3.160   0.278   6.608 -0.3126  1.1021  0.0570
 2267TP3     H118620   3.253   0.271   6.627 -0.5223 -0.2563  0.7122
 2267TP3     H218621   3.145   0.372   6.594  1.3923  1.1954 -1.4588
 2268TP3      O18622   4.213   4.603   8.055  0.4572 -0.6382  0.3300
 2268TP3     H118623   4.135   4.588   8.001  0.6207  1.6960 -0.6473
 2268TP3     H218624   4.180   4.647   8.133  0.9051  2.0472 -0.8983
 2269TP3      O18625   3.720   3.668   8.227  0.0754 -0.0654  0.4925
 2269TP3     H118626   3.783   3.708   8.167 -0.2805 -1.6195 -0.9869
 2269TP3     H218627   3.774   3.632   8.297  0.6662  0.2899  0.2324
 2270TP3      O18628   0.660   0.818   2.993 -0.1717  0.7813  0.2103
 2270TP3     H118629   0.685   0.741   2.942 -0.0348 -0.3382  1.9266
 2270TP3     H218630   0.721   0.820   3.066 -1.2324  1.5540  1.1101
 2271TP3      O18631   1.899   1.852   2.722 -0.4208 -0.1532  0.1594
 2271TP3     H118632   1.954   1.918   2.680 -0.5327 -0.0995  0.0957
 2271TP3     H218633   1.822   1.846   2.665 -0.5754 -0.0782  0.3611
 2272TP3      O18634   3.337   3.098   8.731 -0.4596  0.3490 -0.1958
 2272TP3     H118635   3.335   3.062   8.643 -0.5058 -0.0182 -0.0470
 2272TP3     H218636   3.383   3.031   8.783 -1.1553  0.1808  0.2217
 2273TP3      O18637   2.572   0.177   9.607 -0.1981  0.3646  0.2129
 2273TP3     H118638   2.525   0.105   9.649 -0.0500  0.5197  0.6512
 2273TP3     H218639   2.592   0.237   9.679 -1.1243  1.2961 -0.2704
 2274TP3      O18640   2.584   0.550   2.397  0.2834  0.3462  0.8866
 2274TP3     H118641   2.607   0.494   2.471 -1.3841 -1.3321  0.2100
 2274TP3     H218642   2.663   0.554   2.344  1.0265  0.3201  1.9428
 2275TP3      O18643   2.068   1.519   9.790  0.4439  0.1234  0.0254
 2275TP3     H118644   1.984   1.546   9.826 -0.0315 -0.0871 -0.9029
 2275TP3     H218645   2.100   1.453   9.853 -1.2354 -1.6250 -0.8360
 2276TP3      O18646   5.252   0.910   0.462 -0.2717  0.5847  0.2636
 2276TP3     H118647   5.301   0.938   0.385 -1.8275  2.0803 -0.2602
 2276TP3     H218648   5.166   0.952   0.452 -2.1470 -2.7673  0.4998
 2277TP3      O18649   2.844   3.268   8.515  0.2225 -0.1091  0.4140
 2277TP3     H118650   2.893   3.240   8.592 -0.5465 -1.7960  0.3365
 2277TP3     H218651   2.892   3.232   8.441 -0.2449 -0.3864  0.2410
 2278TP3      O18652   5.250   1.159   1.301  0.0657 -0.2075  0.2311
 2278TP3     H118653   5.234   1.068   1.327  0.8622  0.3708  3.0542
 2278TP3     H218654   5.186   1.209   1.351 -0.0433  0.8469 -0.9323
 2279TP3      O18655   4.845   0.787   1.976  0.2423 -0.2458  0.2872
 2279TP3     H118656   4.792   0.866   1.984  0.3440 -0.2482  1.1680
 2279TP3     H218657   4.919   0.813   1.921 -0.8506 -0.3551 -1.2960
 2280TP3      O18658   0.213   0.876   1.429  0.3641  1.1078 -0.8657
 2280TP3     H118659   0.252   0.842   1.349  0.7915 -0.3226 -0.0861
 2280TP3     H218660   0.238   0.969   1.431  1.0955  0.9420 -1.9255
 2281TP3      O18661   2.727   0.182   1.448  0.5815 -0.4798 -0.4542
 2281TP3     H118662   2.651   0.158   1.394  0.3017  0.4521 -0.4895
 2281TP3     H218663   2.744   0.104   1.501 -1.4783 -0.1437  0.8069
 2282TP3      O18664   4.899   4.953   9.615  0.0046  0.4084  0.2342
 2282TP3     H118665   4.895   4.858   9.607  2.6323  0.1382  1.2205
 2282TP3     H218666   4.857   4.972   9.700  2.3564 -0.3026  1.6567
 2283TP3      O18667   3.716   0.986   2.491 -1.0254 -0.2875  0.4769
 2283TP3     H118668   3.783   0.931   2.532 -0.3807 -1.1241 -1.5390
 2283TP3     H218669   3.722   1.069   2.537  1.0054 -0.5353  0.7764
 2284TP3      O18670   0.253   0.295   0.788 -0.5106 -0.1026 -0.0177
 2284TP3     H118671   0.334   0.328   0.750 -1.1569 -1.0767 -2.4002
 2284TP3     H218672   0.216   0.371   0.835  0.9407  0.8060 -0.2916
 2285TP3      O18673   1.089   4.133   2.034  0.5984 -0.1510  0.4032
 2285TP3     H118674   1.105   4.220   2.070 -3.1581  0.7073  0.3370
 2285TP3     H218675   1.065   4.079   2.110  0.9497 -0.6059  0.1970
 2286TP3      O18676   1.910   4.102   2.711 -0.4490  0.4246 -0.3327
 2286TP3     H118677   1.931   4.095   2.804  2.3909 -0.5642 -0.9482
 2286TP3     H218678   1.856   4.026   2.692  1.1595 -0.8760  0.0543
 2287TP3      O18679   1.904   4.156   7.482 -0.9375  0.3099 -0.1719
 2287TP3     H118680   1.893   4.165   7.576 -1.3560 -1.7274  0.0256
 2287TP3     H218681   1.850   4.226   7.445 -3.9971 -1.1693  1.0819
 2288TP3      O18682   0.598   1.360   1.856 -0.0737 -0.1784  1.2083
 2288TP3     H118683   0.657   1.337   1.927 -0.0288 -2.9161  0.3727
 2288TP3     H218684   0.541   1.284   1.845 -0.7631  0.5686 -0.9781
 2289TP3      O18685   0.410   1.134   1.908  0.1473 -0.0055 -0.2855
 2289TP3     H118686   0.446   1.072   1.972  1.6598  0.9360 -0.1759
 2289TP3     H218687   0.365   1.079   1.844 -0.5900 -1.0380  1.0471
 2290TP3      O18688   2.126   2.849   0.408  0.0192  0.4190  0.0455
 2290TP3     H118689   2.219   2.861   0.388  0.2067 -0.0424  0.6405
 2290TP3     H218690   2.107   2.759   0.384  0.1131  0.0238  1.4141
 2291TP3      O18691   2.365   5.229   8.852 -0.0113 -0.0448 -0.5003
 2291TP3     H118692   2.433   5.189   8.797 -0.0314 -0.5912 -0.1392
 2291TP3     H218693   2.393   5.210   8.941 -1.2346 -1.3452 -0.3501
 2292TP3      O18694   4.121   1.340   1.998 -0.3385 -0.3261 -0.4800
 2292TP3     H118695   4.188   1.408   1.998 -0.7140  0.0992  1.4236
 2292TP3     H218696   4.162   1.265   2.040 -0.5102 -0.6843 -0.9313
 2293TP3      O18697   2.207   2.736   9.177  0.2307 -0.5111  0.0427
 2293TP3     H118698   2.117   2.768   9.171 -0.4217 -1.5431  2.9072
 2293TP3     H218699   2.259   2.803   9.133 -1.7185  1.1643  0.1452
 2294TP3      O18700   4.948   0.025   8.800 -0.4899 -0.4239 -0.2347
 2294TP3     H118701   4.999   0.002   8.879 -0.2247  0.0322 -0.2723
 2294TP3     H218702   4.857   0.019   8.828 -0.3850  0.8080  0.4156
 2295TP3      O18703   2.639   1.218   3.237  0.1457  0.3793  0.2148
 2295TP3     H118704   2.582   1.290   3.209  0.0027  0.7947  1.5291
 2295TP3     H218705   2.728   1.255   3.230  0.2313 -0.0432 -1.1726
 2296TP3      O18706   3.558   3.704   2.852  0.3902  0.0165  0.1405
 2296TP3     H118707   3.640   3.708   2.803  0.1314  2.0837 -0.2063
 2296TP3     H218708   3.585   3.717   2.943  0.5232 -0.0745  0.1144
 2297TP3      O18709   2.059   4.700   8.823  0.0569 -0.5779 -0.2938
 2297TP3     H118710   2.131   4.678   8.882  1.7861  2.8551 -0.8704
 2297TP3     H218711   1.985   4.719   8.881  1.2882  1.2850  0.7659
 2298TP3      O18712   1.528   0.909   3.552 -0.3415  0.2131 -0.4648
 2298TP3     H118713   1.514   0.817   3.574 -0.1493  0.1063 -0.7734
 2298TP3     H218714   1.621   0.924   3.567 -0.5716  0.6580  0.6446
 2299TP3      O18715   1.758   0.219   3.446 -0.5209 -0.0246  0.5675
 2299TP3     H118716   1.665   0.214   3.421 -0.4123 -0.9273  0.2724
 2299TP3     H218717   1.763   0.290   3.509 -1.0903  1.3069 -0.8278
 2300TP3      O18718   2.923   0.158   8.553  0.3726 -0.7308 -0.1876
 2300TP3     H118719   2.875   0.183   8.632  0.5785 -0.8517 -0.0254
 2300TP3     H218720   3.013   0.144   8.582  0.7492  0.5075 -0.6642
 2301TP3      O18721   2.736   3.220   8.175  0.2562  0.0974 -0.1975
 2301TP3     H118722   2.747   3.311   8.202 -0.2827  0.1415 -0.0985
 2301TP3     H218723   2.823   3.181   8.182  0.5860  0.7284 -0.7211
 2302TP3      O18724   2.423   4.676   0.999 -0.0433 -0.2956 -0.3982
 2302TP3     H118725   2.429   4.743   1.067 -0.2086  0.9577 -1.5651
 2302TP3     H218726   2.445   4.594   1.043 -0.3319  0.4477  1.1874
 2303TP3      O18727   4.616   0.314   9.670  0.2161  0.2358 -0.4123
 2303TP3     H118728   4.663   0.293   9.589  0.6605 -1.2286  0.1809
 2303TP3     H218729   4.620   0.233   9.721  0.8778  1.4187  1.5306
 2304TP3      O18730   2.958   2.751   1.889 -0.5242  0.0650  0.1293
 2304TP3     H118731   2.945   2.778   1.980  0.1911 -1.8100  0.8465
 2304TP3     H218732   3.051   2.733   1.883 -0.5295  0.3800 -1.0542
 2305TP3      O18733   4.843   4.204   7.965  0.4337 -0.1339  0.7466
 2305TP3     H118734   4.927   4.247   7.953 -0.3030  1.8349  2.0771
 2305TP3     H218735   4.864   4.119   8.004  1.7705  0.6114  1.7176
 2306TP3      O18736   2.939   0.112   0.909  0.0483  0.1208  0.4547
 2306TP3     H118737   2.986   0.175   0.854 -0.9060  0.1100 -0.4015
 2306TP3     H218738   2.855   0.154   0.926  0.2942  0.0897  1.8670
 2307TP3      O18739   5.006   0.885   9.032 -0.7957  0.3320 -0.0323
 2307TP3     H118740   5.001   0.978   9.013 -1.5304  0.2492 -0.2543
 2307TP3     H218741   5.001   0.879   9.127  1.2629  0.6378  0.1431
 2308TP3      O18742   1.776   4.631   6.574  0.1575 -0.2757  0.6173
 2308TP3     H118743   1.747   4.591   6.492  0.5416 -0.0729  0.3814
 2308TP3     H218744   1.750   4.568   6.641 -0.8133 -0.1059  0.4127
 2309TP3      O18745   5.079   2.880   7.540  0.1791 -0.1791 -0.6676
 2309TP3     H118746   5.080   2.859   7.633  0.2614  0.5287 -0.4985
 2309TP3     H218747   5.134   2.814   7.499  1.2182  0.2776 -0.0355
 2310TP3      O18748   1.119   1.191   2.651 -0.3529 -0.0245  0.0185
 2310TP3     H118749   1.142   1.268   2.702  0.9256  0.9013 -1.8516
 2310TP3     H218750   1.047   1.219   2.594  1.0378  0.3044 -1.6805
 2311TP3      O18751   0.160   0.518   0.318 -0.0915 -0.1873 -0.1047
 2311TP3     H118752   0.247   0.548   0.345 -0.4961  0.9466 -0.0215
 2311TP3     H218753   0.106   0.597   0.315 -0.5517 -0.5008 -2.4513
 2312TP3      O18754   1.833   3.837   9.964  0.7430  0.5416  0.5576
 2312TP3     H118755   1.761   3.872  10.016  0.1325 -2.5949  2.0421
 2312TP3     H218756   1.900   3.905   9.967 -2.2060  3.8435 -1.3495
 2313TP3      O18757   4.824   2.992   1.439 -0.1586  0.0810  0.6539
 2313TP3     H118758   4.761   3.056   1.471 -0.4583  0.1114  0.0022
 2313TP3     H218759   4.887   3.044   1.388 -1.0197 -0.2670 -0.8108
 2314TP3      O18760   1.709   3.069   1.580  0.2837  0.1585  0.2105
 2314TP3     H118761   1.728   3.150   1.629  1.1767  0.3008 -0.3349
 2314TP3     H218762   1.724   3.094   1.488  0.7277 -0.6647  0.0539
 2315TP3      O18763   4.145   1.838   0.199  0.6901  0.8051  0.0003
 2315TP3     H118764   4.055   1.869   0.200  0.5152  0.5261 -2.2877
 2315TP3     H218765   4.198   1.915   0.180  0.5309  0.3885 -2.5033
 2316TP3      O18766   1.335   0.064   0.546  0.6874  0.0955  0.0850
 2316TP3     H118767   1.396   0.004   0.503  0.2007 -0.4513  0.1586
 2316TP3     H218768   1.390   0.110   0.610  0.8841 -0.9808  0.7316
 2317TP3      O18769   0.460   3.846   0.088  0.3224  0.7425  0.3771
 2317TP3     H118770   0.433   3.919   0.033 -1.9605 -0.4411 -0.2163
 2317TP3     H218771   0.378   3.805   0.115  1.5075 -1.7872  0.4241
 2318TP3      O18772   0.487   4.976   1.206  0.7811 -0.1848 -0.1018
 2318TP3     H118773   0.491   4.905   1.142 -1.9353 -0.1931 -0.3507
 2318TP3     H218774   0.522   4.938   1.287  3.7247 -0.3335 -1.3045
 2319TP3      O18775   4.836   2.652   9.851 -0.0600  0.2051  0.0906
 2319TP3     H118776   4.806   2.568   9.816 -0.4290  0.4900 -0.2900
 2319TP3     H218777   4.808   2.652   9.942 -0.0405 -0.0896  0.0968
 2320TP3      O18778   4.533   5.166   0.958  0.1330 -0.5845 -0.3236
 2320TP3     H118779   4.598   5.174   0.887 -1.1779 -0.3338 -1.5381
 2320TP3     H218780   4.559   5.234   1.020 -1.4685  2.6922 -2.9188
 2321TP3      O18781   2.682   0.165   1.160 -0.2203  0.3443  0.4995
 2321TP3     H118782   2.597   0.190   1.197 -0.1422  0.5105  0.5675
 2321TP3     H218783   2.730   0.248   1.153  0.0955  0.1963  0.8666
 2322TP3      O18784   1.459   1.355   7.274 -0.0115 -0.1661 -0.3917
 2322TP3     H118785   1.545   1.393   7.259  0.7606  0.0130  3.5482
 2322TP3     H218786   1.401   1.430   7.287 -0.1102 -0.2960 -0.0739
 2323TP3      O18787   0.260   1.994   7.802  0.3697  0.4842 -0.8195
 2323TP3     H118788   0.264   1.902   7.828  1.9633  0.6388 -0.3788
 2323TP3     H218789   0.324   2.037   7.859  0.0328  1.7696 -1.3867
 2324TP3      O18790   2.471   5.028   9.568 -0.1619  0.0482 -0.3218
 2324TP3     H118791   2.429   5.020   9.482 -0.8041  3.1014 -0.4340
 2324TP3     H218792   2.398   5.024   9.631 -0.0392  0.4057 -0.1504
 2325TP3      O18793   4.713   4.212   8.439  0.1783 -0.0904  0.0302
 2325TP3     H118794   4.766   4.183   8.513  0.8997  1.1021  0.0172
 2325TP3     H218795   4.715   4.138   8.378  0.4097 -0.7047  0.7659
 2326TP3      O18796   4.955   2.703   2.292  0.1068 -0.2214 -0.5376
 2326TP3     H118797   4.881   2.745   2.248 -0.2634 -0.3285 -0.0304
 2326TP3     H218798   4.917   2.625   2.333  0.5427 -0.3880 -0.4459
 2327TP3      O18799   1.015   4.412   8.013  0.2995 -0.1152 -0.2677
 2327TP3     H118800   1.030   4.321   8.038  1.2169 -0.1511 -0.8784
 2327TP3     H218801   0.948   4.408   7.945  0.2582 -0.3264 -0.2143
 2328TP3      O18802   1.048   4.209   2.607  0.0301 -0.4403  0.2455
 2328TP3     H118803   1.101   4.278   2.648  1.7175 -1.2047 -0.5276
 2328TP3     H218804   1.096   4.128   2.625 -0.8436 -1.1578 -0.5627
 2329TP3      O18805   0.542   4.389   8.861  0.0454 -0.3370 -0.7583
 2329TP3     H118806   0.497   4.322   8.810 -0.3933  0.3041 -1.2168
 2329TP3     H218807   0.611   4.420   8.802 -0.8335  0.8214 -1.2004
 2330TP3      O18808   4.928   3.042   8.916  0.0132 -0.9563 -0.1368
 2330TP3     H118809   4.843   3.060   8.957  0.5264  0.9075  0.1626
 2330TP3     H218810   4.908   2.976   8.849 -1.4948 -1.2664  0.5700
 2331TP3      O18811   4.331   2.190   0.711 -0.1326  0.4365  0.4345
 2331TP3     H118812   4.252   2.154   0.670  1.1026 -0.4818 -1.2634
 2331TP3     H218813   4.377   2.234   0.640  1.1057  0.5665  1.2856
 2332TP3      O18814   0.094   0.059   0.270  0.3612  0.2531 -0.0320
 2332TP3     H118815   0.044   0.054   0.351  1.0487 -2.8951  0.3053
 2332TP3     H218816   0.028   0.073   0.202 -0.5878 -0.4000  0.7346
 2333TP3      O18817   1.023   4.076   9.825 -0.2919  0.0905 -0.1012
 2333TP3     H118818   0.998   4.085   9.734 -0.9031  1.2149  0.1618
 2333TP3     H218819   0.941   4.062   9.872  0.0619 -1.0221  0.2409
 2334TP3      O18820   3.878   5.105   9.866  0.7633  0.3070  0.2848
 2334TP3     H118821   3.829   5.047   9.809 -1.1047  2.0447  0.0228
 2334TP3     H218822   3.953   5.134   9.812 -0.4838  1.2250 -1.0416
 2335TP3      O18823   0.758   2.907   8.474  0.4546 -0.3834  0.5382
 2335TP3     H118824   0.668   2.931   8.497 -0.5103 -2.4103 -0.8658
 2335TP3     H218825   0.788   2.978   8.417 -0.9967 -0.6517 -0.6114
 2336TP3      O18826   2.499   1.804   0.868 -0.1273 -0.2599  0.6476
 2336TP3     H118827   2.424   1.849   0.830 -0.4501 -0.3173  1.2139
 2336TP3     H218828   2.488   1.712   0.842  0.4835 -0.0475 -0.4313
 2337TP3      O18829   4.427   4.933   2.463 -1.0376  0.5061 -0.3740
 2337TP3     H118830   4.392   4.880   2.392 -1.0053  1.6552 -1.2724
 2337TP3     H218831   4.485   4.996   2.419 -0.6486  0.9294  0.7208
 2338TP3      O18832   0.165   0.074   9.444  0.0333  0.3472 -0.9398
 2338TP3     H118833   0.238   0.013   9.453  0.3193  0.8147 -0.0142
 2338TP3     H218834   0.088   0.018   9.431  0.2865 -0.2143 -0.0672
 2339TP3      O18835   2.695   5.170   0.014  0.1676  0.0757  0.5136
 2339TP3     H118836   2.695   5.078  -0.012  0.1763  0.8242 -2.5371
 2339TP3     H218837   2.613   5.205  -0.022  0.3995  1.3719  1.1799
 2340TP3      O18838   3.717   3.990   7.422  0.0780  0.5687  0.1685
 2340TP3     H118839   3.692   3.957   7.336 -3.0532  1.9024  0.3957
 2340TP3     H218840   3.707   4.085   7.416 -0.2343  0.7031  1.9723
 2341TP3      O18841   3.634   3.927   1.135  0.0561 -0.5646  0.0109
 2341TP3     H118842   3.715   3.879   1.118  0.9055  1.0273 -0.5683
 2341TP3     H218843   3.639   4.004   1.079 -0.0203  1.5767  2.7486
 2342TP3      O18844   2.526   0.349   9.133  0.3341  0.3593  0.1987
 2342TP3     H118845   2.509   0.359   9.226  1.0051 -2.7616  0.7976
 2342TP3     H218846   2.621   0.358   9.124  0.4904 -1.0891  0.1650
 2343TP3      O18847   2.154   3.240   9.974  0.0499  0.1559  0.2430
 2343TP3     H118848   2.075   3.275  10.015 -0.3932 -0.7299  0.1520
 2343TP3     H218849   2.193   3.316   9.930 -0.6469  0.6344  0.4325
 2344TP3      O18850   3.065   4.911   1.618  0.3316  0.0575  0.3971
 2344TP3     H118851   3.129   4.976   1.648 -0.6176  0.9624  0.5358
 2344TP3     H218852   3.009   4.960   1.557  1.4102 -1.3943 -1.8922
 2345TP3      O18853   3.121   2.170   7.671  0.7566  0.4079  0.1915
 2345TP3     H118854   3.062   2.132   7.606  0.6280  0.8304  0.0606
 2345TP3     H218855   3.065   2.184   7.748  0.1603  2.6893 -0.5747
 2346TP3      O18856   3.734   0.771   6.289  0.6336 -0.1567  0.3491
 2346TP3     H118857   3.824   0.746   6.308  1.0117  1.1995  0.4224
 2346TP3     H218858   3.696   0.694   6.247  2.3176 -0.1733 -1.2256
 2347TP3      O18859   2.547   4.237   1.985 -0.1545 -0.1596 -0.0329
 2347TP3     H118860   2.474   4.198   2.033 -0.2077  0.1047  0.1020
 2347TP3     H218861   2.595   4.287   2.051  0.0768 -0.2320 -0.1466
 2348TP3      O18862   4.114   0.121   7.189 -0.1336 -0.0811 -0.0675
 2348TP3     H118863   4.068   0.204   7.202 -1.9663 -1.0778  0.1826
 2348TP3     H218864   4.056   0.070   7.133  0.5717 -1.4837  0.4226
 2349TP3      O18865   5.117   4.989   2.179 -0.3676  0.2150  0.1326
 2349TP3     H118866   5.183   5.052   2.152  0.1816  0.0669  1.0916
 2349TP3     H218867   5.057   5.039   2.235 -2.0916  0.7771 -2.0680
 2350TP3      O18868   4.649   0.890   7.376 -0.1924 -0.2124  0.2994
 2350TP3     H118869   4.671   0.908   7.284 -1.9456  1.3116  0.1060
 2350TP3     H218870   4.720   0.834   7.407  1.4672  0.7821 -1.4445
 2351TP3      O18871   4.531   2.764   0.231  0.8014  0.1637 -0.1936
 2351TP3     H118872   4.458   2.769   0.293 -1.3624  2.0596 -2.6615
 2351TP3     H218873   4.575   2.682   0.252 -2.1535 -1.1628  1.3344
 2352TP3      O18874   4.821   1.406   0.434  0.2284 -0.0172  0.1046
 2352TP3     H118875   4.861   1.489   0.408 -1.5200  1.0122  0.5780
 2352TP3     H218876   4.737   1.404   0.389  0.8057 -2.2474 -1.0626
 2353TP3      O18877   2.824   4.405   8.257 -0.2784 -0.0348 -0.0916
 2353TP3     H118878   2.795   4.432   8.170 -1.0450 -1.4461 -0.2977
 2353TP3     H218879   2.866   4.320   8.244 -0.7765 -0.4668  0.9581
 2354TP3      O18880   3.567   3.837   9.562 -0.6963  0.4922 -0.0119
 2354TP3     H118881   3.476   3.813   9.547 -0.4528 -0.0458 -0.6799
 2354TP3     H218882   3.562   3.918   9.613 -1.5400  0.4219  0.0378
 2355TP3      O18883   0.412   3.620   0.754  0.1280  0.2756 -0.1841
 2355TP3     H118884   0.346   3.636   0.821  0.4091  0.8617 -0.0391
 2355TP3     H218885   0.447   3.707   0.734 -0.4088  0.1956 -1.5741
 2356TP3      O18886   4.514   4.535   0.240  0.3219 -0.3240  0.4856
 2356TP3     H118887   4.530   4.575   0.155  1.6980 -2.4186 -0.3237
 2356TP3     H218888   4.601   4.528   0.280 -0.1578 -0.4901  1.5390
 2357TP3      O18889   3.138   1.560   3.273 -0.4696 -0.2879  0.1960
 2357TP3     H118890   3.124   1.529   3.362  0.4752  1.1597  0.8951
 2357TP3     H218891   3.206   1.501   3.238  1.5234  1.0516  1.6006
 2358TP3      O18892   5.239   5.163   9.373 -0.5799  0.0790 -0.2925
 2358TP3     H118893   5.149   5.135   9.388 -0.3985  0.0586  0.7987
 2358TP3     H218894   5.287   5.082   9.356 -0.4759 -0.0664  0.6664
 2359TP3      O18895   1.566   4.808   1.819  0.2063 -0.3363  0.3520
 2359TP3     H118896   1.502   4.803   1.748 -2.5531 -0.4509  2.6706
 2359TP3     H218897   1.553   4.895   1.856  1.7393 -0.2060  0.6536
 2360TP3      O18898   2.930   3.596   1.192  0.3173  0.1644  0.0627
 2360TP3     H118899   3.009   3.591   1.139  0.7945  0.4819  0.7275
 2360TP3     H218900   2.943   3.529   1.260 -0.4300 -0.4650 -0.3913
 2361TP3      O18901   1.807   1.813   9.422  0.1860  0.0333 -0.8490
 2361TP3     H118902   1.718   1.847   9.409 -0.3732 -1.3056 -0.7650
 2361TP3     H218903   1.799   1.757   9.500  0.9638 -0.5383 -1.1687
 2362TP3      O18904   2.544   5.029   8.609 -0.0829  0.2031  0.4787
 2362TP3     H118905   2.625   5.018   8.560 -0.2228  0.6255  0.1531
 2362TP3     H218906   2.536   4.948   8.661 -0.9436 -1.1812 -1.6732
 2363TP3      O18907   0.691   2.617   2.204  0.4420  0.6707  0.4978
 2363TP3     H118908   0.598   2.596   2.205  0.8514 -1.2029  1.6093
 2363TP3     H218909   0.731   2.546   2.154  1.2215  1.9149 -0.7391
 2364TP3      O18910   0.250   3.966   2.388 -0.4315 -0.1815 -0.2438
 2364TP3     H118911   0.220   3.881   2.420  0.3358 -0.3804 -0.0178
 2364TP3     H218912   0.183   4.028   2.416 -0.3627 -0.5322  0.7310
 2365TP3      O18913   5.114   0.399   9.312 -0.5098  0.2452 -0.0143
 2365TP3     H118914   5.109   0.392   9.217 -1.3338  1.6199 -0.1004
 2365TP3     H218915   5.105   0.492   9.330  1.6601  0.2557  1.3371
 2366TP3      O18916   0.703   4.287   0.461  0.2820  0.0828  0.5537
 2366TP3     H118917   0.765   4.298   0.533 -0.6812  2.0438  1.1548
 2366TP3     H218918   0.618   4.308   0.499 -0.0367  3.3715 -1.5167
 2367TP3      O18919   1.447   3.807   8.593 -0.0480  0.8445 -0.2552
 2367TP3     H118920   1.515   3.847   8.539 -0.3946 -1.6581 -2.8155
 2367TP3     H218921   1.368   3.858   8.574  0.5996  2.3381  0.9383
 2368TP3      O18922   4.188   2.109   7.879 -0.1675 -0.0946 -0.0980
 2368TP3     H118923   4.186   2.031   7.823 -0.2581 -0.3733  0.2853
 2368TP3     H218924   4.166   2.076   7.967 -2.4953  0.6839 -0.3046
 2369TP3      O18925   2.772   1.392   9.966  0.7978 -0.7755 -0.5210
 2369TP3     H118926   2.758   1.463   9.904  0.8140 -0.8208 -0.5759
 2369TP3     H218927   2.853   1.414  10.012 -0.7025  0.8198  1.5951
 2370TP3      O18928   0.530   1.632   1.819  0.3044  0.0829  0.4306
 2370TP3     H118929   0.458   1.618   1.758  0.3905  0.7004  0.1809
 2370TP3     H218930   0.553   1.545   1.850  1.9821 -0.6158 -2.3763
 2371TP3      O18931   5.211   2.167   1.915  0.3928 -0.7844  0.0258
 2371TP3     H118932   5.206   2.117   1.997 -0.9424 -2.0349 -0.7518
 2371TP3     H218933   5.143   2.234   1.924 -0.1290 -1.2600 -0.2281
 2372TP3      O18934   4.673   0.852   1.297 -0.7782  0.8089  0.6212
 2372TP3     H118935   4.616   0.797   1.350 -0.5193 -0.0250  0.0594
 2372TP3     H218936   4.761   0.837   1.331 -0.6373  0.4363  0.1109
 2373TP3      O18937   1.919   2.958   0.803  0.1369  0.2616 -0.7991
 2373TP3     H118938   1.825   2.942   0.790  0.0933  0.7885 -1.1824
 2373TP3     H218939   1.939   3.030   0.743  0.6082  0.7136 -0.1212
 2374TP3      O18940   4.091   2.425   8.331 -0.1079 -0.4548  0.0326
 2374TP3     H118941   4.181   2.402   8.308  0.4615 -0.1055  1.7307
 2374TP3     H218942   4.036   2.362   8.284  0.9500 -0.0601 -1.8109
 2375TP3      O18943   0.853   3.527   6.517  0.0809  0.5889  1.0409
 2375TP3     H118944   0.867   3.601   6.576  1.0370  0.8562  0.5087
 2375TP3     H218945   0.852   3.450   6.575  1.0556  0.8407  1.4141
 2376TP3      O18946   1.930   5.016   8.175  0.3599 -0.2414  0.2331
 2376TP3     H118947   1.922   5.108   8.198  2.2268  0.2319 -0.7941
 2376TP3     H218948   1.854   4.999   8.118  1.2358  1.3496 -1.5094
 2377TP3      O18949   1.198   0.274   8.007 -0.3624  0.2229 -0.3109
 2377TP3     H118950   1.282   0.300   8.044 -1.9696 -0.7864  4.8294
 2377TP3     H218951   1.219   0.200   7.949  2.3646  0.8300 -0.2211
 2378TP3      O18952   1.210   2.402   3.286  0.2097  0.3162 -0.3862
 2378TP3     H118953   1.171   2.327   3.240 -0.4413  1.5547 -1.9356
 2378TP3     H218954   1.138   2.439   3.337  1.2052 -1.8587  3.0089
 2379TP3      O18955   5.234   3.644   8.369 -0.4414  0.0640  0.3164
 2379TP3     H118956   5.277   3.591   8.437 -0.8284 -0.2281  0.3350
 2379TP3     H218957   5.221   3.730   8.411  4.3770  1.8121 -1.1436
 2380TP3      O18958   3.165   5.008   9.782  0.5451 -0.2708 -0.2457
 2380TP3     H118959   3.182   4.975   9.870 -0.6817 -1.8223 -0.5596
 2380TP3     H218960   3.091   5.068   9.792 -1.3279 -2.4118 -0.5235
 2381TP3      O18961   1.389   3.997   0.054 -0.0345 -0.3804 -0.0229
 2381TP3     H118962   1.301   3.968   0.077 -0.1097  1.2605  2.0679
 2381TP3     H218963   1.426   4.029   0.136  2.1397 -0.0428 -1.0579
 2382TP3      O18964   3.416   2.006   1.652 -0.2984  1.0832  0.4930
 2382TP3     H118965   3.481   2.025   1.584 -1.3315  1.4636 -0.4188
 2382TP3     H218966   3.394   2.092   1.688 -0.0650  0.9248  1.0066
 2383TP3      O18967   3.471   3.979   0.724  0.0381 -0.1546  0.4832
 2383TP3     H118968   3.548   3.921   0.723 -0.7174 -1.2119  1.6749
 2383TP3     H218969   3.422   3.955   0.645  0.2183 -0.4439  0.4581
 2384TP3      O18970   4.835   3.733   7.505 -0.5451 -0.1547  0.0682
 2384TP3     H118971   4.778   3.808   7.490  0.8304  0.6155 -1.6484
 2384TP3     H218972   4.781   3.672   7.556 -2.0919  1.4755  0.4793
 2385TP3      O18973   4.443   3.273   3.125 -0.7316 -0.4422 -0.1715
 2385TP3     H118974   4.493   3.245   3.202  0.0116  0.9566 -0.1125
 2385TP3     H218975   4.488   3.231   3.051  0.7641  1.0143 -0.1462
 2386TP3      O18976   0.441   5.233   8.480 -0.5749  0.5224  0.7445
 2386TP3     H118977   0.493   5.172   8.532  3.4759  1.8913 -1.2452
 2386TP3     H218978   0.386   5.177   8.425  0.4189 -1.1848  1.4081
 2387TP3      O18979   2.074   2.540  10.071  0.4736 -0.1622 -0.4080
 2387TP3     H118980   2.149   2.585  10.033  0.1737 -0.9258 -1.9571
 2387TP3     H218981   2.033   2.606  10.128  0.5923  1.2319 -1.8568
 2388TP3      O18982   4.501   2.099   0.947  0.0995  0.3928  0.1150
 2388TP3     H118983   4.453   2.115   0.865 -0.1605 -1.9490 -0.2503
 2388TP3     H218984   4.576   2.046   0.921 -0.1907 -0.7207  1.4192
 2389TP3      O18985   1.888   4.512   8.687  0.5175  0.0972  0.2271
 2389TP3     H118986   1.945   4.536   8.760  1.0925  1.9818 -0.7931
 2389TP3     H218987   1.800   4.530   8.718  0.5328 -1.3646  1.2566
 2390TP3      O18988   2.683   3.617   0.213 -0.2788  0.3159  0.4097
 2390TP3     H118989   2.729   3.698   0.237 -1.9308  0.9613  1.5779
 2390TP3     H218990   2.704   3.604   0.120  1.7508  0.8740  0.7388
 2391TP3      O18991   0.020   3.009   9.905  0.0211  0.1453 -0.2882
 2391TP3     H118992  -0.067   2.992   9.869  0.3147 -3.3258  0.2638
 2391TP3     H218993   0.074   2.936   9.873  1.6443 -0.1629  2.7338
 2392TP3      O18994   4.751   1.245   0.651  0.1754 -0.4905  0.2489
 2392TP3     H118995   4.793   1.281   0.573 -0.1350  1.5558  0.9510
 2392TP3     H218996   4.722   1.158   0.625  1.1203 -0.3223 -1.5382
 2393TP3      O18997   4.619   1.911   9.656 -0.3294 -0.2891  0.3231
 2393TP3     H118998   4.715   1.912   9.654 -0.3445  0.1499 -0.7547
 2393TP3     H218999   4.594   2.003   9.653 -0.7907 -0.3438  1.7338
 2394TP3      O19000   1.485   0.227   3.427 -0.5189  0.0142  0.3251
 2394TP3     H119001   1.473   0.163   3.357 -1.0315 -0.6145  0.9819
 2394TP3     H219002   1.436   0.304   3.397 -0.4825 -0.1414 -0.1456
 2395TP3      O19003   4.809   0.093   1.710 -0.0842  0.6278 -0.0942
 2395TP3     H119004   4.806   0.012   1.659 -0.1034  0.2991  0.4151
 2395TP3     H219005   4.821   0.162   1.645  1.0385  0.1222 -0.4524
 2396TP3      O19006   4.886   3.573   8.122  0.1129 -0.5427  0.2316
 2396TP3     H119007   4.970   3.558   8.079 -0.2287 -1.0078 -0.2939
 2396TP3     H219008   4.908   3.587   8.214  0.8042 -0.1225  0.0056
 2397TP3      O19009   5.211   0.945   8.229  0.2341 -0.1959  0.3776
 2397TP3     H119010   5.278   1.002   8.268  1.0906  0.1552 -1.4525
 2397TP3     H219011   5.131   0.997   8.231  0.9900  1.1508 -1.2136
 2398TP3      O19012   4.680   1.577   7.536  0.2616  0.0740  0.0469
 2398TP3     H119013   4.726   1.624   7.606 -0.4587  0.1541  0.4796
 2398TP3     H219014   4.728   1.600   7.457  1.3239 -0.3262  0.5591
 2399TP3      O19015   0.035   5.079   2.506  0.2322  0.0404  0.2138
 2399TP3     H119016   0.123   5.080   2.542  1.1068 -2.9883 -1.5184
 2399TP3     H219017   0.044   5.121   2.420  0.7882 -2.8652 -1.2722
 2400TP3      O19018   1.847   0.510   9.052 -0.1627 -0.2244 -0.3704
 2400TP3     H119019   1.894   0.526   9.134 -1.8899 -1.0141  0.8260
 2400TP3     H219020   1.894   0.438   9.011 -0.3598 -1.0749  0.8586
 2401TP3      O19021   5.181   2.991   0.722 -0.1385  0.0819  0.0048
 2401TP3     H119022   5.153   3.082   0.710 -2.5969 -0.5219  0.6151
 2401TP3     H219023   5.109   2.939   0.686  0.6754 -1.6256  0.7378
 2402TP3      O19024   2.975   1.153   8.580 -0.2452  0.0538 -0.0439
 2402TP3     H119025   2.903   1.121   8.634 -1.0300 -0.4897 -1.3826
 2402TP3     H219026   2.961   1.114   8.494  0.7380  1.2317 -0.7834
 2403TP3      O19027   2.901   4.871  10.028  0.8467  0.5232 -0.6752
 2403TP3     H119028   2.955   4.902  10.101  1.6581 -0.9393 -0.5976
 2403TP3     H219029   2.812   4.869  10.062  0.9820  1.3905 -0.2572
 2404TP3      O19030   3.971   3.395   3.125 -0.6201  0.0763 -0.7750
 2404TP3     H119031   3.882   3.358   3.123 -0.4121 -0.4735 -3.4372
 2404TP3     H219032   3.958   3.488   3.140 -1.6802  0.0076 -1.1739
 2405TP3      O19033   3.699   5.274   0.541  0.4166 -0.1883  0.1745
 2405TP3     H119034   3.639   5.200   0.532  1.4028 -0.8118 -2.0029
 2405TP3     H219035   3.678   5.331   0.467  1.0902  0.6487  0.6143
 2406TP3      O19036   5.158   0.060   2.375  0.2870 -0.6328  0.1883
 2406TP3     H119037   5.203   0.126   2.322 -2.2921  1.1878  0.0731
 2406TP3     H219038   5.172   0.089   2.465  1.7466 -1.7616  0.3608
 2407TP3      O19039   2.182   0.466   9.395  0.4404  1.1413 -0.5201
 2407TP3     H119040   2.236   0.457   9.474 -0.5281  1.4986  0.2134
 2407TP3     H219041   2.205   0.552   9.360 -1.0621  2.2143  0.9451
 2408TP3      O19042   4.795   4.873   2.570  0.3628  0.7287 -0.3038
 2408TP3     H119043   4.807   4.805   2.503  0.0118 -0.2116  0.5642
 2408TP3     H219044   4.870   4.931   2.558  0.2540  0.6343 -1.5717
 2409TP3      O19045   3.301   4.763   9.494 -0.1653 -0.0652 -0.1303
 2409TP3     H119046   3.312   4.686   9.438  1.9492  1.7586 -2.4366
 2409TP3     H219047   3.212   4.792   9.476 -1.2727 -2.2735  1.3239
 2410TP3      O19048   5.132   1.095   9.319  0.0678  0.2948 -0.2648
 2410TP3     H119049   5.067   1.055   9.376 -0.5000  0.7487 -0.5799
 2410TP3     H219050   5.149   1.181   9.358 -0.2364  0.5607 -0.7023
 2411TP3      O19051   2.335   2.161   1.841 -0.5643  0.1388  0.1051
 2411TP3     H119052   2.345   2.105   1.918 -1.9566 -0.7525 -0.3160
 2411TP3     H219053   2.241   2.161   1.824 -0.4911  1.8316 -0.5105
 2412TP3      O19054   4.911   3.634   7.067  0.1575  0.5518 -0.0764
 2412TP3     H119055   4.952   3.641   7.153  2.3011  1.0441 -1.0721
 2412TP3     H219056   4.881   3.543   7.062  0.7000  0.3009  0.8954
 2413TP3      O19057   4.447   2.061   8.793  0.0235  0.3030 -0.1604
 2413TP3     H119058   4.525   2.045   8.846  0.3970 -0.1829 -0.8467
 2413TP3     H219059   4.463   2.014   8.711  0.3662  2.6379 -1.5466
 2414TP3      O19060   0.192   1.495   8.292  0.0170 -0.2927  0.6371
 2414TP3     H119061   0.104   1.525   8.267  0.5581  0.6796 -0.1786
 2414TP3     H219062   0.248   1.572   8.281  1.3914 -1.4535 -1.1659
 2415TP3      O19063   4.399   4.460   0.498 -0.0919 -0.2236 -0.6474
 2415TP3     H119064   4.466   4.401   0.534  0.4148  0.3409 -0.6454
 2415TP3     H219065   4.378   4.519   0.570 -1.9824 -1.5431 -0.0389
 2416TP3      O19066   3.207   0.563   3.412  1.1733 -0.0761 -0.0940
 2416TP3     H119067   3.129   0.523   3.451  1.6863 -2.2693 -1.1597
 2416TP3     H219068   3.175   0.644   3.373  0.2325  1.0597  2.8176
 2417TP3      O19069   2.624   4.217  10.065  0.2922 -0.5653 -0.1268
 2417TP3     H119070   2.673   4.136  10.083  0.5350 -0.1889  0.9557
 2417TP3     H219071   2.535   4.196  10.092 -0.2192 -1.2586 -2.1180
 2418TP3      O19072   0.229   4.848   9.776  0.2856  0.0023  0.0298
 2418TP3     H119073   0.252   4.925   9.723 -0.0153  0.5213  0.6487
 2418TP3     H219074   0.162   4.803   9.724  0.0115  0.4928 -0.0446
 2419TP3      O19075   1.952   2.730   7.597 -0.0071  0.7776  0.3931
 2419TP3     H119076   2.012   2.741   7.524  1.1458 -0.4503  1.1101
 2419TP3     H219077   1.868   2.760   7.564  0.7562  1.4868 -0.9955
 2420TP3      O19078   4.787   4.724   7.021 -0.0440  0.1866 -0.4063
 2420TP3     H119079   4.760   4.633   7.031 -1.1788  0.4944 -0.5567
 2420TP3     H219080   4.863   4.732   7.078  0.8222 -1.1493 -1.2864
 2421TP3      O19081   3.687   0.230   2.533 -0.2132 -0.1236  0.3404
 2421TP3     H119082   3.673   0.151   2.586  0.2419 -0.1991  0.3591
 2421TP3     H219083   3.718   0.295   2.596 -0.8899  0.1700  0.3782
 2422TP3      O19084   3.521   2.849   9.300 -0.3667  0.0584 -0.1340
 2422TP3     H119085   3.603   2.867   9.346  0.6458 -0.1018 -1.7846
 2422TP3     H219086   3.462   2.919   9.328  1.3852  2.1460 -1.3569
 2423TP3      O19087   0.002   0.603   9.077 -0.2792 -0.1072 -0.2806
 2423TP3     H119088   0.096   0.586   9.076 -0.1123  0.6928  0.6651
 2423TP3     H219089  -0.038   0.517   9.060  0.5965 -0.7500  0.8300
 2424TP3      O19090   2.903   3.337   9.489  0.5142  0.8282  0.0824
 2424TP3     H119091   2.934   3.328   9.579  0.4467 -1.0889 -0.0395
 2424TP3     H219092   2.982   3.341   9.437  0.6070 -0.9188  0.0298
 2425TP3      O19093   0.023   2.711   2.487 -0.5148  0.3397  0.5835
 2425TP3     H119094   0.032   2.805   2.467 -2.8631  0.5379  0.1669
 2425TP3     H219095   0.106   2.673   2.458 -0.4830  1.9115 -1.6882
 2426TP3      O19096   4.601   4.060   9.556  0.0611  0.0824 -0.4428
 2426TP3     H119097   4.507   4.073   9.543  0.0458 -0.3744 -0.8325
 2426TP3     H219098   4.613   3.965   9.546  0.5708  0.1489 -0.4581
 2427TP3      O19099   0.357   3.332   3.327 -0.8893  0.3743 -0.3256
 2427TP3     H119100   0.369   3.378   3.244  0.1310 -4.4344 -3.2469
 2427TP3     H219101   0.282   3.274   3.311  0.3944 -1.9255  1.4322
 2428TP3      O19102   4.986   2.385   8.205 -0.2499 -0.4594 -0.4059
 2428TP3     H119103   4.901   2.356   8.238 -1.2310  1.1162 -1.4302
 2428TP3     H219104   4.984   2.480   8.213  1.3209 -0.3631 -0.7402
 2429TP3      O19105   1.935   3.881   7.625  0.4645  0.1817 -0.1031
 2429TP3     H119106   1.848   3.899   7.588  0.2423  0.2438  0.4397
 2429TP3     H219107   1.992   3.873   7.549 -0.3251 -1.5210 -0.5667
 2430TP3      O19108   0.861   2.824   0.070  0.1246  0.0987  0.1264
 2430TP3     H119109   0.951   2.794   0.061  0.8892  1.9059  1.1719
 2430TP3     H219110   0.867   2.904   0.122 -2.0888  0.2989  0.1983
 2431TP3      O19111   1.848   0.937   9.750  0.4065 -0.3956 -0.1569
 2431TP3     H119112   1.826   0.847   9.727  1.0431 -1.1417  1.9158
 2431TP3     H219113   1.943   0.942   9.741  0.2857  0.3326 -1.0846
 2432TP3      O19114   0.083   4.426   1.739 -0.1205 -0.0619  0.1442
 2432TP3     H119115   0.037   4.501   1.700 -1.4867 -1.7927 -1.8253
 2432TP3     H219116   0.156   4.465   1.786 -1.3763  2.5743  0.1255
 2433TP3      O19117   5.091   4.995   8.477  0.2851  0.1991 -0.0909
 2433TP3     H119118   5.169   4.956   8.516  0.9638  1.6535  0.0621
 2433TP3     H219119   5.121   5.032   8.394 -0.0768  1.3681  0.2791
 2434TP3      O19120   1.680   3.577   0.369 -0.0222  0.0801 -0.6222
 2434TP3     H119121   1.734   3.653   0.347 -0.0311  0.2853  0.0477
 2434TP3     H219122   1.615   3.611   0.431 -0.3594 -0.3605 -0.7278
 2435TP3      O19123   2.150   2.229   7.944 -0.0307  0.5713  0.5142
 2435TP3     H119124   2.208   2.269   7.879 -0.1626 -0.4939 -0.3040
 2435TP3     H219125   2.203   2.160   7.984 -1.3417 -2.1223 -1.9976
 2436TP3      O19126   1.882   1.044  10.018 -0.0406  0.4158 -0.1059
 2436TP3     H119127   1.890   1.017   9.926  0.2976 -1.6112  0.4492
 2436TP3     H219128   1.875   0.961  10.066 -0.7638  1.4449  1.6586
 2437TP3      O19129   0.109   4.297   0.660  0.5379  0.0974  1.1085
 2437TP3     H119130   0.089   4.380   0.705  0.1013 -0.1497  1.3833
 2437TP3     H219131   0.179   4.258   0.712  0.6998  0.2640  1.0163
 2438TP3      O19132   3.073   4.956   0.134 -0.0584 -0.3068  0.1780
 2438TP3     H119133   3.005   4.964   0.200 -1.6045 -0.2880 -1.3519
 2438TP3     H219134   3.104   5.046   0.120 -0.1600 -0.2344  0.4147
 2439TP3      O19135   3.518   0.179   9.133 -0.1895  0.0285 -0.0853
 2439TP3     H119136   3.463   0.112   9.173 -0.9486  0.3379 -0.5976
 2439TP3     H219137   3.604   0.167   9.174 -0.4003 -1.0348  0.0630
 2440TP3      O19138   3.868   0.704   3.582  0.0207 -0.6756 -0.3052
 2440TP3     H119139   3.807   0.631   3.592 -0.9866  0.2928  0.8761
 2440TP3     H219140   3.902   0.695   3.493 -2.3458 -0.8560 -1.2601
 2441TP3      O19141   3.313   2.916   7.828  0.2007 -0.4288  0.0179
 2441TP3     H119142   3.342   2.825   7.835 -0.5150 -0.7459 -0.9722
 2441TP3     H219143   3.289   2.941   7.918  0.3224 -1.2280  0.2782
 2442TP3      O19144   4.084   0.786   8.785 -0.4741 -0.0838 -0.1801
 2442TP3     H119145   4.170   0.743   8.776 -0.2656 -0.1622  1.7695
 2442TP3     H219146   4.069   0.790   8.880 -2.2770  0.6521 -0.4599
 2443TP3      O19147   0.928   0.324   2.120  0.1109 -0.6051  0.2420
 2443TP3     H119148   0.853   0.357   2.072  1.3472  1.0173 -0.6743
 2443TP3     H219149   0.975   0.269   2.057  0.2302 -0.8159  0.5075
 2444TP3      O19150   0.288   5.011   7.643  0.3767 -0.3574 -0.2624
 2444TP3     H119151   0.226   5.004   7.570 -1.0313  0.4792  0.8095
 2444TP3     H219152   0.235   4.995   7.721  1.0486  2.3060  0.8326
 2445TP3      O19153   4.507   2.198   7.158  0.2931  0.2576  0.5808
 2445TP3     H119154   4.575   2.162   7.101 -0.5334 -0.1644 -0.1663
 2445TP3     H219155   4.485   2.282   7.117 -1.1910 -0.6175 -0.4703
 2446TP3      O19156   0.092   4.075   8.016 -0.5424  0.0801  0.3356
 2446TP3     H119157   0.089   3.984   7.989 -1.2380  0.1226  0.2617
 2446TP3     H219158   0.106   4.124   7.935 -2.3626  0.1882  0.0525
 2447TP3      O19159   2.057   4.887   7.577 -0.0275 -0.6442 -0.5874
 2447TP3     H119160   2.041   4.802   7.618 -1.1961  0.4060  1.3234
 2447TP3     H219161   2.122   4.929   7.634 -0.1955  0.1010 -0.9298
 2448TP3      O19162   4.179   4.977   1.568  0.1360 -0.3320 -0.0357
 2448TP3     H119163   4.119   4.920   1.520  1.0207 -0.5080 -0.9694
 2448TP3     H219164   4.172   5.062   1.525  2.3325 -0.9543 -1.8114
 2449TP3      O19165   1.808   0.167   0.996  0.3013  0.0699 -0.5942
 2449TP3     H119166   1.868   0.196   0.927  0.6672  0.5439 -0.0797
 2449TP3     H219167   1.760   0.245   1.021  2.1568  0.6090  1.6633
 2450TP3      O19168   5.209   4.236   2.894  0.0983  0.2942 -0.5079
 2450TP3     H119169   5.156   4.305   2.855 -0.8060  0.8250  1.5294
 2450TP3     H219170   5.280   4.283   2.938 -0.6148  0.0060  1.0340
 2451TP3      O19171   4.085   3.483   7.357  0.1312  0.0915  0.4067
 2451TP3     H119172   4.068   3.547   7.287  0.2809 -2.0772 -1.7455
 2451TP3     H219173   4.018   3.415   7.344  0.5742 -0.6966  1.9976
 2452TP3      O19174   4.358   5.057   9.281 -0.6595  0.3816 -0.0957
 2452TP3     H119175   4.341   5.025   9.193 -1.2210  1.7868 -0.5198
 2452TP3     H219176   4.271   5.074   9.318 -0.4872 -1.0619  1.0977
 2453TP3      O19177   3.665   4.573   7.105  0.0803  0.2290  0.2299
 2453TP3     H119178   3.671   4.532   7.019 -1.7237  1.6033 -0.6242
 2453TP3     H219179   3.618   4.509   7.158 -0.2332  0.0375 -0.2675
 2454TP3      O19180   4.567   2.203   2.681  0.4188  0.1093  0.1109
 2454TP3     H119181   4.556   2.180   2.589 -0.5069  0.6027  0.0875
 2454TP3     H219182   4.478   2.205   2.716  0.7131  0.5733  0.8494
 2455TP3      O19183   3.219   0.877   9.099  0.5643  0.0849  0.2702
 2455TP3     H119184   3.309   0.898   9.074  0.6493 -0.6401 -0.0723
 2455TP3     H219185   3.228   0.795   9.149  0.2921  0.9807  1.8294
 2456TP3      O19186   3.097   3.868   1.200 -0.1641 -0.4055 -0.2361
 2456TP3     H119187   3.088   3.955   1.239 -0.6022 -0.1278 -0.9381
 2456TP3     H219188   3.191   3.856   1.191 -0.0254 -0.6345  1.2357
 2457TP3      O19189   4.572   2.744   8.965 -0.1124  0.1428 -0.5783
 2457TP3     H119190   4.562   2.825   9.015 -1.1137  0.5319 -1.3718
 2457TP3     H219191   4.624   2.769   8.888 -1.0140  0.2178 -1.1854
 2458TP3      O19192   5.036   0.726   1.614  0.1109 -0.1552  0.2388
 2458TP3     H119193   5.022   0.800   1.672  0.1866 -0.3492  0.5079
 2458TP3     H219194   5.121   0.691   1.639 -0.2591 -0.7922  0.6313
 2459TP3      O19195   2.690   3.572   0.879  0.2558  0.2490 -0.0343
 2459TP3     H119196   2.731   3.488   0.856 -1.4636 -0.7517  0.3367
 2459TP3     H219197   2.608   3.572   0.830  0.0552  1.5577  0.2712
 2460TP3      O19198   3.024   3.273   1.303 -0.0689  0.3744  0.5848
 2460TP3     H119199   3.068   3.261   1.219 -1.1211  1.3713 -0.1339
 2460TP3     H219200   3.010   3.184   1.336 -1.2933 -0.1390 -1.1721
 2461TP3      O19201   4.833   3.257   7.602  0.1149  0.0267  0.4531
 2461TP3     H119202   4.918   3.240   7.563 -1.0501 -0.3171 -2.1129
 2461TP3     H219203   4.801   3.335   7.557 -0.1659  1.3683  2.7932
 2462TP3      O19204   3.838   3.229  10.056 -0.4171  0.0290 -0.7594
 2462TP3     H119205   3.907   3.270  10.003 -2.3502  2.2789 -1.7793
 2462TP3     H219206   3.835   3.282  10.136 -0.6714 -0.3387 -0.5237
 2463TP3      O19207   1.018   3.754   3.134  0.1757  0.2840  0.0687
 2463TP3     H119208   1.104   3.791   3.152 -0.4544  1.0108  1.8333
 2463TP3     H219209   1.036   3.668   3.095  1.6964 -0.0866  1.4963
 2464TP3      O19210   3.531   1.276   0.308 -0.2560  0.2614 -0.3863
 2464TP3     H119211   3.623   1.290   0.285 -0.1416 -0.1689 -0.1977
 2464TP3     H219212   3.482   1.314   0.235  0.0423  1.6380  0.0917
 2465TP3      O19213   3.677   4.380   2.438  0.6587 -0.1105  0.0497
 2465TP3     H119214   3.681   4.473   2.461  1.9708  0.2327 -1.3859
 2465TP3     H219215   3.673   4.380   2.342 -0.6096 -1.5298  0.0591
 2466TP3      O19216   3.912   5.014   0.561  0.0438 -0.1504  0.2143
 2466TP3     H119217   3.941   4.929   0.528  1.0862  0.2470  0.0820
 2466TP3     H219218   3.891   5.065   0.483  0.7126  0.1541  0.2207
 2467TP3      O19219   0.663   0.584   7.776 -0.1033  0.3712 -0.4861
 2467TP3     H119220   0.699   0.592   7.865 -0.5404  0.1336 -0.2806
 2467TP3     H219221   0.657   0.674   7.744  0.2130  0.4461 -0.3395
 2468TP3      O19222   1.529   3.261   2.784  0.0742  0.3716 -0.0256
 2468TP3     H119223   1.622   3.256   2.762  0.0404 -0.8391  0.0158
 2468TP3     H219224   1.528   3.273   2.879  0.2233 -1.7559  0.3047
 2469TP3      O19225   4.153   0.357   0.231  0.3446  0.6533  0.2011
 2469TP3     H119226   4.064   0.329   0.250 -0.4492  2.2564 -1.0033
 2469TP3     H219227   4.182   0.297   0.163 -1.3100  2.4889 -2.2836
 2470TP3      O19228   4.294   0.242   1.459  0.1218  0.0551 -0.5162
 2470TP3     H119229   4.250   0.295   1.526  1.9291 -0.4028  1.1213
 2470TP3     H219230   4.260   0.276   1.377 -0.8600  1.8877  0.5638
 2471TP3      O19231   2.367   5.199   7.185 -0.1376  0.5298  0.0864
 2471TP3     H119232   2.407   5.263   7.127  0.9681 -1.0801 -1.0263
 2471TP3     H219233   2.431   5.184   7.254  0.2265 -0.3847 -0.4366
 2472TP3      O19234   4.321   4.151   1.208 -0.7139  0.2099 -0.2821
 2472TP3     H119235   4.321   4.068   1.160 -3.3382  0.6034 -1.1605
 2472TP3     H219236   4.261   4.136   1.281 -0.1315  0.9316  0.3619
 2473TP3      O19237   1.225   4.548   8.123 -0.1796  0.1137  0.1573
 2473TP3     H119238   1.140   4.505   8.109 -0.4028  0.6108 -0.0264
 2473TP3     H219239   1.289   4.489   8.082 -0.3394 -0.6757  1.0130
 2474TP3      O19240   4.031   4.657   7.578  0.0085  0.0630 -0.1063
 2474TP3     H119241   4.064   4.573   7.546  3.0896 -0.0770  2.8670
 2474TP3     H219242   4.083   4.722   7.532  0.4795  0.1095  0.4751
 2475TP3      O19243   3.847   3.521   1.670  0.3879 -0.0803  0.3589
 2475TP3     H119244   3.844   3.576   1.749  2.9584  1.0447 -0.2043
 2475TP3     H219245   3.926   3.468   1.681 -0.3390 -1.4165 -0.5699
 2476TP3      O19246   3.111   4.356   9.637 -0.9093  0.6587  0.2356
 2476TP3     H119247   3.062   4.433   9.608 -1.3941  0.2985  0.0830
 2476TP3     H219248   3.085   4.345   9.729  0.6901  1.8516  0.8732
 2477TP3      O19249   3.163   1.888   7.723 -0.1953  0.0864  0.3375
 2477TP3     H119250   3.155   1.974   7.765 -1.2011 -0.2417  0.8434
 2477TP3     H219251   3.167   1.826   7.795  0.5399 -0.3039 -0.0277
 2478TP3      O19252   1.517   3.030   8.669  0.4505 -0.4892  0.4834
 2478TP3     H119253   1.471   3.095   8.721  0.4697 -0.1683  0.1033
 2478TP3     H219254   1.500   2.947   8.713  2.1723 -0.0088  2.2262
 2479TP3      O19255   5.233   1.156   3.031 -0.2658  0.2060  0.2529
 2479TP3     H119256   5.297   1.100   2.986  1.5573  1.7150  0.8292
 2479TP3     H219257   5.235   1.238   2.982 -0.4422  0.8628  1.3238
 2480TP3      O19258   2.098   2.784   3.455  0.0379 -0.0138  0.1632
 2480TP3     H119259   2.044   2.715   3.416 -0.6489 -0.1977  1.3604
 2480TP3     H219260   2.179   2.740   3.479 -0.3481 -0.3977  0.8069
 2481TP3      O19261   5.200   3.917   8.408  0.6499 -0.0453  0.0498
 2481TP3     H119262   5.288   3.956   8.408 -0.0021  1.5302 -0.0047
 2481TP3     H219263   5.141   3.993   8.403 -0.7302 -1.0289  0.7663
 2482TP3      O19264   4.342   2.206   2.145 -1.0928  0.5190 -0.0137
 2482TP3     H119265   4.366   2.113   2.152 -0.7785  0.6103  0.1426
 2482TP3     H219266   4.348   2.225   2.051 -2.1327  0.1306 -0.1737
 2483TP3      O19267   3.706   2.238   0.439  0.0908  0.2027  0.1983
 2483TP3     H119268   3.740   2.303   0.501  0.9255 -0.1253  0.0933
 2483TP3     H219269   3.615   2.224   0.467  0.5327 -0.1308  1.5089
 2484TP3      O19270   2.533   4.824   2.463  0.5703  0.7462  0.1014
 2484TP3     H119271   2.550   4.730   2.463 -1.9027  0.2438 -0.4064
 2484TP3     H219272   2.616   4.863   2.493  1.1300 -1.6791  2.0502
 2485TP3      O19273   2.848   2.884   9.100 -0.3013 -0.6633  0.9311
 2485TP3     H119274   2.844   2.854   9.191  0.0124  1.0583  1.5463
 2485TP3     H219275   2.869   2.977   9.106 -0.7671 -0.3953 -0.8958
 2486TP3      O19276   3.112   0.570   3.010  0.5119 -0.2520 -0.0577
 2486TP3     H119277   3.112   0.595   3.103 -2.4934 -2.6484  0.7740
 2486TP3     H219278   3.053   0.632   2.969  0.0828 -0.5122  0.1491
 2487TP3      O19279   0.239   3.790   0.951  0.1691  0.5381 -0.7756
 2487TP3     H119280   0.180   3.760   1.020  2.5933 -1.3432  0.6391
 2487TP3     H219281   0.268   3.877   0.980  0.7856 -0.0299  0.3724
 2488TP3      O19282   3.580   2.261   8.645  0.1321 -0.6053 -0.3029
 2488TP3     H119283   3.495   2.305   8.648  0.0855 -0.6545 -0.9148
 2488TP3     H219284   3.602   2.248   8.737  0.3948  1.1601 -0.0724
 2489TP3      O19285   2.366   1.510   2.148 -0.1662 -0.6003 -0.1830
 2489TP3     H119286   2.345   1.430   2.101 -0.4500 -0.0289 -1.0518
 2489TP3     H219287   2.401   1.569   2.081 -0.6833  0.2705  0.2955
 2490TP3      O19288   3.880   2.347   1.827 -0.5068 -0.1287  0.8107
 2490TP3     H119289   3.796   2.381   1.858 -1.8580 -0.5364 -1.9827
 2490TP3     H219290   3.915   2.417   1.772  0.2913 -0.4915  0.8565
 2491TP3      O19291   2.428   1.596   0.696 -0.3065  0.0759  0.3640
 2491TP3     H119292   2.483   1.551   0.631 -0.7174  0.7931 -0.5074
 2491TP3     H219293   2.380   1.525   0.740 -1.5038 -0.3560 -1.4982
 2492TP3      O19294   3.301   2.902   1.081 -0.6061  0.5255 -0.7545
 2492TP3     H119295   3.259   2.829   1.036 -1.0866 -0.1895  0.7837
 2492TP3     H219296   3.393   2.877   1.087 -1.0889 -0.9354  1.5007
 2493TP3      O19297   4.647   4.770   8.790 -0.2073  0.2992 -0.2035
 2493TP3     H119298   4.683   4.693   8.745 -1.0528  0.4481 -1.1725
 2493TP3     H219299   4.635   4.835   8.721  0.2202  1.2109  0.5610
 2494TP3      O19300   3.860   2.925   1.164 -0.6073 -0.2596 -0.2666
 2494TP3     H119301   3.890   2.926   1.073 -0.6958 -1.4792 -0.3211
 2494TP3     H219302   3.885   3.011   1.198  0.5444 -0.2485 -1.0811
 2495TP3      O19303   3.046   4.041   7.063 -0.0154  0.9532 -0.4582
 2495TP3     H119304   3.017   4.087   6.985  2.5257  2.8263 -0.4268
 2495TP3     H219305   3.048   4.108   7.131  1.8062  0.3906  0.1122
 2496TP3      O19306   2.224   1.110   8.048  0.5701  0.2903 -0.0935
 2496TP3     H119307   2.152   1.051   8.070 -0.7977  1.4319 -1.3202
 2496TP3     H219308   2.290   1.092   8.115 -0.0953 -2.0543  0.0449
 2497TP3      O19309   2.286   3.303   9.208  0.1636 -0.6052  0.0720
 2497TP3     H119310   2.260   3.227   9.259 -0.2049 -0.6562 -0.1889
 2497TP3     H219311   2.342   3.267   9.139  1.6510 -0.3997  1.1256
 2498TP3      O19312   4.087   3.895   2.107  0.3066  0.1094  0.7512
 2498TP3     H119313   4.113   3.928   2.193 -2.5092  2.6052  0.7922
 2498TP3     H219314   3.998   3.861   2.120  0.1274 -0.1977 -1.0211
 2499TP3      O19315   2.924   1.979   7.182 -0.0072 -0.0560 -0.2491
 2499TP3     H119316   2.990   1.972   7.113  2.1345  0.1428  1.6552
 2499TP3     H219317   2.882   1.893   7.184  1.4978 -0.8290 -0.3155
 2500TP3      O19318   4.974   3.830   9.646 -0.3164 -0.3406 -0.3316
 2500TP3     H119319   4.918   3.865   9.716  0.8500  1.1095 -0.0589
 2500TP3     H219320   5.061   3.863   9.667  0.4431 -1.6065 -1.3591
 2501TP3      O19321   3.929   0.248   2.296 -0.4968 -0.3187 -0.3978
 2501TP3     H119322   4.023   0.267   2.289  0.0631 -2.5807  0.3041
 2501TP3     H219323   3.925   0.156   2.322 -2.8909  0.1115  1.0570
 2502TP3      O19324   0.946   0.240   1.053 -0.5599 -0.2406  0.7283
 2502TP3     H119325   0.881   0.292   1.101  0.0060 -0.1865  1.4576
 2502TP3     H219326   0.972   0.296   0.980  0.2312  0.6362  1.6460
 2503TP3      O19327   2.400   3.551   9.687  0.1081  0.7534 -0.0655
 2503TP3     H119328   2.363   3.527   9.602  2.0658  0.0006 -0.7452
 2503TP3     H219329   2.437   3.638   9.673  1.5943  0.0950 -0.3966
 2504TP3      O19330   4.299   1.245   2.688  0.3525 -0.1020  0.5317
 2504TP3     H119331   4.316   1.322   2.633 -1.3285 -0.4735 -0.5732
 2504TP3     H219332   4.380   1.194   2.682 -0.1081 -0.6714 -2.5470
 2505TP3      O19333   1.530   4.326   3.042  0.5082 -0.1836  0.5389
 2505TP3     H119334   1.562   4.302   3.129  1.1948  0.1200  0.3767
 2505TP3     H219335   1.562   4.258   2.984 -0.1306 -0.5003  0.5515
 2506TP3      O19336   0.556   1.794   0.058 -0.3343  0.0947  0.0233
 2506TP3     H119337   0.619   1.733   0.021 -1.7865 -1.3883 -0.1405
 2506TP3     H219338   0.538   1.855  -0.014  0.0371 -0.1828 -0.3124
 2507TP3      O19339   1.841   0.501   1.329  0.4082  0.8405 -0.5084
 2507TP3     H119340   1.778   0.477   1.260  0.5523  1.2002 -0.7701
 2507TP3     H219341   1.810   0.586   1.361  0.5106  0.8114 -0.3332
 2508TP3      O19342   0.945   4.690   7.942  0.0056 -0.4676  0.0694
 2508TP3     H119343   0.965   4.613   7.995  0.3530 -0.9606 -0.7690
 2508TP3     H219344   0.881   4.739   7.995  0.4825 -0.8491  1.0204
 2509TP3      O19345   5.238   1.375   8.741  0.1817 -0.2347  0.1994
 2509TP3     H119346   5.330   1.367   8.766  0.3314  1.5457  0.4121
 2509TP3     H219347   5.210   1.457   8.784 -1.1097 -0.0361 -0.9771
 2510TP3      O19348   0.593   2.072   2.207 -0.2877 -0.5055  0.0699
 2510TP3     H119349   0.589   1.976   2.205  0.1895 -0.5160 -1.0220
 2510TP3     H219350   0.507   2.100   2.174 -0.1010 -0.5675 -0.4765
 2511TP3      O19351   1.224   3.370   0.779 -0.2196  0.2260  0.5155
 2511TP3     H119352   1.143   3.320   0.787  1.3941 -2.6550  0.3642
 2511TP3     H219353   1.198   3.462   0.788 -3.5813 -0.5106 -0.4999
 2512TP3      O19354   3.780   0.038   9.124 -0.3340 -0.4552  0.1117
 2512TP3     H119355   3.758   0.075   9.038 -2.2510 -1.2076  0.2138
 2512TP3     H219356   3.854   0.090   9.155  2.1144 -1.7223 -3.0401
 2513TP3      O19357   4.834   0.090   7.245  0.3336 -0.0075 -0.1301
 2513TP3     H119358   4.819   0.089   7.150  2.5172 -0.6838 -0.5318
 2513TP3     H219359   4.747   0.091   7.283 -0.6079 -0.0151 -2.1546
 2514TP3      O19360   4.140   3.634   7.596 -0.5280 -0.5892 -0.2466
 2514TP3     H119361   4.132   3.590   7.511 -2.3389  0.3518 -0.6132
 2514TP3     H219362   4.086   3.581   7.655  0.8321 -1.3190  0.4067
 2515TP3      O19363   2.364   1.762   8.275  0.1345 -0.0318 -1.2823
 2515TP3     H119364   2.394   1.852   8.278 -0.4191  0.1308  1.3410
 2515TP3     H219365   2.269   1.768   8.283  0.2474 -0.8582  1.6847
 2516TP3      O19366   4.266   2.379   1.553  0.0228 -0.1952  0.2874
 2516TP3     H119367   4.219   2.461   1.565  1.1089  0.4160  0.4280
 2516TP3     H219368   4.281   2.373   1.459  1.2403  0.5228  0.4150
 2517TP3      O19369   3.957   2.015   7.630 -0.2258 -0.4061  0.4943
 2517TP3     H119370   4.042   2.028   7.587 -0.6411 -1.2933 -0.6841
 2517TP3     H219371   3.899   2.077   7.587 -0.3257 -0.2947  0.7930
 2518TP3      O19372   3.257   3.045   9.729 -0.4736  0.1656 -0.1492
 2518TP3     H119373   3.337   3.080   9.689 -0.3638 -0.7516 -0.7789
 2518TP3     H219374   3.191   3.052   9.660 -0.1206 -2.0408 -0.7814
 2519TP3      O19375   2.662   2.736   1.113  0.4953 -0.2328  0.2715
 2519TP3     H119376   2.655   2.735   1.209  0.0683  0.5899  0.2605
 2519TP3     H219377   2.584   2.690   1.082 -0.0105  0.5806  0.3077
 2520TP3      O19378   4.746   4.539   8.102 -0.7504 -0.5608 -0.5526
 2520TP3     H119379   4.808   4.611   8.098 -1.0066 -0.2362  0.8724
 2520TP3     H219380   4.665   4.574   8.065 -0.7329 -0.2720 -0.3152
 2521TP3      O19381   3.341   0.124   0.534 -0.2105  0.5723  0.8060
 2521TP3     H119382   3.272   0.057   0.540 -0.7262  0.9854 -0.2856
 2521TP3     H219383   3.398   0.093   0.463  0.3929  0.5421  1.2969
 2522TP3      O19384   5.272   3.663   1.070  0.0515  0.5056  0.3481
 2522TP3     H119385   5.219   3.604   1.122 -0.7306  1.8304  1.1088
 2522TP3     H219386   5.260   3.749   1.111  1.6764  1.0931 -0.3066
 2523TP3      O19387   0.702   5.055   1.739  0.7980  0.3062 -1.2877
 2523TP3     H119388   0.665   5.092   1.659  0.8460  0.3414 -1.2935
 2523TP3     H219389   0.780   5.007   1.709  0.7586  0.2350 -1.2752
 2524TP3      O19390   5.253   2.293   0.678 -0.6633 -0.1189 -0.2126
 2524TP3     H119391   5.254   2.388   0.689 -2.0272  0.0724 -1.3803
 2524TP3     H219392   5.170   2.275   0.634  0.0586 -1.7272 -1.0232
 2525TP3      O19393   4.843   0.531   1.661 -0.3559  0.0567 -0.2136
 2525TP3     H119394   4.870   0.518   1.752 -0.9662  2.2177  0.3324
 2525TP3     H219395   4.903   0.598   1.628 -1.3672  0.7359 -0.7483
 2526TP3      O19396   3.348   4.174   8.575  0.1031 -0.0786 -0.5170
 2526TP3     H119397   3.264   4.188   8.619  0.1866 -0.4550 -0.2399
 2526TP3     H219398   3.401   4.126   8.638  0.1644 -0.7782 -1.0956
 2527TP3      O19399   1.353   1.299   1.854 -0.0374  0.1231 -0.1105
 2527TP3     H119400   1.410   1.340   1.789 -0.4918 -1.5464 -1.6395
 2527TP3     H219401   1.360   1.356   1.931  0.0801  2.5088 -1.7687
 2528TP3      O19402   4.295   5.070   1.261  1.0262 -0.5994 -0.1481
 2528TP3     H119403   4.363   5.097   1.323  2.5612 -0.5178 -1.7659
 2528TP3     H219404   4.229   5.139   1.267  2.9381  1.4535 -1.2394
 2529TP3      O19405   2.846   4.764   9.769 -0.2877  0.0376  0.0167
 2529TP3     H119406   2.885   4.807   9.845  0.9563  1.5814 -1.4136
 2529TP3     H219407   2.805   4.836   9.719  0.0011 -0.7234 -1.3816
 2530TP3      O19408   4.688   4.400   2.140  0.4696  0.1791 -0.0831
 2530TP3     H119409   4.782   4.403   2.159  0.6611  0.5963 -1.0544
 2530TP3     H219410   4.681   4.344   2.063 -0.3051 -1.5096  1.1337
 2531TP3      O19411   1.859   1.005   1.984 -0.0142  0.4913  0.0625
 2531TP3     H119412   1.869   0.925   2.037  0.7858  0.2079 -0.4887
 2531TP3     H219413   1.940   1.010   1.934 -0.3737  1.2614 -0.4578
 2532TP3      O19414   0.409   4.793   8.555 -0.0907  0.2378  0.7735
 2532TP3     H119415   0.470   4.787   8.481  0.8571  0.1661  1.5522
 2532TP3     H219416   0.399   4.703   8.585 -1.6492  0.0491 -0.1651
 2533TP3      O19417   5.011   0.069   6.957  0.3508  0.4017 -0.3100
 2533TP3     H119418   4.926   0.105   6.981 -0.1182 -0.1968 -1.0338
 2533TP3     H219419   5.070   0.099   7.026 -0.7973 -0.7050  1.2411
 2534TP3      O19420   2.155   1.963   9.938  0.1533 -0.5755 -0.3586
 2534TP3     H119421   2.124   1.985   9.851  1.6606 -0.6268 -0.9343
 2534TP3     H219422   2.136   2.040   9.991 -0.0500 -0.2412 -0.9129
 2535TP3      O19423   3.254   1.128   2.644  0.3110  0.8757 -0.4702
 2535TP3     H119424   3.188   1.159   2.706 -0.9670 -2.0979 -0.1892
 2535TP3     H219425   3.204   1.097   2.568  1.2733 -1.4869 -0.2409
 2536TP3      O19426   3.021   3.328   2.301  0.0697  1.1061  0.3358
 2536TP3     H119427   3.047   3.310   2.211 -1.5794 -0.1182  0.0603
 2536TP3     H219428   3.084   3.278   2.354  1.2357  2.0745 -0.0953
 2537TP3      O19429   1.603   4.373   7.598  0.0007  0.4297 -0.1202
 2537TP3     H119430   1.623   4.447   7.656  0.3310  1.0481 -1.0129
 2537TP3     H219431   1.547   4.316   7.651 -0.7666  1.6136  0.3734
 2538TP3      O19432   0.264   0.843   2.773  0.5315 -0.1377 -0.1988
 2538TP3     H119433   0.319   0.784   2.722  0.7144 -0.0632 -0.0851
 2538TP3     H219434   0.305   0.848   2.859  1.0745  0.9300 -0.5038
 2539TP3      O19435   0.323   4.641   3.248  0.3533 -0.3159  0.0557
 2539TP3     H119436   0.343   4.549   3.235  1.3040  0.0910 -1.4562
 2539TP3     H219437   0.243   4.655   3.197 -0.6675 -0.6067  1.4917
 2540TP3      O19438   3.604   1.934   8.840 -0.1608 -0.2317 -0.3698
 2540TP3     H119439   3.568   1.864   8.896 -0.1763 -0.4502 -0.6526
 2540TP3     H219440   3.535   2.001   8.839  0.6111  0.6613  1.4635
 2541TP3      O19441   3.688   1.267   1.957  0.1348 -0.0352  0.2341
 2541TP3     H119442   3.750   1.336   1.933  0.6547  0.3195  2.3213
 2541TP3     H219443   3.685   1.209   1.881 -0.0873  2.0929 -1.4818
 2542TP3      O19444   0.704   3.453   1.468 -0.5023  0.0394  0.0862
 2542TP3     H119445   0.613   3.484   1.461 -0.5642 -0.1938 -0.1766
 2542TP3     H219446   0.738   3.460   1.379 -0.2578  0.1358  0.1882
 2543TP3      O19447   0.474   4.103   2.446  0.7934 -0.1979 -0.0102
 2543TP3     H119448   0.402   4.040   2.442  1.2769 -1.0026  2.4115
 2543TP3     H219449   0.550   4.051   2.472  1.4346  1.1860  1.0368
 2544TP3      O19450   0.449   0.441   7.786  0.0318  0.1698  0.1711
 2544TP3     H119451   0.529   0.492   7.775 -1.8887  3.3278 -0.4960
 2544TP3     H219452   0.420   0.461   7.875 -0.5368 -0.1643  0.0659
 2545TP3      O19453   2.160   0.165   0.105 -0.0348  0.5541  0.1384
 2545TP3     H119454   2.106   0.085   0.100  1.2476 -0.3166 -0.3004
 2545TP3     H219455   2.146   0.197   0.194 -2.7900  1.4889 -0.5291
 2546TP3      O19456   4.293   1.148   2.297  0.2476  0.2056 -0.4099
 2546TP3     H119457   4.360   1.211   2.322  0.3454  1.0027 -2.4681
 2546TP3     H219458   4.309   1.072   2.353  1.1386  1.3801  0.9984
 2547TP3      O19459   0.670   4.525   7.646 -0.3122 -0.0056 -0.4417
 2547TP3     H119460   0.617   4.605   7.638  0.1603  0.2966 -0.5901
 2547TP3     H219461   0.607   4.454   7.632 -1.0903  0.2624  1.4155
 2548TP3      O19462   3.743   0.617   7.950 -0.0802 -0.2743 -0.2075
 2548TP3     H119463   3.742   0.571   8.034  0.1241 -0.1842 -0.1563
 2548TP3     H219464   3.775   0.705   7.971 -0.1041 -0.2263 -0.3667
 2549TP3      O19465   1.090   3.111   9.827  0.1869 -0.2248 -0.2063
 2549TP3     H119466   1.147   3.145   9.896  1.4142  0.1296 -1.3257
 2549TP3     H219467   1.047   3.189   9.791 -0.2963 -0.3818  0.0321
 2550TP3      O19468   4.139   1.083   8.679  0.0390  0.0193  0.2367
 2550TP3     H119469   4.146   1.007   8.737  0.2941 -0.6053 -0.5874
 2550TP3     H219470   4.207   1.142   8.709 -0.5148  0.1768  1.2363
 2551TP3      O19471   0.873   3.658   1.522 -0.3237  0.2351 -0.3402
 2551TP3     H119472   0.819   3.581   1.508 -0.2045  0.1068 -0.0979
 2551TP3     H219473   0.891   3.691   1.434 -0.9659  0.3982 -0.4111
 2552TP3      O19474   3.128   0.033   7.675  0.6091 -0.4244  0.3472
 2552TP3     H119475   3.111  -0.048   7.627  1.1494  1.1675 -2.8527
 2552TP3     H219476   3.220   0.028   7.699  0.4193 -1.1030  0.9625
 2553TP3      O19477   1.539   3.130   9.114  0.0258 -0.2957  0.0072
 2553TP3     H119478   1.518   3.223   9.109 -1.5076 -0.6563 -0.6754
 2553TP3     H219479   1.516   3.104   9.203 -0.3599 -0.1999 -0.0624
 2554TP3      O19480   2.168   4.104   1.758  0.1173  0.0769 -0.1327
 2554TP3     H119481   2.110   4.073   1.828  0.0342  0.7885  0.1204
 2554TP3     H219482   2.161   4.037   1.690  1.3666 -1.4309  1.1289
 2555TP3      O19483   3.323   3.833   1.468 -0.5725 -0.2542  0.6550
 2555TP3     H119484   3.262   3.862   1.536 -1.0744 -0.3008  0.2306
 2555TP3     H219485   3.281   3.756   1.431 -1.5988  1.2259 -1.4623
 2556TP3      O19486   3.177   2.850   9.263 -0.7583  0.3144  0.0052
 2556TP3     H119487   3.168   2.781   9.197  2.9098 -0.6473  0.3300
 2556TP3     H219488   3.173   2.804   9.347  0.6627  0.5836  0.2470
 2557TP3      O19489   1.026   4.082   0.464  0.4109  0.2291  0.1992
 2557TP3     H119490   0.997   4.103   0.375  0.7042  0.9659  0.2731
 2557TP3     H219491   0.964   4.016   0.494  0.6504 -0.4704 -0.7621
 2558TP3      O19492   4.141   2.686   1.496 -0.3007  0.1133 -0.3271
 2558TP3     H119493   4.234   2.697   1.475 -0.4695  0.4597 -0.9302
 2558TP3     H219494   4.100   2.767   1.464 -0.6933  0.3158  0.6623
 2559TP3      O19495   0.034   1.796   0.801  0.1896  0.5144 -0.5380
 2559TP3     H119496  -0.033   1.804   0.869  0.7983  1.8362 -0.0733
 2559TP3     H219497   0.012   1.863   0.737 -1.5314 -1.9302 -2.7610
 2560TP3      O19498   4.329   1.524   2.794 -0.2088 -0.0622  0.4368
 2560TP3     H119499   4.374   1.458   2.848  0.3492  1.5404  2.0384
 2560TP3     H219500   4.251   1.546   2.844 -0.5416  0.2858 -0.2257
 2561TP3      O19501   5.209   3.148   1.058 -0.1101 -0.3542 -0.5303
 2561TP3     H119502   5.131   3.175   1.009 -1.4544 -0.5438  1.4120
 2561TP3     H219503   5.179   3.076   1.113  0.5166  1.6347  2.6780
 2562TP3      O19504   1.078   4.364   2.209 -0.1568 -0.7060  0.2178
 2562TP3     H119505   1.068   4.458   2.223 -0.6575 -0.9418  1.7261
 2562TP3     H219506   1.009   4.325   2.263 -0.0738 -1.9294 -0.5275
 2563TP3      O19507   3.548   2.643   9.476 -0.2549 -0.5796 -0.1322
 2563TP3     H119508   3.520   2.711   9.415 -0.4792 -0.7323 -0.2020
 2563TP3     H219509   3.535   2.683   9.563  0.9863 -0.0054 -0.1931
 2564TP3      O19510   1.290   2.176   2.320  0.1733  0.5571 -0.0872
 2564TP3     H119511   1.256   2.156   2.407  1.3448  0.1130  0.2837
 2564TP3     H219512   1.381   2.146   2.322  0.3354  0.9055 -1.3356
 2565TP3      O19513   0.749   2.789   7.929 -0.5514 -0.0154  0.3141
 2565TP3     H119514   0.728   2.783   7.836 -0.1391  0.1317  0.2084
 2565TP3     H219515   0.687   2.854   7.964  1.5824  2.7332 -0.5987
 2566TP3      O19516   4.142   2.563   7.982 -0.0693 -0.5628 -0.3999
 2566TP3     H119517   4.078   2.529   7.920  1.1907  0.3464 -2.2681
 2566TP3     H219518   4.206   2.610   7.929 -0.6153  3.0909  1.7780
 2567TP3      O19519   3.332   5.049   7.312 -0.2784 -0.3834 -0.0300
 2567TP3     H119520   3.240   5.058   7.287 -0.3455 -0.3991  0.2087
 2567TP3     H219521   3.380   5.093   7.242 -0.4952  0.0503  0.0902
 2568TP3      O19522   4.832   1.538   1.032  0.0367 -0.4637  0.0048
 2568TP3     H119523   4.897   1.509   1.097  0.6081  1.1672  0.2227
 2568TP3     H219524   4.873   1.520   0.948 -0.2805 -1.6635  0.0897
 2569TP3      O19525   2.201   1.488   1.056 -0.6288 -0.2628 -0.0387
 2569TP3     H119526   2.245   1.442   0.984 -1.3282 -0.8271 -0.1240
 2569TP3     H219527   2.270   1.505   1.120 -0.5856 -2.9568  0.7560
 2570TP3      O19528   4.498   1.833   9.055  0.3924 -0.2668 -0.1390
 2570TP3     H119529   4.547   1.909   9.088  0.4567 -0.1046 -0.6020
 2570TP3     H219530   4.516   1.764   9.119  1.7271 -0.3909 -0.6050
 2571TP3      O19531   0.895   3.615   2.604 -0.4735 -0.3431 -0.6395
 2571TP3     H119532   0.846   3.592   2.525 -0.6219  0.3544 -0.7622
 2571TP3     H219533   0.882   3.541   2.663  0.6740 -1.4326 -1.7268
 2572TP3      O19534   0.018   2.325   7.048 -0.2695 -0.0473  0.0210
 2572TP3     H119535   0.017   2.236   7.013  0.3280 -0.3312  0.6921
 2572TP3     H219536   0.098   2.364   7.014 -0.2189  0.0220  0.2148
 2573TP3      O19537   1.451   2.728   0.033  0.1890  0.5427  0.7104
 2573TP3     H119538   1.544   2.723   0.009  0.0135  1.6459 -0.3065
 2573TP3     H219539   1.425   2.817   0.010 -1.5618 -0.2681 -0.6688
 2574TP3      O19540   1.763   4.550   9.797 -0.2163 -0.4271 -0.7399
 2574TP3     H119541   1.680   4.553   9.749  0.4535  2.0385 -1.9161
 2574TP3     H219542   1.747   4.603   9.875 -0.4286 -1.9946  0.3175
 2575TP3      O19543   4.798   2.936   2.230  0.0086 -0.6886 -0.1878
 2575TP3     H119544   4.719   2.988   2.214  0.5965 -0.0229 -1.0477
 2575TP3     H219545   4.803   2.928   2.326  0.5505  1.9540  0.1010
 2576TP3      O19546   2.617   2.060   1.441 -0.2036 -0.7856  0.6435
 2576TP3     H119547   2.700   2.107   1.438 -1.0517  1.1487  3.5361
 2576TP3     H219548   2.564   2.100   1.373  0.7553 -1.1478 -0.3536
 2577TP3      O19549   1.026   3.853   9.115 -0.2596  0.1527  0.1359
 2577TP3     H119550   0.976   3.837   9.195  1.0327 -0.1106  0.9171
 2577TP3     H219551   1.044   3.947   9.116  1.3902 -0.1241  1.2008
 2578TP3      O19552   2.234   5.011   2.997 -0.8714 -0.1566 -0.1181
 2578TP3     H119553   2.228   4.916   3.009 -4.5973 -0.5104 -2.9849
 2578TP3     H219554   2.265   5.022   2.908 -1.9164  1.2568 -0.3340
 2579TP3      O19555   4.167   0.550   1.562  0.1386  0.1052 -0.9176
 2579TP3     H119556   4.197   0.631   1.604 -0.8204 -0.3891  0.8564
 2579TP3     H219557   4.150   0.575   1.471 -1.2010  2.2239 -0.1765
 2580TP3      O19558   2.383   3.911   0.242 -0.2998 -0.1602  0.5074
 2580TP3     H119559   2.433   3.980   0.286  0.3642  0.7417 -1.5224
 2580TP3     H219560   2.300   3.953   0.219  0.1805  0.0492 -0.9036
 2581TP3      O19561   4.080   1.372   1.630 -0.9482  0.3427 -0.6013
 2581TP3     H119562   4.078   1.303   1.564 -0.8554 -0.4840  0.2344
 2581TP3     H219563   4.173   1.384   1.648 -1.0132 -1.6176  1.5429
 2582TP3      O19564   4.255   2.847   2.593 -0.3299  0.0046 -0.1867
 2582TP3     H119565   4.220   2.763   2.563 -0.7966  0.2263 -0.2722
 2582TP3     H219566   4.313   2.875   2.522  1.8324 -1.4219  0.9027
 2583TP3      O19567   2.019   2.311   1.947 -0.5590  0.3833 -0.1309
 2583TP3     H119568   2.036   2.224   1.911 -0.9989  0.0754  0.3858
 2583TP3     H219569   1.952   2.297   2.014 -2.6029  1.4795 -1.8005
 2584TP3      O19570   1.081   1.712   8.038  0.2113 -0.0067  0.1089
 2584TP3     H119571   0.995   1.716   7.997  0.6499 -0.2521 -0.8622
 2584TP3     H219572   1.063   1.713   8.132 -0.7845  1.4953 -0.0649
 2585TP3      O19573   3.981   4.461   8.291 -0.4854 -0.2791 -0.6243
 2585TP3     H119574   3.911   4.517   8.256 -0.4933  0.4036  0.4518
 2585TP3     H219575   4.004   4.404   8.217 -2.5213 -0.8690 -0.8728
 2586TP3      O19576   2.678   4.667   0.618  0.4032  0.3281 -0.2122
 2586TP3     H119577   2.585   4.689   0.621  0.6304  1.5212 -1.0926
 2586TP3     H219578   2.715   4.709   0.696  0.6013  2.0647 -1.1832
 2587TP3      O19579   0.789   4.813   9.679 -0.5096 -0.0334  0.3303
 2587TP3     H119580   0.790   4.751   9.752 -0.5503 -1.1418 -0.5743
 2587TP3     H219581   0.741   4.767   9.610  1.4486  0.0655 -1.1764
 2588TP3      O19582   4.540   4.061   8.173  0.5598  0.0783 -0.5298
 2588TP3     H119583   4.627   4.049   8.212 -0.0147  0.6328  1.0044
 2588TP3     H219584   4.539   4.151   8.142  0.0717  0.5248  0.7345
 2589TP3      O19585   2.041   4.614   7.521  0.7691 -0.0674  0.0707
 2589TP3     H119586   1.946   4.624   7.510  1.0338  1.5341 -1.0171
 2589TP3     H219587   2.065   4.549   7.455  0.3043 -1.3188  1.0893
 2590TP3      O19588   4.637   0.617   0.557  0.6249 -0.0015 -0.0081
 2590TP3     H119589   4.671   0.704   0.575  3.5296 -0.6124 -1.8019
 2590TP3     H219590   4.684   0.560   0.618  0.8938 -0.5820 -0.7359
 2591TP3      O19591   3.570   4.117   0.954  0.8619 -0.0107 -0.1042
 2591TP3     H119592   3.531   4.048   0.900  1.6114 -0.7003  0.2126
 2591TP3     H219593   3.648   4.143   0.906  1.9448 -1.1478  0.9688
 2592TP3      O19594   3.473   3.613   0.952 -0.2740  0.0552  1.2530
 2592TP3     H119595   3.449   3.523   0.930  0.0570 -0.2191  1.9739
 2592TP3     H219596   3.565   3.607   0.976 -0.9388  0.0384  4.1247
 2593TP3      O19597   1.952   5.072   8.830  0.3619  0.0753  0.0489
 2593TP3     H119598   2.012   5.089   8.902 -0.2301  0.5474  0.4455
 2593TP3     H219599   1.875   5.034   8.872 -0.1501  0.7407 -0.2748
 2594TP3      O19600   2.126   4.281   0.140 -0.1587 -0.3526 -0.1176
 2594TP3     H119601   2.066   4.222   0.186  0.7379 -1.3458 -0.1722
 2594TP3     H219602   2.117   4.365   0.185 -1.5593 -0.4839 -0.1155
 2595TP3      O19603   1.409   0.613   2.914 -0.1651 -0.0575  0.0708
 2595TP3     H119604   1.466   0.674   2.866  0.5124 -0.4581  0.3586
 2595TP3     H219605   1.326   0.618   2.867  0.3300 -0.0511 -0.8434
 2596TP3      O19606   4.936   1.398   3.252  0.1105  0.1110 -0.2936
 2596TP3     H119607   5.025   1.374   3.225  1.5788  2.2604  2.1264
 2596TP3     H219608   4.916   1.341   3.325  0.6419  1.3519  0.8552
 2597TP3      O19609   0.687   3.868   1.783 -0.6744 -0.1380 -0.0320
 2597TP3     H119610   0.604   3.914   1.771 -0.5732  0.3452  1.0410
 2597TP3     H219611   0.694   3.856   1.878 -0.1627 -1.3847 -0.2129
 2598TP3      O19612   3.054   0.601   0.966 -0.1928  0.6408 -0.1690
 2598TP3     H119613   2.959   0.601   0.959 -0.2271  2.8616 -0.2937
 2598TP3     H219614   3.082   0.542   0.896 -1.4792 -1.5057  1.0327
 2599TP3      O19615   1.438   2.296   3.333  0.5716  0.6796  0.1770
 2599TP3     H119616   1.499   2.312   3.261 -0.7868 -0.7466 -1.3460
 2599TP3     H219617   1.354   2.328   3.301 -0.5793 -2.2171  0.0733
 2600TP3      O19618   0.146   4.019   8.293  0.5910 -0.2272 -0.1422
 2600TP3     H119619   0.129   4.071   8.215 -0.7298 -1.3096 -0.6281
 2600TP3     H219620   0.185   3.938   8.260  0.4931 -0.4849  0.3571
 2601TP3      O19621   1.037   0.729   9.291 -0.5903 -0.3009  1.0178
 2601TP3     H119622   0.944   0.709   9.305  0.0346 -2.0276  3.3704
 2601TP3     H219623   1.083   0.663   9.342  2.0687 -1.4874 -2.5004
 2602TP3      O19624   4.987   2.274   8.940  0.2848  0.3021  0.0758
 2602TP3     H119625   5.047   2.215   8.986 -0.0048 -0.3442 -0.3599
 2602TP3     H219626   4.925   2.302   9.007 -0.2358 -0.7689  0.0514
 2603TP3      O19627   0.131   1.546   7.874 -0.2237 -0.5646 -0.2029
 2603TP3     H119628   0.139   1.515   7.784  2.0380  1.0414 -0.6390
 2603TP3     H219629   0.117   1.466   7.926 -0.4432 -1.6364 -1.8499
 2604TP3      O19630   1.103   5.049   8.679  0.2499  0.6173  0.0588
 2604TP3     H119631   1.114   5.010   8.593 -1.1455 -0.5986  0.3844
 2604TP3     H219632   1.131   4.981   8.740  2.4903  1.9276  0.5855
 2605TP3      O19633   1.129   3.508   9.450  0.2465 -0.0638 -0.2139
 2605TP3     H119634   1.137   3.424   9.494 -0.8204  0.4225  0.9851
 2605TP3     H219635   1.186   3.501   9.374  1.4120 -1.2999  0.7140
 2606TP3      O19636   0.598   1.137   1.632 -0.1230  0.4049  0.1833
 2606TP3     H119637   0.621   1.064   1.574 -1.1903 -1.1922  1.6624
 2606TP3     H219638   0.504   1.126   1.648 -0.2045  1.8162  0.8750
 2607TP3      O19639   1.872   0.700   9.424 -0.2389 -0.3445  0.8005
 2607TP3     H119640   1.931   0.701   9.348  1.7095 -0.2059  2.2178
 2607TP3     H219641   1.789   0.734   9.391  1.7577  4.1151 -0.3481
 2608TP3      O19642   4.422   3.626   9.980 -0.2408 -0.1415  0.5959
 2608TP3     H119643   4.410   3.532   9.980  0.3809 -0.2294  0.6955
 2608TP3     H219644   4.462   3.645   9.895 -1.5310  0.2080  0.0376
 2609TP3      O19645   1.934   4.965   7.349 -0.5881  0.0919  0.1843
 2609TP3     H119646   1.965   4.934   7.434  0.6054 -0.1645 -0.3291
 2609TP3     H219647   1.994   5.035   7.325 -0.7018 -0.0661 -0.6072
 2610TP3      O19648   0.718   2.380   7.822  0.4953  0.6555  0.1245
 2610TP3     H119649   0.764   2.405   7.902  0.5900  1.0503 -0.0513
 2610TP3     H219650   0.680   2.294   7.842  0.1636  0.9372  0.7397
 2611TP3      O19651   0.674   1.178   9.687 -0.2788  0.3939  1.0371
 2611TP3     H119652   0.587   1.161   9.723  0.4777 -1.3268  2.2016
 2611TP3     H219653   0.734   1.133   9.747  1.5272  2.3862  0.8539
 2612TP3      O19654   4.453   4.525   2.497  0.3157 -0.0969 -0.1412
 2612TP3     H119655   4.364   4.561   2.487  0.4634  0.2210 -0.3223
 2612TP3     H219656   4.439   4.439   2.537 -0.0894 -0.1225 -0.3254
 2613TP3      O19657   1.396   2.010   3.262  0.2821 -0.0798  0.2358
 2613TP3     H119658   1.380   2.063   3.184 -0.2789 -0.1003  0.3342
 2613TP3     H219659   1.455   2.063   3.315  1.2698 -0.3763 -0.5251
 2614TP3      O19660   2.007   4.103   2.464 -0.0728  0.2947  0.1433
 2614TP3     H119661   2.074   4.038   2.486  0.0600  0.2247 -0.4472
 2614TP3     H219662   1.959   4.117   2.546  1.7708  1.6495  1.0590
 2615TP3      O19663   4.380   4.229   3.671  0.2362  0.3009  0.7403
 2615TP3     H119664   4.384   4.140   3.706  0.7549  0.5886  1.4181
 2615TP3     H219665   4.427   4.224   3.588 -1.5991 -0.5399 -0.3208
 2616TP3      O19666   0.021   1.493   2.968  0.2211  0.1826 -0.0202
 2616TP3     H119667   0.116   1.495   2.956  0.3556 -0.2253  0.9373
 2616TP3     H219668  -0.014   1.537   2.890  1.1778  0.0449 -0.5331
 2617TP3      O19669   1.302   4.768   2.014  0.2754  0.3940 -0.1882
 2617TP3     H119670   1.330   4.697   1.956  0.5864  0.1049  0.3076
 2617TP3     H219671   1.375   4.780   2.075  0.3651  1.3776 -0.4818
 2618TP3      O19672   2.782   3.837   7.701 -0.1962 -1.1080 -0.4253
 2618TP3     H119673   2.755   3.919   7.743  1.3981 -0.4504 -0.6210
 2618TP3     H219674   2.734   3.769   7.749  0.8343 -0.3121  1.9218
 2619TP3      O19675   2.214   2.136   9.118  0.2933 -0.0515 -0.2754
 2619TP3     H119676   2.198   2.206   9.055 -2.5210 -0.2685  0.1015
 2619TP3     H219677   2.304   2.151   9.148  1.1344  1.0371 -3.0445
 2620TP3      O19678   3.758   1.158   7.635 -0.3631  0.0177 -0.8317
 2620TP3     H119679   3.841   1.147   7.680 -0.6153  1.1879 -0.0494
 2620TP3     H219680   3.744   1.075   7.590  1.4214 -0.0567 -1.3154
 2621TP3      O19681   1.112   4.140   8.710  0.0959 -0.4945  0.5297
 2621TP3     H119682   1.129   4.070   8.773  3.3525  0.3488  0.8083
 2621TP3     H219683   1.102   4.218   8.764 -4.3883 -0.6840  0.2794
 2622TP3      O19684   5.198   4.720   2.153 -0.2046 -0.3181  0.1813
 2622TP3     H119685   5.170   4.811   2.168  0.4036  0.0440 -0.8443
 2622TP3     H219686   5.232   4.692   2.238  1.1144  0.9604  0.1102
 2623TP3      O19687   2.456   2.260   9.731 -0.1632 -0.4405 -0.0073
 2623TP3     H119688   2.368   2.261   9.693 -0.0506 -0.0786 -0.2674
 2623TP3     H219689   2.446   2.298   9.818 -0.1679  0.1614 -0.2639
 2624TP3      O19690   5.046   3.340   1.654 -0.1147  0.2658  0.3007
 2624TP3     H119691   5.072   3.299   1.571 -0.3596  0.1644  0.2731
 2624TP3     H219692   4.968   3.390   1.633 -0.8900 -0.7286  0.7161
 2625TP3      O19693   5.252   3.025   6.671 -0.2886  0.1728 -0.1511
 2625TP3     H119694   5.291   3.045   6.586 -0.8069  0.9243 -0.2170
 2625TP3     H219695   5.326   2.997   6.725  0.3972  1.7267 -0.2297
 2626TP3      O19696   1.692   4.473   9.355  0.1809  0.0346  0.3639
 2626TP3     H119697   1.597   4.467   9.346  0.2846 -1.1224 -0.0955
 2626TP3     H219698   1.711   4.432   9.439  0.2530  0.6680  0.6694
 2627TP3      O19699   1.241   1.345   9.356 -0.1982 -0.3598  0.1644
 2627TP3     H119700   1.190   1.422   9.380  1.3330  0.3403  1.3745
 2627TP3     H219701   1.215   1.326   9.266 -0.3979  1.7775 -0.2986
 2628TP3      O19702   4.941   5.107   0.275 -0.5049 -0.5288 -0.3880
 2628TP3     H119703   4.871   5.046   0.298 -0.7979  0.2074  0.7588
 2628TP3     H219704   4.989   5.063   0.205 -1.6261 -1.3959 -0.6434
 2629TP3      O19705   1.529   3.746   8.006  0.0585  0.2758  0.3293
 2629TP3     H119706   1.601   3.734   7.945  0.6915  0.5224  1.0043
 2629TP3     H219707   1.554   3.695   8.083 -1.3828 -1.1808 -0.1133
 2630TP3      O19708   4.002   0.644   7.384 -0.6058  0.2931  0.3197
 2630TP3     H119709   3.961   0.658   7.470  1.7139  1.4500  1.3314
 2630TP3     H219710   3.936   0.672   7.321 -1.6189  1.4227  1.8085
 2631TP3      O19711   4.917   1.532   3.010  0.4906  0.6194  0.3829
 2631TP3     H119712   4.894   1.491   3.094 -0.0874  2.4734  1.1880
 2631TP3     H219713   4.955   1.617   3.035 -0.9305  1.7994 -1.2422
 2632TP3      O19714   3.131   3.593   8.669  0.4488 -0.2675  0.5748
 2632TP3     H119715   3.042   3.596   8.635  0.6174 -0.5562  0.0914
 2632TP3     H219716   3.173   3.521   8.620  0.9251 -0.1754  0.8385
 2633TP3      O19717   1.007   4.099   0.820 -0.4544  0.1541 -0.1877
 2633TP3     H119718   0.963   4.116   0.904 -0.8695 -0.0657 -0.3574
 2633TP3     H219719   1.030   4.186   0.787  0.7515  0.2026  0.6939
 2634TP3      O19720   4.316   4.207   2.116  0.0823  0.0501  0.2240
 2634TP3     H119721   4.355   4.294   2.124  1.9478 -0.3984 -2.6649
 2634TP3     H219722   4.327   4.168   2.203  1.5251  1.7781  0.8830
 2635TP3      O19723   4.382   1.650   0.808  0.8428  0.4842  0.4169
 2635TP3     H119724   4.417   1.691   0.887  1.4258 -0.0924  0.4690
 2635TP3     H219725   4.458   1.610   0.767  0.3259 -0.3305  0.2425
 2636TP3      O19726   4.121   0.384   8.388  0.5131 -0.2601  0.0905
 2636TP3     H119727   4.212   0.399   8.361  0.6851 -0.0362  0.7761
 2636TP3     H219728   4.083   0.334   8.315  1.4761 -1.2978  0.2612
 2637TP3      O19729   3.347   1.648   0.487 -0.1398 -0.2784 -0.1592
 2637TP3     H119730   3.306   1.729   0.519  1.0167  0.2295  0.1148
 2637TP3     H219731   3.419   1.633   0.548 -0.0714 -1.2794 -0.4774
 2638TP3      O19732   1.837   4.933   6.510 -0.4114 -0.3141 -1.2194
 2638TP3     H119733   1.870   5.009   6.559  2.7144 -2.6125  0.6442
 2638TP3     H219734   1.817   4.868   6.577 -0.9400 -1.8805 -2.8256
 2639TP3      O19735   2.786   0.518   1.270  0.3450  0.3155  0.6539
 2639TP3     H119736   2.804   0.597   1.219 -0.6462  0.6418  0.7846
 2639TP3     H219737   2.692   0.521   1.285  0.4779 -0.2899  1.6692
 2640TP3      O19738   3.880   0.570   7.082  0.1825  0.0434 -0.5185
 2640TP3     H119739   3.903   0.585   6.990 -0.2645 -0.2791 -0.6878
 2640TP3     H219740   3.850   0.655   7.113 -0.2384  0.0188 -0.8446
 2641TP3      O19741   2.041   2.265   7.575 -0.5760 -0.0862  0.0404
 2641TP3     H119742   2.087   2.305   7.648 -0.3275  0.0347 -0.1817
 2641TP3     H219743   1.967   2.219   7.615  0.3454 -1.2107  0.5204
 2642TP3      O19744   2.954   0.395   2.859 -0.1692  0.1379  0.2070
 2642TP3     H119745   3.016   0.458   2.894  0.3669 -0.2723  0.0080
 2642TP3     H219746   2.999   0.311   2.863 -0.0620  0.0673 -1.4555
 2643TP3      O19747   3.840   4.844   8.910  0.1888  0.3042 -0.6812
 2643TP3     H119748   3.815   4.930   8.944  1.5104  0.8199 -0.9440
 2643TP3     H219749   3.879   4.862   8.824 -1.1364 -0.7619 -1.5664
 2644TP3      O19750   0.677   3.614   1.082  0.2840 -0.1502  0.4110
 2644TP3     H119751   0.604   3.673   1.100  0.5569  0.4813 -0.4546
 2644TP3     H219752   0.739   3.630   1.152  0.3880  0.6615  0.1426
 2645TP3      O19753   5.056   2.954   2.383  0.3725  0.2606  0.5540
 2645TP3     H119754   5.150   2.953   2.367  0.3142  0.2331  0.2080
 2645TP3     H219755   5.027   2.865   2.364  0.2304  0.3446  0.3692
 2646TP3      O19756   0.295   4.498   9.056 -0.4555  0.5625  0.0425
 2646TP3     H119757   0.316   4.460   8.970 -0.6790  1.5068 -0.4419
 2646TP3     H219758   0.294   4.592   9.041  0.9153  0.8339  1.4122
 2647TP3      O19759   4.858   4.471   8.364  0.0611  0.0976  0.1615
 2647TP3     H119760   4.819   4.507   8.284  2.0850  1.4928 -0.2734
 2647TP3     H219761   4.852   4.376   8.353  0.3836  0.2666 -1.7093
 2648TP3      O19762   2.948   0.474   3.303 -0.1746 -0.2927 -0.0017
 2648TP3     H119763   2.954   0.450   3.395 -1.4756 -2.7503 -0.4676
 2648TP3     H219764   2.979   0.397   3.256  0.6027  0.9634 -1.6619
 2649TP3      O19765   0.039   4.584   1.370  0.1043  0.2393 -0.3990
 2649TP3     H119766   0.125   4.576   1.411 -0.7027 -2.3542  0.9804
 2649TP3     H219767  -0.024   4.580   1.442 -1.3328 -3.3860 -1.6334
 2650TP3      O19768   1.733   4.635   0.939 -0.1632 -0.1973 -0.4538
 2650TP3     H119769   1.739   4.651   1.033 -0.2350  1.6536 -0.7158
 2650TP3     H219770   1.643   4.604   0.926 -0.5051  0.5848 -0.0244
 2651TP3      O19771   3.984   3.433   7.733  1.0011  0.3729 -0.6375
 2651TP3     H119772   4.049   3.389   7.787  1.5300 -0.1406 -1.6626
 2651TP3     H219773   3.906   3.438   7.789  2.3355  2.4545  1.2231
 2652TP3      O19774   1.841   0.645   7.731  0.2445  0.0375 -0.4695
 2652TP3     H119775   1.932   0.631   7.707  0.2503 -0.4287 -0.1849
 2652TP3     H219776   1.826   0.739   7.716  1.1090  0.3681  0.6577
 2653TP3      O19777   4.656   0.154   2.779  0.0284 -0.8688  0.6104
 2653TP3     H119778   4.720   0.225   2.773  0.3327 -1.2706 -1.6350
 2653TP3     H219779   4.692   0.095   2.845  1.1172 -0.2583  0.5824
 2654TP3      O19780   3.679   0.727   1.987  0.5617  0.2723  0.0512
 2654TP3     H119781   3.689   0.818   2.015  0.2504  0.6110 -0.8948
 2654TP3     H219782   3.764   0.704   1.951 -0.0070  0.9977 -1.9104
 2655TP3      O19783   4.348   4.655   1.607 -0.3270 -0.0385 -0.1409
 2655TP3     H119784   4.314   4.685   1.691  1.3108  0.0240  0.5334
 2655TP3     H219785   4.282   4.682   1.543 -1.0462  0.9460  0.9803
 2656TP3      O19786   4.029   0.683   2.340  0.1269 -0.1363  0.2813
 2656TP3     H119787   3.988   0.614   2.392 -0.8548  0.2168 -0.0012
 2656TP3     H219788   3.970   0.757   2.348 -0.2024 -0.1582 -1.5611
 2657TP3      O19789   0.863   5.207   7.664  0.1977 -0.1541  0.6388
 2657TP3     H119790   0.948   5.249   7.680  0.0851  0.5361 -0.4301
 2657TP3     H219791   0.855   5.207   7.568 -1.1136  0.0011  0.7407
 2658TP3      O19792   0.383   5.169   2.006 -0.4476 -0.4955 -0.5592
 2658TP3     H119793   0.359   5.261   1.997 -0.5985 -0.4836 -0.0703
 2658TP3     H219794   0.322   5.135   2.071 -0.2625 -0.8922 -0.5917
 2659TP3      O19795   2.245   2.130   2.415  0.1227  0.6914 -0.1591
 2659TP3     H119796   2.226   2.048   2.370 -3.3111  1.7268 -0.9228
 2659TP3     H219797   2.202   2.121   2.500  0.0674  1.5206 -0.0884
 2660TP3      O19798   2.393   0.256   1.215 -0.1041 -0.2593 -0.5318
 2660TP3     H119799   2.359   0.304   1.140 -0.0450  1.2944  0.4099
 2660TP3     H219800   2.321   0.197   1.240 -0.8344  0.5548 -0.6630
 2661TP3      O19801   1.235   3.919   0.955 -0.1262 -0.0429 -0.1944
 2661TP3     H119802   1.210   3.862   1.028  0.9173 -0.6509 -0.2878
 2661TP3     H219803   1.153   3.940   0.911 -0.4483 -2.3635 -0.7990
 2662TP3      O19804   4.957   1.957   0.747  0.2814 -0.2396 -0.1769
 2662TP3     H119805   4.945   1.965   0.842 -1.0662 -0.1143 -0.3312
 2662TP3     H219806   4.947   2.047   0.714  1.5219 -0.1613 -0.3767
 2663TP3      O19807   1.979   0.115   8.980 -0.0274 -0.4440 -0.1947
 2663TP3     H119808   2.023   0.172   9.043  1.7425 -1.6959 -0.1881
 2663TP3     H219809   2.023   0.030   8.991  0.0823 -0.8160 -2.7956
 2664TP3      O19810   3.732   1.004   0.202  0.0419  0.4177  0.0893
 2664TP3     H119811   3.640   0.980   0.214  0.4328  0.2811  4.4931
 2664TP3     H219812   3.780   0.921   0.207  0.5333  0.7371  1.1113
 2665TP3      O19813   0.529   2.956   6.916  0.0873  0.3148 -0.6902
 2665TP3     H119814   0.569   3.041   6.900  1.1366  0.0907  0.6076
 2665TP3     H219815   0.593   2.893   6.884 -0.6551 -0.0124 -1.5789
 2666TP3      O19816   1.167   3.906   7.529 -0.3036  0.0678 -0.0992
 2666TP3     H119817   1.202   3.867   7.609  0.3840  0.2800 -0.2887
 2666TP3     H219818   1.078   3.871   7.522  0.5773 -2.2574 -0.7594
 2667TP3      O19819   3.910   2.543   1.633 -0.1746 -0.3823  0.4595
 2667TP3     H119820   3.829   2.564   1.587 -0.1047 -0.2991  0.3749
 2667TP3     H219821   3.973   2.609   1.603  0.1269 -0.8883 -0.0399
 2668TP3      O19822   0.510   2.702   7.189  0.3848 -0.0820  0.5954
 2668TP3     H119823   0.574   2.726   7.123  0.5104  1.5304  1.2511
 2668TP3     H219824   0.518   2.607   7.198  0.3988 -0.3245 -1.6269
 2669TP3      O19825   3.202   3.068   2.798 -0.6757  0.6593  0.5474
 2669TP3     H119826   3.284   3.051   2.843 -0.1793 -1.4811 -0.9896
 2669TP3     H219827   3.221   3.139   2.737  0.3680 -0.4311 -0.4539
 2670TP3      O19828   4.127   4.222   8.338 -0.1373 -0.1833 -0.4345
 2670TP3     H119829   4.068   4.296   8.327 -0.0182  0.2122  1.2894
 2670TP3     H219830   4.210   4.251   8.303 -0.2232  0.3278 -0.2187
 2671TP3      O19831   0.070   2.523   9.703 -0.2111 -0.2760 -0.1701
 2671TP3     H119832  -0.023   2.510   9.722  0.0635  0.9137  2.3359
 2671TP3     H219833   0.115   2.503   9.785  1.4839  1.6779 -0.5411
 2672TP3      O19834   4.000   3.330   2.633  0.0397  0.3912  0.1450
 2672TP3     H119835   3.934   3.291   2.576  0.3427 -0.2759  0.2433
 2672TP3     H219836   3.997   3.424   2.613  1.0024  0.0308 -1.8620
 2673TP3      O19837   0.788   4.674   1.010  0.2215 -0.1725  0.1870
 2673TP3     H119838   0.780   4.760   0.971  2.0412 -0.9115 -2.0021
 2673TP3     H219839   0.852   4.685   1.081  0.7678  0.2015 -0.3590
 2674TP3      O19840   1.446   0.693   9.534  0.0590  0.4173  0.6674
 2674TP3     H119841   1.420   0.683   9.442 -1.0335  0.8538  0.9114
 2674TP3     H219842   1.434   0.606   9.572  1.7824 -0.0908  0.1054
 2675TP3      O19843   0.350   4.715   9.340  0.6728 -0.7415  0.1041
 2675TP3     H119844   0.424   4.747   9.391  0.1367 -0.1063  0.5058
 2675TP3     H219845   0.315   4.793   9.297  0.7322 -1.1700 -0.7396
 2676TP3      O19846   0.611   1.648   6.649 -0.1634  0.1990  0.1047
 2676TP3     H119847   0.582   1.611   6.732 -2.2814 -0.8668 -1.0111
 2676TP3     H219848   0.558   1.728   6.639  0.4952  0.6331  0.0318
 2677TP3      O19849   1.750   2.304   2.476 -0.3070 -0.6410  0.2068
 2677TP3     H119850   1.763   2.242   2.548 -0.2155 -1.3747 -0.4304
 2677TP3     H219851   1.834   2.305   2.430 -0.3088 -0.0433  0.2099
 2678TP3      O19852   4.883   1.509   9.373  0.3969 -0.5453  0.3964
 2678TP3     H119853   4.854   1.590   9.333  0.3706 -1.3163 -1.1996
 2678TP3     H219854   4.977   1.505   9.356  0.3970 -0.8554  0.4557
 2679TP3      O19855   3.453   4.590  10.072 -0.1082  0.3299  0.2271
 2679TP3     H119856   3.437   4.531   9.999  0.6524  1.5975 -1.0078
 2679TP3     H219857   3.372   4.588  10.123 -0.7282 -0.4169 -0.7511
 2680TP3      O19858   1.714   4.732  10.009  0.3505 -0.3838 -0.2734
 2680TP3     H119859   1.782   4.784  10.052 -0.3500  0.5327 -0.2682
 2680TP3     H219860   1.662   4.795   9.960  0.0713 -1.2031 -1.0647
 2681TP3      O19861   3.700   0.600   8.467 -0.7458  0.6968  0.1459
 2681TP3     H119862   3.785   0.616   8.510 -0.4195  0.2817 -0.3319
 2681TP3     H219863   3.683   0.680   8.417 -0.4479  0.6248 -0.0697
 2682TP3      O19864   3.204   2.816   8.839  0.3140  0.3719  0.1459
 2682TP3     H119865   3.145   2.815   8.764  0.2476  0.0928  0.2033
 2682TP3     H219866   3.170   2.886   8.895 -1.0140 -0.9291  1.0243
 2683TP3      O19867   2.360   3.349   8.275  0.0092 -1.1829 -0.7298
 2683TP3     H119868   2.407   3.347   8.192  2.0786  1.1776  0.2541
 2683TP3     H219869   2.420   3.309   8.338  0.7863  1.5999  0.4909
 2684TP3      O19870   5.072   3.322   9.631 -0.3204 -0.2363 -0.2841
 2684TP3     H119871   5.121   3.357   9.705 -0.2626 -0.5551 -0.1687
 2684TP3     H219872   5.076   3.390   9.565 -1.6135  0.6705  0.5260
 2685TP3      O19873   3.049   1.699   0.717  0.2424 -0.3648  0.0006
 2685TP3     H119874   2.983   1.731   0.655 -0.5040  1.0848  1.4766
 2685TP3     H219875   3.073   1.613   0.683  0.7218  0.8027 -2.9441
 2686TP3      O19876   4.898   1.205   1.825  0.0372  0.0086  0.2022
 2686TP3     H119877   4.932   1.243   1.907  0.1642  0.7913 -0.2095
 2686TP3     H219878   4.876   1.280   1.771 -1.7171 -0.4918  0.1718
 2687TP3      O19879   4.105   0.631   0.224  0.2973  0.4043 -0.4309
 2687TP3     H119880   4.163   0.672   0.160  0.2924 -0.1880 -0.8281
 2687TP3     H219881   4.109   0.537   0.203  1.3449  0.0253  1.2865
 2688TP3      O19882   4.859   1.294   0.074 -0.2468  0.1752  0.2393
 2688TP3     H119883   4.936   1.295   0.130 -0.7625 -1.2270  1.0339
 2688TP3     H219884   4.877   1.226   0.009  0.2725  1.6708 -1.2265
 2689TP3      O19885   1.332   2.340   0.989  0.1260  0.7953 -0.3977
 2689TP3     H119886   1.289   2.257   0.969  1.1284 -0.2487  1.4754
 2689TP3     H219887   1.420   2.331   0.951  1.2697 -0.3025  2.2641
 2690TP3      O19888   5.118   1.837   9.047 -0.3198 -0.7715 -0.4858
 2690TP3     H119889   5.120   1.856   9.140  3.7124 -3.3650  0.1937
 2690TP3     H219890   5.120   1.923   9.005 -3.6216  0.5016  1.6174
 2691TP3      O19891   2.466   5.003   0.906  0.4270 -0.0850  0.4458
 2691TP3     H119892   2.394   4.996   0.969 -0.2472  0.6441 -0.2245
 2691TP3     H219893   2.544   5.014   0.960  0.0067 -0.6238  1.1763
 2692TP3      O19894   2.216   4.768   2.596 -0.2153  0.3063 -0.1090
 2692TP3     H119895   2.181   4.732   2.677  2.9921 -1.2620  0.7529
 2692TP3     H219896   2.172   4.717   2.527  0.8248 -2.1845  0.9339
 2693TP3      O19897   0.099   4.690   7.188 -0.2478 -0.1485  0.1263
 2693TP3     H119898   0.110   4.785   7.181 -0.5824 -0.0638  0.6072
 2693TP3     H219899   0.168   4.663   7.249 -1.6215  0.1627  1.9365
 2694TP3      O19900   2.874   0.538   2.635  0.6144  0.1233 -0.7922
 2694TP3     H119901   2.932   0.477   2.681  1.5822  1.2035 -0.5441
 2694TP3     H219902   2.786   0.507   2.655  1.0806 -1.2915 -0.8186
 2695TP3      O19903   4.511   2.804   1.857  0.3338  0.2224 -0.1251
 2695TP3     H119904   4.592   2.851   1.875  1.3461 -1.7151  0.7512
 2695TP3     H219905   4.492   2.757   1.939 -1.3748  0.2073 -0.4956
 2696TP3      O19906   3.218   5.004   9.203 -0.6166 -0.1530 -0.0739
 2696TP3     H119907   3.165   4.934   9.240 -1.7082  1.1188  0.9003
 2696TP3     H219908   3.154   5.061   9.159  0.3127 -0.0755 -1.3536
 2697TP3      O19909   3.886   4.746   7.796 -0.5513 -0.0212 -0.0521
 2697TP3     H119910   3.913   4.742   7.704  0.0884  1.1730  0.0631
 2697TP3     H219911   3.924   4.668   7.836  2.2940  1.2294 -0.0463
 2698TP3      O19912   4.065   3.235   0.813 -0.1781  0.2156 -0.3315
 2698TP3     H119913   4.099   3.323   0.830 -1.3870  0.4293  1.2234
 2698TP3     H219914   4.083   3.220   0.721  2.3368  1.0600 -0.0506
 2699TP3      O19915   2.201   1.304   0.260  0.5141 -0.2638 -0.4654
 2699TP3     H119916   2.179   1.273   0.172  1.4086 -1.0120 -0.4382
 2699TP3     H219917   2.166   1.236   0.318 -2.1946  1.3487 -0.0496
 2700TP3      O19918   0.015   2.597   3.142 -0.5703 -0.1910 -0.1727
 2700TP3     H119919   0.025   2.538   3.216 -3.3510  0.1137  0.5489
 2700TP3     H219920   0.104   2.616   3.114  0.5209 -1.0523  2.4834
 2701TP3      O19921   4.056   0.347   9.130 -0.4226  0.1793  0.1684
 2701TP3     H119922   4.084   0.263   9.165 -0.4181  0.4279  0.7826
 2701TP3     H219923   4.137   0.397   9.120 -0.5296  0.5363  0.9732
 2702TP3      O19924   4.837   1.501   9.658  0.0502  1.0136  0.2005
 2702TP3     H119925   4.892   1.468   9.587  1.8579  1.6579  1.2333
 2702TP3     H219926   4.849   1.437   9.729 -1.0595  0.8286  0.2429
 2703TP3      O19927   0.090   1.026   9.763 -0.8585  0.4738 -0.5616
 2703TP3     H119928   0.133   1.038   9.679 -1.7912 -1.2651 -1.3393
 2703TP3     H219929   0.082   0.931   9.773  1.4108  0.4479  2.6584
 2704TP3      O19930   1.925   0.372   9.486  0.1710  0.0010 -0.1270
 2704TP3     H119931   1.876   0.453   9.470  0.5511  0.5004  1.0620
 2704TP3     H219932   2.017   0.399   9.479  0.2918 -0.4687 -0.3416
 2705TP3      O19933   3.975   3.116   8.524  0.0983  0.5938 -0.1733
 2705TP3     H119934   3.982   3.059   8.601  2.6549  2.8607  1.4691
 2705TP3     H219935   4.063   3.115   8.486 -0.5736  1.1809 -1.8089
 2706TP3      O19936   5.080   0.701   0.274  0.1910 -0.4964  0.2334
 2706TP3     H119937   5.091   0.762   0.201  2.1654 -0.4871  0.4816
 2706TP3     H219938   5.110   0.750   0.351 -0.7589 -0.8927  0.8697
 2707TP3      O19939   1.453   4.268   1.619 -0.7179  0.3304  0.0820
 2707TP3     H119940   1.464   4.350   1.572  3.1496 -1.1199 -2.0467
 2707TP3     H219941   1.511   4.275   1.695 -2.0615  0.3105  1.1502
 2708TP3      O19942   3.352   2.288   1.732  0.4548  0.0316  1.4622
 2708TP3     H119943   3.300   2.235   1.794  1.1002 -0.2077  1.8062
 2708TP3     H219944   3.301   2.368   1.720 -0.4890 -0.6189  1.0149
 2709TP3      O19945   2.578   0.519   7.783 -0.6661  0.2161  0.4388
 2709TP3     H119946   2.593   0.499   7.875 -1.1243 -0.9210  0.2729
 2709TP3     H219947   2.666   0.520   7.744 -0.4635  0.7952  0.8925
 2710TP3      O19948   4.862   2.758   6.724  0.2782 -0.5860 -0.9646
 2710TP3     H119949   4.812   2.679   6.744 -0.2520 -0.1749 -0.6483
 2710TP3     H219950   4.796   2.827   6.719  0.9627  0.3164  1.2878
 2711TP3      O19951   0.284   1.751   3.604  0.3537 -0.4390  0.8706
 2711TP3     H119952   0.364   1.699   3.598  0.7333  0.2775 -1.9070
 2711TP3     H219953   0.315   1.842   3.600 -0.5451 -0.1291  0.8318
 2712TP3      O19954   3.129   0.067   7.351 -0.3335 -0.4164  0.3834
 2712TP3     H119955   3.133  -0.005   7.414 -2.5970 -2.2590 -1.4274
 2712TP3     H219956   3.145   0.026   7.266  0.4444  1.6179 -0.5300
 2713TP3      O19957   5.047   3.939   0.565 -0.1355  0.1754  0.4446
 2713TP3     H119958   5.123   3.931   0.624 -0.3959  2.6080  1.2364
 2713TP3     H219959   5.085   3.958   0.479  0.1946 -0.4049  0.4606
 2714TP3      O19960   4.717   3.062  10.034  0.1722  0.3462 -0.5661
 2714TP3     H119961   4.691   2.971  10.052 -3.8329  1.2941 -0.5577
 2714TP3     H219962   4.705   3.071   9.939  1.1514  0.7630 -0.6616
 2715TP3      O19963   4.013   2.265   9.360 -0.6947  0.4700  0.2693
 2715TP3     H119964   4.023   2.216   9.278  4.1954  1.6209 -0.0855
 2715TP3     H219965   3.968   2.346   9.334 -0.5702  0.1725 -0.9427
 2716TP3      O19966   1.074   3.018   8.492  0.1906 -0.0752 -0.1939
 2716TP3     H119967   1.092   3.083   8.560  0.9753  0.2261 -0.6826
 2716TP3     H219968   1.159   2.978   8.473  0.3986  1.2994 -2.4887
 2717TP3      O19969   4.826   0.914   8.794 -0.2347 -0.0504  0.3301
 2717TP3     H119970   4.903   0.879   8.750  0.0263  0.0834  0.6755
 2717TP3     H219971   4.794   0.842   8.848 -0.3482 -0.1028  0.1939
 2718TP3      O19972   3.812   4.776   6.959  0.3294  0.1385  0.7048
 2718TP3     H119973   3.778   4.716   7.025 -0.6691  0.8786  0.8966
 2718TP3     H219974   3.733   4.807   6.913  0.7751  1.5880  0.8723
 2719TP3      O19975   2.786   3.316   0.882  0.2278  0.6150  0.4316
 2719TP3     H119976   2.711   3.258   0.898  0.7462 -0.5686 -1.1714
 2719TP3     H219977   2.862   3.263   0.906  0.6182  1.9688  2.5110
 2720TP3      O19978   3.343   3.875   8.536  0.1290  0.1564 -0.0900
 2720TP3     H119979   3.372   3.916   8.454  1.2251 -0.4959 -0.0379
 2720TP3     H219980   3.248   3.884   8.534  0.1942  0.8307 -1.0731
 2721TP3      O19981   0.183   2.004   8.788  0.1580  0.3079 -0.0326
 2721TP3     H119982   0.206   2.026   8.697  1.3002 -0.5875  0.0236
 2721TP3     H219983   0.180   2.089   8.832 -1.6603  0.8957 -1.1422
 2722TP3      O19984   2.195   1.827   2.471  0.3515 -0.4529 -0.8210
 2722TP3     H119985   2.105   1.844   2.499  0.8727 -1.6345  1.8875
 2722TP3     H219986   2.190   1.744   2.424 -0.0034 -0.3871 -0.9038
 2723TP3      O19987   3.427   3.965   2.826 -0.1316 -0.3408 -1.1147
 2723TP3     H119988   3.454   3.943   2.915  0.7623 -0.1591 -1.3339
 2723TP3     H219989   3.401   3.881   2.788  1.5942 -0.7898 -1.3820
 2724TP3      O19990   0.177   3.971   0.625  0.5569 -0.1195  0.4340
 2724TP3     H119991   0.121   3.902   0.589  0.7142  0.0412 -0.1229
 2724TP3     H219992   0.180   4.038   0.557  1.4576 -0.1409  0.4367
 2725TP3      O19993   2.203   5.080  10.012 -0.0572 -0.0647 -0.4291
 2725TP3     H119994   2.152   5.069   9.932 -1.1595 -0.5435  0.3071
 2725TP3     H219995   2.143   5.123  10.073  0.6467 -0.0264  0.2548
 2726TP3      O19996   0.433   2.012  10.016  0.2075  0.1065 -0.2466
 2726TP3     H119997   0.440   2.097  10.058  0.4604  0.6442 -1.3283
 2726TP3     H219998   0.442   2.031   9.922 -1.9100 -0.8360 -0.7030
 2727TP3      O19999   0.913   0.806   8.341 -0.0199  0.0232  0.3514
 2727TP3     H120000   0.856   0.867   8.387  0.8760  0.3950  0.9860
 2727TP3     H220001   0.896   0.824   8.248 -2.2879 -1.1574  0.4739
 2728TP3      O20002   1.696   0.560   8.302 -0.3811 -0.7551  0.2842
 2728TP3     H120003   1.673   0.519   8.386  3.5259 -1.1761  1.3703
 2728TP3     H220004   1.721   0.487   8.246  0.7004 -0.2852  0.1190
 2729TP3      O20005   3.010   5.203   1.087  0.3545  0.4306  0.2387
 2729TP3     H120006   2.980   5.252   1.010  0.4609  0.2153  0.0581
 2729TP3     H220007   3.106   5.205   1.080  0.3530 -0.3227 -0.1021
 2730TP3      O20008   4.190   0.469   7.127  0.1116  0.0232 -0.2786
 2730TP3     H120009   4.098   0.478   7.150 -0.2983  0.4242 -1.9450
 2730TP3     H220010   4.199   0.514   7.043  1.3987 -1.6912 -1.1484
 2731TP3      O20011   4.295   3.228   1.029  0.7220  0.4025 -0.2369
 2731TP3     H120012   4.330   3.143   1.056 -1.1414 -0.4000 -0.2224
 2731TP3     H220013   4.226   3.208   0.966  1.1702  1.9906 -1.3099
 2732TP3      O20014   2.008   5.223   0.756 -0.3457  0.2408 -0.0403
 2732TP3     H120015   1.919   5.188   0.747 -0.2699  0.5155 -2.9980
 2732TP3     H220016   1.996   5.317   0.765 -0.3765  0.3510 -1.1055
 2733TP3      O20017   3.038   3.452   7.882 -0.5709  0.4143  0.3442
 2733TP3     H120018   3.014   3.372   7.835 -0.4247 -0.0165  0.9951
 2733TP3     H220019   3.077   3.508   7.814 -0.7558 -0.0281 -0.1351
 2734TP3      O20020   4.823   2.071   1.540 -0.0485  0.8826 -0.2933
 2734TP3     H120021   4.787   2.020   1.466 -1.0655  1.1672 -0.0164
 2734TP3     H220022   4.866   2.006   1.595 -1.7542  0.2029  0.3095
 2735TP3      O20023   0.273   1.788   2.445  0.1573 -0.2277 -0.0810
 2735TP3     H120024   0.296   1.842   2.520  1.3772 -0.0290 -0.5826
 2735TP3     H220025   0.200   1.834   2.404  2.1596  1.9909 -1.4135
 2736TP3      O20026   0.481   0.569   9.458 -0.0444  0.0833  0.1441
 2736TP3     H120027   0.427   0.502   9.417  2.6573 -1.9001 -0.3908
 2736TP3     H220028   0.452   0.570   9.549 -0.6531 -1.2291 -0.0142
 2737TP3      O20029   1.796   5.067   9.937  0.3944 -0.1367  0.1277
 2737TP3     H120030   1.874   5.070   9.881  1.8932  0.3033  2.1158
 2737TP3     H220031   1.729   5.025   9.883  1.1803  1.8657 -2.5916
 2738TP3      O20032   4.203   1.591   8.320 -0.2027  0.0910  0.3910
 2738TP3     H120033   4.116   1.556   8.303  0.1101 -0.5971  0.1782
 2738TP3     H220034   4.236   1.614   8.233 -0.7157  1.7024  0.5892
 2739TP3      O20035   0.450   0.042   2.801 -0.4496 -0.4089  0.5236
 2739TP3     H120036   0.431   0.029   2.708  0.6848 -0.0994  0.2270
 2739TP3     H220037   0.377   0.094   2.834 -0.2151  0.6218 -0.5138
 2740TP3      O20038   0.075   2.491   7.931  0.0977  0.2369 -0.2616
 2740TP3     H120039   0.115   2.549   7.995  1.1400 -0.3926 -0.3240
 2740TP3     H220040  -0.019   2.500   7.946  0.2865  1.0632  0.4850
 2741TP3      O20041   3.876   1.104   2.888  0.0467 -0.1210 -0.3870
 2741TP3     H120042   3.912   1.125   2.801  0.8086  0.9720  0.1714
 2741TP3     H220043   3.832   1.185   2.915 -0.3242 -0.5134  0.1831
 2742TP3      O20044   0.983   2.220   8.825 -0.3498  0.1080 -0.1437
 2742TP3     H120045   1.073   2.223   8.793 -0.2454 -1.9780 -0.2112
 2742TP3     H220046   0.930   2.252   8.752  0.0242 -2.8703 -1.9060
 2743TP3      O20047   4.496   3.620   2.330 -0.4635 -0.0213  0.5372
 2743TP3     H120048   4.463   3.691   2.275 -1.8316  0.0558  1.4287
 2743TP3     H220049   4.589   3.615   2.308 -0.9019  0.1602 -1.5908
 2744TP3      O20050   3.689   0.370   9.338 -0.0205  0.3023  0.0618
 2744TP3     H120051   3.658   0.428   9.268 -0.4803 -1.3617 -1.1664
 2744TP3     H220052   3.626   0.383   9.409 -0.0150  1.4076 -0.1082
 2745TP3      O20053   3.408   3.330   0.194 -0.0598 -0.0106  0.4949
 2745TP3     H120054   3.489   3.314   0.241 -0.0615 -0.1636  0.4479
 2745TP3     H220055   3.353   3.379   0.255  0.6350  1.4572 -0.0062
 2746TP3      O20056   1.766   3.876   2.719 -0.0733  0.1276  0.6942
 2746TP3     H120057   1.781   3.797   2.668 -1.9196 -0.6863  1.2982
 2746TP3     H220058   1.806   3.857   2.804  1.6274  0.8521  0.0757
 2747TP3      O20059   1.458   1.406   1.613  0.2182 -0.3905 -0.0126
 2747TP3     H120060   1.521   1.419   1.541  1.6335 -1.6470  0.9410
 2747TP3     H220061   1.397   1.341   1.579 -0.2856  0.4343 -0.7496
 2748TP3      O20062   1.445   1.876   2.089 -0.1973 -0.1229 -0.6571
 2748TP3     H120063   1.374   1.935   2.114 -0.4969  0.1068 -1.9721
 2748TP3     H220064   1.429   1.856   1.997  0.6205 -1.2502 -0.5807
 2749TP3      O20065   3.399   0.127   8.881 -0.1506 -0.4971  0.1823
 2749TP3     H120066   3.426   0.131   8.972 -1.6184 -0.7560  0.6692
 2749TP3     H220067   3.456   0.061   8.842  0.6192 -0.2475  0.8591
 2750TP3      O20068   0.512   2.972   2.426 -0.2007 -0.0450  0.1457
 2750TP3     H120069   0.479   2.949   2.340  0.3714  0.7222 -0.2924
 2750TP3     H220070   0.437   2.959   2.485 -0.3925 -1.2639 -0.3344
 2751TP3      O20071   4.196   1.316   1.343 -0.1660  0.6320  0.1117
 2751TP3     H120072   4.188   1.401   1.387  1.3368  0.6819  0.3465
 2751TP3     H220073   4.127   1.262   1.381  1.1758  0.6107  2.7107
 2752TP3      O20074   0.729   0.951   0.381 -0.0827 -0.2097 -0.2061
 2752TP3     H120075   0.799   0.982   0.323  0.4108  0.0419  0.5014
 2752TP3     H220076   0.735   0.856   0.377 -0.3843 -0.1983 -0.9570
 2753TP3      O20077   2.873   3.157   3.201  0.1345  0.0730  0.5982
 2753TP3     H120078   2.834   3.238   3.169 -2.7090 -1.2210  0.4819
 2753TP3     H220079   2.929   3.127   3.129 -0.3600  0.9068 -0.1542
 2754TP3      O20080   0.974   1.816   0.884  0.6425 -0.0770  0.3296
 2754TP3     H120081   0.909   1.754   0.917  2.0278 -2.0768 -0.4381
 2754TP3     H220082   1.058   1.769   0.893  1.7350  1.6189 -0.4915
 2755TP3      O20083   0.821   2.826   8.941  0.6959 -0.0266 -0.2731
 2755TP3     H120084   0.769   2.906   8.936  1.0589  0.1852 -0.8076
 2755TP3     H220085   0.883   2.841   9.012 -0.1679 -0.4070  0.5808
 2756TP3      O20086   0.519   3.192   9.996  0.3992  0.1186  0.2173
 2756TP3     H120087   0.456   3.263  10.008  0.1727  0.0936 -0.7359
 2756TP3     H220088   0.485   3.121  10.051  0.3627  0.5687  0.7898
 2757TP3      O20089   2.422   5.028   9.862 -0.1623 -0.3120  0.0492
 2757TP3     H120090   2.469   4.947   9.882  2.2639  1.0127  0.1271
 2757TP3     H220091   2.345   5.027   9.918 -0.2839 -2.6140 -0.0871
 2758TP3      O20092   4.499   3.215   0.002 -0.4225 -0.4516  0.1844
 2758TP3     H120093   4.505   3.289  -0.058 -1.9865 -0.3476  0.1130
 2758TP3     H220094   4.583   3.171  -0.006  0.5086  1.2544  0.1587
 2759TP3      O20095   0.462   1.072   8.701 -0.5151  0.2771  0.0818
 2759TP3     H120096   0.463   1.040   8.791  1.4074 -2.2828 -0.7065
 2759TP3     H220097   0.379   1.040   8.665  0.1295 -1.6093  0.1240
 2760TP3      O20098   3.140   2.497   0.753 -0.1655  0.2751  0.1054
 2760TP3     H120099   3.113   2.563   0.817 -3.2702  0.8480 -1.6249
 2760TP3     H220100   3.104   2.527   0.670 -0.2498 -2.7375 -1.0862
 2761TP3      O20101   1.655   3.909   2.271  0.2780 -0.1460  0.5461
 2761TP3     H120102   1.730   3.894   2.328  0.1705 -0.2228  0.6664
 2761TP3     H220103   1.628   3.999   2.290  0.2697 -0.1566  0.5838
 2762TP3      O20104   1.566   4.673   2.159 -0.6752  0.2435 -0.2694
 2762TP3     H120105   1.613   4.701   2.081  0.8024 -0.7117  0.2379
 2762TP3     H220106   1.631   4.676   2.229 -1.3313 -1.2681  0.4456
 2763TP3      O20107   1.809   4.365   2.704  0.2745  0.0831  0.6667
 2763TP3     H120108   1.793   4.348   2.611 -1.2295 -0.8337  1.0705
 2763TP3     H220109   1.876   4.301   2.729  0.5709  0.2312  0.2659
 2764TP3      O20110   4.494   3.424   0.400 -0.5725 -1.2899 -0.2888
 2764TP3     H120111   4.431   3.467   0.457 -0.3126  1.2121 -1.7356
 2764TP3     H220112   4.442   3.359   0.352 -1.6807 -0.5444 -0.1451
 2765TP3      O20113   2.443   3.846   9.625 -0.0890 -0.0365 -0.0790
 2765TP3     H120114   2.431   3.887   9.711  2.7941  0.3766  0.2568
 2765TP3     H220115   2.461   3.919   9.566 -0.2721 -0.4518 -0.6564
 2766TP3      O20116   5.046   2.482   7.663  0.1686  0.0885  0.0176
 2766TP3     H120117   4.973   2.543   7.648  1.3616  1.0481 -2.3502
 2766TP3     H220118   5.048   2.471   7.758 -1.5635  1.9093  0.3406
 2767TP3      O20119   0.843   4.122   3.012  0.3583 -0.0391  0.2348
 2767TP3     H120120   0.769   4.145   3.070 -1.0508 -0.0750 -1.4625
 2767TP3     H220121   0.851   4.197   2.953  0.7177 -0.6579 -0.5206
 2768TP3      O20122   2.361   1.559   7.615 -0.2078 -0.1139  0.1819
 2768TP3     H120123   2.435   1.514   7.575 -0.0699 -0.4841  0.8424
 2768TP3     H220124   2.330   1.620   7.548  0.3369 -0.3662 -0.2973
 2769TP3      O20125   4.728   1.038   0.444 -0.0553 -0.0042  0.1638
 2769TP3     H120126   4.643   1.077   0.423 -0.7283 -1.8567 -0.8101
 2769TP3     H220127   4.750   0.986   0.367  2.3937  1.0613  0.0542
 2770TP3      O20128   1.979   3.510   2.017 -0.3070 -0.1868  0.4626
 2770TP3     H120129   2.072   3.487   2.028 -0.5430 -1.3528  0.2020
 2770TP3     H220130   1.969   3.521   1.922 -0.3657  0.2772  0.5220
 2771TP3      O20131   3.177   0.001   3.122 -0.2147  0.3997 -0.2259
 2771TP3     H120132   3.140   0.056   3.052  0.9054  0.4283 -0.8225
 2771TP3     H220133   3.271   0.018   3.119  0.1758 -1.4919 -0.3969
 2772TP3      O20134   1.815   2.321   8.935  0.2839  0.3762 -0.0198
 2772TP3     H120135   1.809   2.401   8.883 -0.9744  0.5007  0.2705
 2772TP3     H220136   1.769   2.343   9.016 -0.1525 -0.6645  0.0244
 2773TP3      O20137   3.296   0.315   2.465  0.1412 -0.7772  0.0679
 2773TP3     H120138   3.220   0.264   2.438  0.5190 -0.4494 -1.7842
 2773TP3     H220139   3.366   0.286   2.407  0.0052  2.8758 -2.2508
 2774TP3      O20140   1.902   2.980   2.435  0.1768  0.2429 -0.1034
 2774TP3     H120141   1.866   3.068   2.447  1.0063  0.3538  1.8059
 2774TP3     H220142   1.891   2.963   2.341 -2.5508  1.2334 -0.0656
 2775TP3      O20143   2.039   2.604   0.361 -0.0774  0.2558 -0.2867
 2775TP3     H120144   1.971   2.558   0.312 -1.8066  0.7289  1.5269
 2775TP3     H220145   2.104   2.536   0.380 -0.8178 -0.6026 -0.7151
 2776TP3      O20146   3.689   4.481   0.111  0.8030 -0.1183  0.2847
 2776TP3     H120147   3.683   4.543   0.183  0.0199  0.8548 -0.6044
 2776TP3     H220148   3.614   4.500   0.056  0.9115 -1.4276 -0.3510
 2777TP3      O20149   3.242   1.733  10.067 -0.4115 -0.2543 -0.5513
 2777TP3     H120150   3.185   1.766   9.997 -1.3597 -1.3082 -0.3013
 2777TP3     H220151   3.188   1.738  10.146  0.2488 -0.1899 -0.0922
 2778TP3      O20152   2.339   1.226   1.946  0.1952 -0.2487  0.3543
 2778TP3     H120153   2.416   1.234   1.889  1.4708  0.8636  2.1414
 2778TP3     H220154   2.265   1.228   1.885  1.5288 -0.7198 -1.3802
 2779TP3      O20155   3.724   1.834   0.457 -0.3408  0.6072  0.3774
 2779TP3     H120156   3.809   1.797   0.482 -0.2406  1.6033  1.6441
 2779TP3     H220157   3.745   1.922   0.426 -0.9131  0.9062  0.8177
 2780TP3      O20158   3.181   4.152   2.318 -0.3547  0.1551 -0.3714
 2780TP3     H120159   3.236   4.229   2.301  1.0123 -0.8440 -0.6810
 2780TP3     H220160   3.243   4.086   2.350 -1.4708 -0.8811 -0.3029
 2781TP3      O20161   3.882   0.482   2.461  0.5686  0.1161 -0.4666
 2781TP3     H120162   3.904   0.453   2.550  0.8235  0.2197 -0.4929
 2781TP3     H220163   3.865   0.401   2.413 -0.6118  0.1130 -0.0601
 2782TP3      O20164   1.342   4.822  10.072  0.0899  0.0146 -0.0872
 2782TP3     H120165   1.320   4.896  10.016 -0.4533 -1.0413 -1.3398
 2782TP3     H220166   1.436   4.809  10.059  0.3860  1.0449  0.8805
 2783TP3      O20167   4.876   4.459   9.965  0.5091 -0.0162 -0.3507
 2783TP3     H120168   4.934   4.389   9.936  3.6206  2.3575 -0.3725
 2783TP3     H220169   4.870   4.518   9.890 -0.9157  0.4933  0.1256
 2784TP3      O20170   0.783   4.182   8.239  0.1436  0.3807 -0.8974
 2784TP3     H120171   0.817   4.201   8.327 -0.6955 -0.1058 -0.4642
 2784TP3     H220172   0.744   4.265   8.210 -0.3953  0.2930 -0.4357
 2785TP3      O20173   1.472   2.180   0.532 -0.4575 -0.2238  0.3144
 2785TP3     H120174   1.482   2.270   0.562  3.1184 -0.9814  1.9938
 2785TP3     H220175   1.389   2.151   0.569 -0.4752  1.6364  1.8694
 2786TP3      O20176   5.095   0.646  10.088 -0.1878 -0.0179 -0.6326
 2786TP3     H120177   5.000   0.654  10.080 -0.1449  0.0485 -1.0778
 2786TP3     H220178   5.118   0.570  10.034  0.0774  0.3080 -0.9843
 2787TP3      O20179   4.647   2.465   1.716 -0.3493 -0.2981 -0.0472
 2787TP3     H120180   4.637   2.458   1.621  1.5036 -2.6764 -0.1649
 2787TP3     H220181   4.663   2.558   1.731  1.0510 -0.0795 -2.3213
 2788TP3      O20182   1.531   3.366   0.211  0.3535  0.3087  0.3494
 2788TP3     H120183   1.445   3.409   0.211  0.7261  1.0799 -0.1083
 2788TP3     H220184   1.581   3.413   0.278  0.2881 -0.4292  0.9274
 2789TP3      O20185   0.525   3.621   9.087 -0.1605  0.6038 -0.2671
 2789TP3     H120186   0.588   3.693   9.076 -1.1264  1.1537 -3.0980
 2789TP3     H220187   0.553   3.556   9.022 -0.7717 -0.4938  0.5428
 2790TP3      O20188   4.477   4.715   8.996  0.2005  0.1458 -0.0687
 2790TP3     H120189   4.550   4.735   8.938  1.6812 -1.2788  1.2127
 2790TP3     H220190   4.436   4.800   9.012  2.1114  1.1517 -0.1469
 2791TP3      O20191   4.001   2.409   7.818  0.3028  0.1858 -0.0648
 2791TP3     H120192   4.005   2.453   7.733  0.9441  0.4846  0.1105
 2791TP3     H220193   3.975   2.319   7.799  3.4796 -0.6636 -0.9288
 2792TP3      O20194   3.082   1.925   9.441 -0.2064 -0.0869 -0.3341
 2792TP3     H120195   3.152   1.983   9.471 -1.0297  0.7107  0.0792
 2792TP3     H220196   3.127   1.858   9.389  0.8304  0.5597 -0.2916
 2793TP3      O20197   0.965   0.661   2.951 -0.0163 -0.2609 -0.4037
 2793TP3     H120198   1.006   0.607   3.019  0.8235  0.2092 -0.5247
 2793TP3     H220199   0.973   0.750   2.984 -0.5637 -0.1288 -0.6333
 2794TP3      O20200   2.971   0.590   0.494 -0.1372  0.2043 -0.2652
 2794TP3     H120201   3.063   0.571   0.508  0.9806  3.7213 -1.7447
 2794TP3     H220202   2.958   0.584   0.400 -1.7162 -1.0518 -0.0270
 2795TP3      O20203   2.361   1.402   2.569  0.3435 -0.8623 -0.6557
 2795TP3     H120204   2.325   1.472   2.514  3.1600  0.6914 -0.7007
 2795TP3     H220205   2.362   1.325   2.512 -0.0924 -0.2154 -1.5735
 2796TP3      O20206   3.597   0.742   9.558  0.2127 -0.1150 -0.0296
 2796TP3     H120207   3.595   0.830   9.521 -0.7542 -0.2083 -0.2166
 2796TP3     H220208   3.546   0.689   9.497 -0.6347 -0.4606  0.9398
 2797TP3      O20209   3.238   4.407   8.933 -0.0043 -0.2897  0.3378
 2797TP3     H120210   3.186   4.429   9.010  2.2641  2.6333  1.2463
 2797TP3     H220211   3.204   4.464   8.864 -0.7136 -1.4451 -0.2876
 2798TP3      O20212   4.260   3.010   0.573  0.1760  0.0405 -0.1780
 2798TP3     H120213   4.317   3.033   0.646 -0.4474  0.6508  0.1295
 2798TP3     H220214   4.207   3.088   0.558 -1.7581 -1.0174  0.6668
 2799TP3      O20215   3.678   2.009   8.568 -0.2147 -0.6942 -0.0737
 2799TP3     H120216   3.633   1.953   8.632  0.0904 -0.9783 -0.1032
 2799TP3     H220217   3.629   2.091   8.569 -2.4004 -1.8698 -2.0630
 2800TP3      O20218   4.859   0.345   2.237 -0.0358  0.0477 -0.0335
 2800TP3     H120219   4.924   0.345   2.166  0.9064  2.6712  0.7284
 2800TP3     H220220   4.910   0.324   2.315  0.4678  3.9115  0.8749
 2801TP3      O20221   3.452   3.258   9.287  0.4162 -0.5769 -0.0768
 2801TP3     H120222   3.405   3.177   9.307 -0.6436  0.2824  1.0115
 2801TP3     H220223   3.544   3.235   9.295  0.1168 -1.5713  0.6728
 2802TP3      O20224   1.694   1.902   1.961  0.3074  0.2178 -0.1546
 2802TP3     H120225   1.624   1.901   2.027  1.2891 -1.5145  0.9460
 2802TP3     H220226   1.659   1.954   1.889 -2.1188 -0.5894  0.3518
 2803TP3      O20227   2.445   1.349   9.594 -0.2463 -0.4190 -0.0057
 2803TP3     H120228   2.458   1.302   9.676 -0.9803  0.3025  0.5349
 2803TP3     H220229   2.421   1.438   9.620 -1.6910 -0.4907 -0.9797
 2804TP3      O20230   1.852   1.555   9.260 -0.3555 -0.1625  0.2254
 2804TP3     H120231   1.834   1.527   9.350 -1.9863 -0.2541 -0.1109
 2804TP3     H220232   1.779   1.522   9.209  0.8550 -0.6347 -1.2756
 2805TP3      O20233   1.651   0.466   9.915  0.3099 -0.1990  0.0395
 2805TP3     H120234   1.611   0.531   9.972  0.1681 -0.5753  0.3718
 2805TP3     H220235   1.677   0.515   9.837  0.9538  0.4041  0.6339
 2806TP3      O20236   3.791   4.131   7.884 -0.1430  0.7152  0.3477
 2806TP3     H120237   3.886   4.118   7.879 -0.1807  0.7449 -0.8600
 2806TP3     H220238   3.777   4.218   7.848 -0.9019 -0.7202 -3.2702
 2807TP3      O20239   3.638   4.844   1.529 -0.0940 -0.1821 -0.6658
 2807TP3     H120240   3.567   4.797   1.487 -2.7226  0.7679  2.3119
 2807TP3     H220241   3.621   4.936   1.508 -1.3635  0.2946  2.0178
 2808TP3      O20242   0.053   3.734   1.389 -0.1277 -0.1835 -0.7913
 2808TP3     H120243   0.048   3.823   1.423  1.1390 -0.7238  0.9085
 2808TP3     H220244  -0.035   3.717   1.356 -0.2352  1.9028 -1.7648
 2809TP3      O20245   2.390   1.013   8.223 -0.0568 -0.4252  0.1825
 2809TP3     H120246   2.438   0.934   8.199  0.0857 -0.0732 -0.7415
 2809TP3     H220247   2.310   0.982   8.265 -0.3555 -1.0837 -0.8403
 2810TP3      O20248   3.715   3.302   3.119 -0.2560 -0.3465  0.4404
 2810TP3     H120249   3.685   3.257   3.198 -1.3202 -0.2421  0.1094
 2810TP3     H220250   3.644   3.292   3.056  0.2542  0.2259 -0.2579
 2811TP3      O20251   0.589   2.154   8.230  0.2613 -0.6036  0.0429
 2811TP3     H120252   0.643   2.123   8.302  0.7652  0.0042 -0.0680
 2811TP3     H220253   0.603   2.249   8.229 -1.0162 -0.3952  0.1887
 2812TP3      O20254   1.122   1.349   7.560 -0.4762  0.3088 -0.5073
 2812TP3     H120255   1.175   1.270   7.551  0.8471  1.1257 -0.1454
 2812TP3     H220256   1.075   1.337   7.642  0.8408  0.5015  0.3149
 2813TP3      O20257   0.475   2.371   0.033  0.3290  0.3455  0.4819
 2813TP3     H120258   0.565   2.346   0.058  0.3489 -1.3966 -1.1219
 2813TP3     H220259   0.475   2.365  -0.062 -2.1121 -2.1120  0.5297
 2814TP3      O20260   1.583   0.100   7.182 -0.1283 -0.0943  0.3027
 2814TP3     H120261   1.575   0.105   7.087  1.5227  1.4845  0.1819
 2814TP3     H220262   1.649   0.032   7.197 -0.2402 -0.2016  0.3083
 2815TP3      O20263   3.274   0.885   8.559 -0.1926 -0.3591  0.6065
 2815TP3     H120264   3.267   0.795   8.528  0.8368 -0.3946  0.4444
 2815TP3     H220265   3.257   0.880   8.653 -0.3240 -0.6931  0.5645
 2816TP3      O20266   3.470   1.780   1.262 -0.1748 -0.1435  0.5182
 2816TP3     H120267   3.516   1.698   1.281 -0.0975 -0.0498  0.7305
 2816TP3     H220268   3.377   1.758   1.271 -0.1047  0.2928  2.5698
 2817TP3      O20269   2.909   2.896   1.110 -0.2935  0.2662 -0.6303
 2817TP3     H120270   2.834   2.841   1.087 -1.1319  1.1218 -0.0132
 2817TP3     H220271   2.985   2.837   1.104 -1.0742 -0.7562 -0.7199
 2818TP3      O20272   3.675   1.359   0.937  0.2937 -0.5034 -0.8351
 2818TP3     H120273   3.599   1.399   0.895  0.5264 -0.6497 -1.4021
 2818TP3     H220274   3.731   1.332   0.864  0.8172 -0.5362 -0.4237
 2819TP3      O20275   3.143   3.938   9.001 -1.2671  0.0302 -0.2094
 2819TP3     H120276   3.093   4.009   8.961 -0.6272  0.4189 -0.3448
 2819TP3     H220277   3.184   3.893   8.927 -0.5312  0.4059 -0.0413
 2820TP3      O20278   1.275   2.659   0.632  0.1510  0.4292 -0.2799
 2820TP3     H120279   1.268   2.725   0.563 -0.9836 -1.7061 -2.3433
 2820TP3     H220280   1.205   2.596   0.613  0.8933 -1.1629  1.8181
 2821TP3      O20281   3.939   3.001   7.192  0.5166 -0.3224  0.1615
 2821TP3     H120282   3.924   2.952   7.111  0.6570 -1.2321  0.6750
 2821TP3     H220283   3.919   2.939   7.262 -0.6634  0.7658  0.8400
 2822TP3      O20284   2.158   4.733  10.038 -0.7489  0.4867 -0.0945
 2822TP3     H120285   2.130   4.665   9.977 -0.6312 -0.9095  1.3499
 2822TP3     H220286   2.077   4.778  10.062 -0.6440  1.9371 -2.2343
 2823TP3      O20287   2.302   0.453   9.627 -0.0008  0.0462 -0.6023
 2823TP3     H120288   2.359   0.508   9.680  1.2226 -0.1145 -1.7087
 2823TP3     H220289   2.304   0.368   9.670  1.6538 -0.3153 -1.3056
 2824TP3      O20290   4.672   3.098   8.144  0.9695  0.3105 -0.2570
 2824TP3     H120291   4.585   3.078   8.111  0.8062  0.9442 -0.2245
 2824TP3     H220292   4.658   3.158   8.217  1.3564 -0.8090  0.7484
 2825TP3      O20293   3.024   4.704   1.136  0.1617 -0.6557  0.1452
 2825TP3     H120294   2.968   4.638   1.095 -1.4986  1.1908 -0.7309
 2825TP3     H220295   3.011   4.691   1.230  1.1386 -2.5679  0.0565
 2826TP3      O20296   3.809   4.223   0.002  0.8764  0.2179 -0.5034
 2826TP3     H120297   3.771   4.280  -0.064 -0.2159  0.3047  0.1726
 2826TP3     H220298   3.804   4.275   0.083 -0.2702 -0.8647  0.1484
 2827TP3      O20299   1.342   3.642  10.072 -0.3728 -0.4431 -0.1732
 2827TP3     H120300   1.371   3.575  10.010 -3.0789 -1.8314 -0.0764
 2827TP3     H220301   1.318   3.717  10.017 -1.6190 -1.2317 -0.7381
 2828TP3      O20302   1.842   2.109   1.316 -0.1194 -0.2648  0.6605
 2828TP3     H120303   1.934   2.100   1.343  0.3060 -1.9807 -1.1032
 2828TP3     H220304   1.842   2.184   1.257  0.0079  0.1115  1.1283
 2829TP3      O20305   3.921   4.215   1.837 -0.0585  0.2512 -0.0745
 2829TP3     H120306   3.994   4.163   1.869  0.4559  0.5615 -0.7128
 2829TP3     H220307   3.865   4.228   1.914  0.0454 -0.8262  0.1922
 2830TP3      O20308   3.791   4.641   8.207  0.1938  0.0566  0.6105
 2830TP3     H120309   3.718   4.655   8.266 -1.5164  0.4069 -1.4826
 2830TP3     H220310   3.783   4.711   8.141  1.4765 -0.8157 -0.5376
 2831TP3      O20311   2.196   0.599   0.614 -0.4226 -0.4125  0.0391
 2831TP3     H120312   2.109   0.586   0.576 -0.1879  0.9676 -1.0766
 2831TP3     H220313   2.254   0.545   0.561 -0.1655  1.1515 -1.3661
 2832TP3      O20314   4.995   0.190   0.654 -0.1868 -0.2456 -0.2520
 2832TP3     H120315   4.926   0.257   0.656 -1.2920 -1.3451  1.4827
 2832TP3     H220316   4.970   0.132   0.583  1.1112  1.4309 -2.1815
 2833TP3      O20317   3.963   4.270   2.329  0.2211 -0.1484 -0.2619
 2833TP3     H120318   3.875   4.294   2.360  0.7301  0.3564  0.8375
 2833TP3     H220319   3.949   4.242   2.238 -1.0146  0.3136 -0.2397
 2834TP3      O20320   2.826   1.778   9.926 -0.2184  0.2721  0.1733
 2834TP3     H120321   2.901   1.836   9.918  0.4069 -0.0500  2.9015
 2834TP3     H220322   2.826   1.728   9.844  1.6679  1.2566 -0.4764
 2835TP3      O20323   4.504   5.148   1.435  0.1886  0.1679 -0.2976
 2835TP3     H120324   4.562   5.111   1.369 -1.2027 -0.1433 -1.3980
 2835TP3     H220325   4.483   5.075   1.493 -1.1671 -0.4225 -1.4547
 2836TP3      O20326   0.602   3.867   0.894  0.1300 -0.0090 -0.0273
 2836TP3     H120327   0.518   3.897   0.930  0.6060  0.3796  0.7982
 2836TP3     H220328   0.595   3.883   0.800  0.0017  1.8848  0.2675
 2837TP3      O20329   0.307   5.071   9.180 -0.0582  0.5478  0.4721
 2837TP3     H120330   0.400   5.074   9.159  0.0085  1.2596  0.7988
 2837TP3     H220331   0.266   5.130   9.117 -0.3242  0.0621  0.1853
 2838TP3      O20332   2.102   3.576   0.801  0.1055  0.2136  0.0370
 2838TP3     H120333   2.163   3.650   0.801  1.1649 -0.6096 -1.3083
 2838TP3     H220334   2.025   3.609   0.848  0.0415  2.5933 -1.5480
 2839TP3      O20335   3.983   2.052   0.365  0.3808  0.4374  0.5581
 2839TP3     H120336   4.033   2.005   0.431 -1.2686 -0.6451  1.1017
 2839TP3     H220337   3.968   2.139   0.404  1.5147  0.6673  0.5146
 2840TP3      O20338   1.122   4.451   2.783  0.3041 -0.5818  0.0978
 2840TP3     H120339   1.195   4.404   2.823 -0.1270 -1.4184 -0.0770
 2840TP3     H220340   1.147   4.456   2.690 -0.1498 -1.4655 -0.0874
 2841TP3      O20341   2.454   2.141   1.218 -0.1065 -0.1027  0.2545
 2841TP3     H120342   2.498   2.082   1.157 -0.1479  0.6446 -0.5131
 2841TP3     H220343   2.422   2.213   1.164  1.0924  1.3106  1.3547
 2842TP3      O20344   5.052   1.819   7.139  0.5041  0.0153  0.0122
 2842TP3     H120345   5.101   1.739   7.156  0.0253 -0.2781  0.0430
 2842TP3     H220346   5.014   1.806   7.052  0.2207  0.1003  0.1220
 2843TP3      O20347   4.362   0.751   7.141  0.3250  0.0468  0.0282
 2843TP3     H120348   4.425   0.784   7.077 -0.0353  1.4828  0.3701
 2843TP3     H220349   4.277   0.785   7.110 -0.3671 -2.0271 -0.5533
 2844TP3      O20350   3.867   4.595   2.896  0.2569 -0.1328 -0.4646
 2844TP3     H120351   3.933   4.636   2.952  0.9334 -1.4460 -0.2601
 2844TP3     H220352   3.797   4.569   2.955  1.0430 -1.6650 -0.1549
 2845TP3      O20353   4.874   0.529   0.815  0.2822  0.1840 -0.1411
 2845TP3     H120354   4.848   0.447   0.856  2.3390 -0.0834  0.7615
 2845TP3     H220355   4.852   0.596   0.880  1.1835  0.0220  0.3519
 2846TP3      O20356   3.408   0.201   0.808 -0.3063 -0.2818  0.8244
 2846TP3     H120357   3.503   0.213   0.797 -0.2589  1.9384  2.6508
 2846TP3     H220358   3.378   0.164   0.725  1.9597  0.3056 -0.3443
 2847TP3      O20359   3.243   2.168  10.094 -0.5165  0.2627  0.0913
 2847TP3     H120360   3.308   2.228  10.056  1.1529 -1.0043  0.8511
 2847TP3     H220361   3.205   2.123  10.019 -0.4857  0.9555 -0.3516
 2848TP3      O20362   3.503   1.824   3.455 -0.1905  0.2615 -0.0798
 2848TP3     H120363   3.515   1.729   3.460  0.0265  0.2963  0.0375
 2848TP3     H220364   3.587   1.861   3.482 -0.2572  0.4869 -0.1779
 2849TP3      O20365   1.555   4.387   0.185 -0.1157 -0.6416  0.3577
 2849TP3     H120366   1.587   4.368   0.273  0.0327  1.4937  0.8174
 2849TP3     H220367   1.464   4.413   0.197  0.5546  1.9973  0.2630
 2850TP3      O20368   4.796   4.152   1.345 -0.1441  0.0969  0.0644
 2850TP3     H120369   4.789   4.246   1.363  0.2224  0.3979 -1.3010
 2850TP3     H220370   4.708   4.118   1.363 -0.2937  0.7066  0.5170
 2851TP3      O20371   0.133   5.019   0.651  0.3336  0.5865 -0.1456
 2851TP3     H120372   0.078   5.011   0.729  1.7912 -0.2985  0.8326
 2851TP3     H220373   0.076   4.990   0.579 -0.2258 -1.2888  0.9575
 2852TP3      O20374   4.876   2.154   3.243  0.8356  0.3286 -0.6380
 2852TP3     H120375   4.787   2.172   3.212  0.5791  0.8161  0.3325
 2852TP3     H220376   4.916   2.241   3.249  0.6017  0.3509  1.1418
 2853TP3      O20377   1.438   2.739   0.333  0.2747 -0.3048  0.1879
 2853TP3     H120378   1.434   2.761   0.240 -0.3737 -2.0820 -0.2544
 2853TP3     H220379   1.368   2.790   0.373 -0.1182 -0.2954 -0.4883
 2854TP3      O20380   0.531   2.136   2.680 -0.0191 -0.6290  0.0001
 2854TP3     H120381   0.566   2.155   2.593 -1.7719  0.7791 -0.4718
 2854TP3     H220382   0.548   2.216   2.730 -1.0096 -0.5595  0.2504
 2855TP3      O20383   4.837   0.120   9.635 -0.2962  0.4092 -0.2811
 2855TP3     H120384   4.761   0.080   9.677 -1.3339  2.2811 -0.2564
 2855TP3     H220385   4.895   0.047   9.615 -0.3368 -0.7346  3.1896
 2856TP3      O20386   2.684   1.069   8.565 -0.0260 -0.0957  0.1354
 2856TP3     H120387   2.601   1.066   8.612 -0.4138 -1.5575 -0.5577
 2856TP3     H220388   2.669   1.130   8.493 -0.6748 -0.6995 -0.2557
 2857TP3      O20389   3.021   4.848   9.583  0.3626  0.6288  0.0451
 2857TP3     H120390   2.940   4.881   9.621 -0.2681 -0.6408 -0.1405
 2857TP3     H220391   3.090   4.891   9.633 -0.4275  0.7107  1.1001
 2858TP3      O20392   4.574   0.554   7.963 -0.6242  0.1633 -0.0949
 2858TP3     H120393   4.567   0.605   7.883 -1.0104  0.1811 -0.0514
 2858TP3     H220394   4.667   0.554   7.984 -0.6132  0.7814 -0.1358
 2859TP3      O20395   0.841   2.690   1.088  0.3443  0.1184 -0.2938
 2859TP3     H120396   0.925   2.645   1.095  0.9498  1.0401 -1.2042
 2859TP3     H220397   0.811   2.671   0.999 -0.3823 -0.1509  0.0067
 2860TP3      O20398   4.525   1.447   9.832  0.4351 -0.2782  0.3478
 2860TP3     H120399   4.527   1.383   9.761  0.5466  0.0162  0.0800
 2860TP3     H220400   4.481   1.402   9.904 -0.6071 -0.2356 -0.2466
 2861TP3      O20401   1.004   3.045   0.238 -0.1861  0.3460  0.1249
 2861TP3     H120402   0.951   3.043   0.318  0.4669  0.5569  0.5728
 2861TP3     H220403   1.047   3.131   0.240 -0.4031  0.4775 -0.6161
 2862TP3      O20404   1.945   3.827   2.904 -0.1342  1.1025 -0.3518
 2862TP3     H120405   1.929   3.912   2.946 -0.2975  0.5276  0.8063
 2862TP3     H220406   2.040   3.818   2.904 -0.1201 -0.0425  2.4653
 2863TP3      O20407   2.934   5.156   0.738  0.2926  0.3237  0.0661
 2863TP3     H120408   2.840   5.144   0.725  0.3304  1.3446 -1.4196
 2863TP3     H220409   2.940   5.233   0.795  0.2420  0.4745 -0.1335
 2864TP3      O20410   1.824   2.058   9.574 -0.0844  0.1223 -0.2298
 2864TP3     H120411   1.820   2.033   9.482  1.6212 -1.2173  0.0055
 2864TP3     H220412   1.903   2.016   9.607  1.0590  3.0022  1.1150
 2865TP3      O20413   3.615   5.255   9.869 -0.0659  0.2143  0.2175
 2865TP3     H120414   3.664   5.188   9.822  0.3381  1.0557 -0.6059
 2865TP3     H220415   3.523   5.232   9.855  0.0641  0.0378 -0.3977
 2866TP3      O20416   3.105   0.902   7.394 -0.6675 -0.4748  0.2518
 2866TP3     H120417   3.030   0.887   7.337  0.4340  0.4928 -1.5759
 2866TP3     H220418   3.181   0.878   7.340  0.3951 -0.0769  1.5241
 2867TP3      O20419   1.653   2.920   1.273 -0.0518 -1.0720  0.2066
 2867TP3     H120420   1.641   2.999   1.326 -1.6438 -2.0362  1.3652
 2867TP3     H220421   1.651   2.952   1.183 -0.6614  0.2309  0.6487
 2868TP3      O20422   5.000   1.869   0.189 -0.6972 -0.1716  0.0336
 2868TP3     H120423   4.983   1.777   0.210  1.6111 -0.7593 -0.4454
 2868TP3     H220424   5.040   1.867   0.102 -0.2900  1.2645  0.1637
 2869TP3      O20425   2.622   1.986   2.390 -0.2846 -0.8436  0.6370
 2869TP3     H120426   2.534   2.022   2.381  0.1533  0.7672  2.0310
 2869TP3     H220427   2.614   1.894   2.367 -2.1143 -0.5106 -0.2197
 2870TP3      O20428   3.150   2.374   9.031 -0.5380 -1.0428 -0.4460
 2870TP3     H120429   3.092   2.344   8.961 -3.6143  1.0498  0.9752
 2870TP3     H220430   3.110   2.340   9.111  0.5582 -0.0389  0.5702
 2871TP3      O20431   4.185   0.896   8.474  0.0623 -0.0093 -0.2070
 2871TP3     H120432   4.126   0.832   8.515 -1.3514  0.0348 -2.0345
 2871TP3     H220433   4.182   0.972   8.532 -1.8864  0.0778 -0.3556
 2872TP3      O20434   0.074   3.542   0.809 -0.4240  0.0540 -0.0391
 2872TP3     H120435   0.111   3.629   0.816  1.2308 -0.6839  0.9827
 2872TP3     H220436   0.015   3.535   0.884  1.6765 -0.6592  1.6583
 2873TP3      O20437   1.988   0.599   8.202  0.3497  0.1126  0.2868
 2873TP3     H120438   1.998   0.504   8.203 -0.5787 -0.0138 -0.6562
 2873TP3     H220439   1.928   0.618   8.274  2.1819  0.2481  1.8894
 2874TP3      O20440   0.219   3.746   8.284 -0.0257 -0.1403 -0.3580
 2874TP3     H120441   0.178   3.701   8.211  0.7422 -0.8160 -0.3903
 2874TP3     H220442   0.313   3.746   8.263  0.3738 -1.5344  1.2219
 2875TP3      O20443   2.363   3.320   0.495 -0.1034 -0.0196  0.0731
 2875TP3     H120444   2.354   3.250   0.559 -0.0483 -0.1138 -0.0216
 2875TP3     H220445   2.274   3.354   0.483 -0.2074 -0.3864 -0.2298
 2876TP3      O20446   2.137   3.860   0.672 -0.1200  0.3154  0.6445
 2876TP3     H120447   2.149   3.917   0.748 -2.2319  1.8546 -0.0974
 2876TP3     H220448   2.198   3.894   0.606 -1.4831  1.8627  0.1535
 2877TP3      O20449   3.463   5.014   7.050 -0.4940  0.6057  0.2495
 2877TP3     H120450   3.459   4.948   7.119  3.0253  1.1314  1.1432
 2877TP3     H220451   3.508   4.970   6.978 -0.5672  1.2450 -0.1971
 2878TP3      O20452   1.766   3.076   9.386 -0.2115 -0.0499  0.0488
 2878TP3     H120453   1.852   3.090   9.346 -0.4045 -1.4348 -0.9100
 2878TP3     H220454   1.779   3.001   9.444 -1.3357 -2.1199 -2.1868
 2879TP3      O20455   1.776   0.351   2.936  0.2111 -0.2148 -0.5440
 2879TP3     H120456   1.799   0.406   2.861  1.8933 -0.2565 -0.0916
 2879TP3     H220457   1.822   0.268   2.920 -0.0616 -0.5036  0.1485
 2880TP3      O20458   1.483   3.449   1.953 -0.2134 -0.8212  0.1197
 2880TP3     H120459   1.534   3.530   1.947  2.5714 -2.3781  1.1192
 2880TP3     H220460   1.448   3.448   2.042 -1.4919 -0.0923 -0.3452
 2881TP3      O20461   5.110   1.409   8.485  0.4225  1.0203 -0.3711
 2881TP3     H120462   5.093   1.317   8.465 -0.7234  1.2413 -0.4550
 2881TP3     H220463   5.159   1.407   8.567 -0.2121  0.3631 -0.0042
 2882TP3      O20464   1.223   2.128   6.566 -0.9271 -0.3076  0.3611
 2882TP3     H120465   1.206   2.211   6.522 -1.8162  0.4754  2.0790
 2882TP3     H220466   1.140   2.080   6.561 -1.3498  0.1913  1.9271
 2883TP3      O20467   1.081   1.035   9.978 -0.1272  0.3150 -0.1580
 2883TP3     H120468   1.100   1.026   9.885  0.9450  1.1219 -0.0346
 2883TP3     H220469   1.103   1.125   9.999  2.2459 -0.5314  1.4279
 2884TP3      O20470   1.348   0.007   1.037  0.3402  0.2460 -0.3153
 2884TP3     H120471   1.265   0.042   1.068  0.5147  0.9778 -0.6616
 2884TP3     H220472   1.359  -0.075   1.086 -0.4547  0.2720 -0.0815
 2885TP3      O20473   1.889   2.375   7.936 -0.2404  0.3780 -0.3698
 2885TP3     H120474   1.951   2.444   7.912 -0.9920  1.5349  0.8730
 2885TP3     H220475   1.943   2.309   7.980  0.1819  1.1666  0.3192
 2886TP3      O20476   5.107   0.734   2.601  0.5988 -0.7002 -0.2870
 2886TP3     H120477   5.121   0.828   2.603 -1.3918 -0.3712  0.4092
 2886TP3     H220478   5.079   0.716   2.511 -1.6437 -0.1506  0.2566
 2887TP3      O20479   0.475   1.870   0.726  0.3023  0.0532  0.4155
 2887TP3     H120480   0.484   1.847   0.633 -1.0430  1.2298 -0.0392
 2887TP3     H220481   0.429   1.795   0.764  1.2639 -0.6453  0.2700
 2888TP3      O20482   1.235   3.775   9.836 -0.1875  0.4270  0.5861
 2888TP3     H120483   1.294   3.841   9.870 -1.2758  1.1371  1.1727
 2888TP3     H220484   1.153   3.788   9.885 -0.9340 -0.2974 -0.4108
 2889TP3      O20485   3.963   0.454   0.954 -0.2208  0.7758  0.4201
 2889TP3     H120486   3.963   0.540   0.995  1.1453  1.1215 -0.2361
 2889TP3     H220487   4.020   0.401   1.010 -1.1250  0.2523  0.8712
 2890TP3      O20488   3.059   3.971   2.551  0.0834  0.1256  0.1467
 2890TP3     H120489   3.008   3.949   2.473 -1.0507 -1.5550  1.2944
 2890TP3     H220490   3.150   3.957   2.525 -0.2513 -0.0530 -0.9794
 2891TP3      O20491   1.076   0.582   3.180 -0.2148 -0.0381  0.0506
 2891TP3     H120492   1.136   0.639   3.228  0.2747  0.0103 -0.5957
 2891TP3     H220493   1.102   0.493   3.205 -0.4532  0.0055  0.4484
 2892TP3      O20494   0.889   1.977   3.004 -0.1080 -0.2795  0.3566
 2892TP3     H120495   0.970   1.940   3.037 -0.0115  0.1538  0.6065
 2892TP3     H220496   0.900   1.977   2.909  1.4336  2.4967  0.4221
 2893TP3      O20497   2.041   5.072   9.795  0.0182  0.0171 -0.5346
 2893TP3     H120498   2.035   4.984   9.758  0.3009 -0.8105  1.2974
 2893TP3     H220499   2.117   5.111   9.752  0.6091 -1.0626 -0.5028
 2894TP3      O20500   3.881   5.104   1.146 -0.6621  0.4302  0.3905
 2894TP3     H120501   3.822   5.032   1.168  0.6515 -1.1156 -0.8784
 2894TP3     H220502   3.937   5.114   1.223  0.5218 -1.3938 -0.1763
 2895TP3      O20503   3.960   2.132   0.634  0.0940 -0.1160 -0.1767
 2895TP3     H120504   3.892   2.069   0.655 -1.2974  1.2645 -0.3717
 2895TP3     H220505   3.917   2.217   0.640  1.4180  0.7269 -1.7637
 2896TP3      O20506   0.700   5.095   8.308  0.1173 -0.0490  0.9102
 2896TP3     H120507   0.621   5.086   8.363 -1.0298 -0.4314 -0.7278
 2896TP3     H220508   0.673   5.153   8.237  1.1460 -0.6067  0.0397
 2897TP3      O20509   0.730   0.626   2.827  0.0144 -0.2047 -0.0312
 2897TP3     H120510   0.816   0.654   2.860 -0.3933  2.8739 -1.2688
 2897TP3     H220511   0.749   0.590   2.740  0.2348 -1.3848  0.4877
 2898TP3      O20512   1.636   2.813   8.152  0.1415  0.2188  0.2923
 2898TP3     H120513   1.726   2.806   8.185  0.5058 -1.0806 -0.8534
 2898TP3     H220514   1.621   2.730   8.106 -0.9140  1.2384 -1.3203
 2899TP3      O20515   4.327   1.954   9.551  0.0646 -0.2097  0.4409
 2899TP3     H120516   4.380   1.884   9.590  2.3506  0.5474 -1.0894
 2899TP3     H220517   4.237   1.923   9.559  0.9545 -3.3647 -0.1828
 2900TP3      O20518   0.577   4.491   0.946  0.7887 -0.0070  0.6301
 2900TP3     H120519   0.652   4.535   0.986  0.4609 -0.1428  1.4117
 2900TP3     H220520   0.565   4.411   0.998  0.4625 -0.2741  0.1532
 2901TP3      O20521   5.288   3.035   2.130  0.0439 -0.1780 -0.5048
 2901TP3     H120522   5.313   3.087   2.054 -2.2823 -0.3120 -1.4357
 2901TP3     H220523   5.274   2.947   2.095 -1.2887 -0.1825  0.0071
 2902TP3      O20524   2.912   3.789   8.440  0.3898 -0.0335  0.2339
 2902TP3     H120525   2.913   3.700   8.476 -0.0152 -0.7903 -1.4956
 2902TP3     H220526   2.985   3.833   8.482  0.8363 -1.3073  0.8486
 2903TP3      O20527   4.627   0.697   8.428  0.1695 -0.1048  0.7226
 2903TP3     H120528   4.558   0.721   8.367  0.7753 -2.2519 -0.9325
 2903TP3     H220529   4.708   0.727   8.387  0.8230 -3.4744 -0.8524
 2904TP3      O20530   4.540   2.848   9.431 -0.6740  0.1599 -0.1202
 2904TP3     H120531   4.601   2.917   9.404 -0.7194  0.7869  1.2685
 2904TP3     H220532   4.593   2.769   9.437 -0.7698 -0.1380 -2.4573
 2905TP3      O20533   4.221   0.074   9.580  0.3909 -0.4863  0.1744
 2905TP3     H120534   4.180   0.002   9.628 -0.6434  0.2351  0.3908
 2905TP3     H220535   4.283   0.031   9.521 -1.6921 -1.7397 -1.2300
 2906TP3      O20536   1.261   3.678   8.329 -0.1731 -0.1368  0.2312
 2906TP3     H120537   1.194   3.617   8.359 -0.8216 -0.5571 -1.9280
 2906TP3     H220538   1.282   3.731   8.406 -2.5532 -0.3757  1.1009
 2907TP3      O20539   3.842   2.783   9.590  0.5396 -0.0497 -0.2456
 2907TP3     H120540   3.858   2.688   9.590 -0.7574 -0.2770 -0.8615
 2907TP3     H220541   3.897   2.816   9.662  1.3057 -1.2086 -0.2770
 2908TP3      O20542   1.032   2.526   9.735 -0.5327 -1.2030 -0.1862
 2908TP3     H120543   1.055   2.441   9.772  1.5968 -1.0724 -1.0985
 2908TP3     H220544   1.116   2.569   9.717 -1.4718 -0.2408 -2.7868
 2909TP3      O20545   5.158   2.629   0.117  0.2559 -0.1515 -0.3817
 2909TP3     H120546   5.155   2.724   0.105  0.9221 -0.0511  0.2160
 2909TP3     H220547   5.142   2.616   0.211 -1.4860 -0.7347 -0.7095
 2910TP3      O20548   3.130   3.331   9.093  0.2080  0.2836  0.3706
 2910TP3     H120549   3.064   3.394   9.065  0.0902 -0.9226 -2.4727
 2910TP3     H220550   3.196   3.333   9.024  2.3540  0.2269  2.2866
 2911TP3      O20551   2.794   2.276   7.699 -0.2982 -0.6017  0.0242
 2911TP3     H120552   2.780   2.298   7.607 -1.7164  1.9687  0.7561
 2911TP3     H220553   2.848   2.348   7.733  0.6646 -1.7852  1.1282
 2912TP3      O20554   4.918   4.815   1.729  0.6840 -0.0621  0.4915
 2912TP3     H120555   4.824   4.803   1.739  0.5594  1.4417  1.4783
 2912TP3     H220556   4.941   4.878   1.798  2.3992 -0.3664  0.2359
 2913TP3      O20557   4.017   2.567   2.769  0.2607  0.2327  0.4446
 2913TP3     H120558   4.035   2.589   2.860  4.5808 -0.7069  0.0170
 2913TP3     H220559   3.985   2.477   2.771  1.5552 -0.2312  0.9946
 2914TP3      O20560   4.973   1.147   2.467  0.3435  0.4852  0.0292
 2914TP3     H120561   5.037   1.087   2.505  0.7348  0.4550 -0.6522
 2914TP3     H220562   4.923   1.093   2.405 -0.1727  0.5678  0.3652
 2915TP3      O20563   4.805   3.626   9.154 -0.2307 -0.0606  0.0256
 2915TP3     H120564   4.846   3.582   9.080 -1.9820  0.8932 -1.6026
 2915TP3     H220565   4.734   3.568   9.180 -0.5135  0.2751  0.0100
 2916TP3      O20566   2.096   4.784   0.833  0.7220 -0.0599 -0.0809
 2916TP3     H120567   2.093   4.879   0.846  0.2028 -0.2725  1.5522
 2916TP3     H220568   2.048   4.748   0.908  0.8826 -1.6121 -0.6930
 2917TP3      O20569   3.305   1.952   9.133  0.0681  0.0550 -0.1020
 2917TP3     H120570   3.277   1.946   9.225 -0.7683  3.0838 -0.0383
 2917TP3     H220571   3.226   1.931   9.083  0.3769 -1.0535 -0.1398
 2918TP3      O20572   3.253   0.460   0.222  0.4657  0.2368  0.2923
 2918TP3     H120573   3.170   0.507   0.217  0.8587  0.8446 -0.9179
 2918TP3     H220574   3.303   0.508   0.289  0.2398  0.5252  0.2593
 2919TP3      O20575   3.129   3.742   2.301  0.1948  0.1330 -0.0125
 2919TP3     H120576   3.088   3.676   2.357 -1.3743  1.2212  0.2192
 2919TP3     H220577   3.072   3.746   2.224 -0.2287  1.7468  0.3420
 2920TP3      O20578   1.704   4.529   1.203  0.2059  0.2871 -0.4754
 2920TP3     H120579   1.643   4.462   1.172 -1.9871  1.8293  0.2320
 2920TP3     H220580   1.780   4.480   1.234 -0.9897 -1.8062 -0.6969
 2921TP3      O20581   4.410   0.116   7.993  0.5252  0.2928 -0.0584
 2921TP3     H120582   4.466   0.168   8.052  1.4052 -0.7368  0.0378
 2921TP3     H220583   4.433   0.146   7.905  0.1870  0.8709  0.0407
 2922TP3      O20584   0.527   4.157   9.521  0.4575 -0.1896 -0.5008
 2922TP3     H120585   0.461   4.198   9.576 -1.5068 -0.7496 -2.2806
 2922TP3     H220586   0.535   4.068   9.555  0.9233  0.1197  0.2192
 2923TP3      O20587   2.206   3.075   7.647  0.2222 -0.2775 -0.3804
 2923TP3     H120588   2.131   3.135   7.641  0.8635  0.4633 -1.1894
 2923TP3     H220589   2.277   3.121   7.603  1.3737 -0.6550  1.0096
 2924TP3      O20590   3.863   2.388   0.268  0.1923  0.0701  0.5046
 2924TP3     H120591   3.951   2.377   0.304  0.4761  1.6487  0.3597
 2924TP3     H220592   3.812   2.319   0.309  2.0474 -2.7005 -1.4453
 2925TP3      O20593   4.249   4.170   8.003  0.0388  0.3390  0.0945
 2925TP3     H120594   4.328   4.177   7.950 -0.7538 -1.0402 -1.3725
 2925TP3     H220595   4.248   4.249   8.056  1.3006  1.4190 -1.3957
 2926TP3      O20596   0.437   2.225   7.833 -0.3207  0.3183  0.3283
 2926TP3     H120597   0.476   2.185   7.756  1.1948  0.9518  0.7363
 2926TP3     H220598   0.405   2.310   7.802 -1.9424 -0.4074 -0.1259
 2927TP3      O20599   3.702   2.487   2.710 -0.0354 -0.6220  0.4940
 2927TP3     H120600   3.693   2.479   2.615 -0.1557 -0.1521  0.4664
 2927TP3     H220601   3.769   2.423   2.733 -0.0400 -0.7710  0.0989
 2928TP3      O20602   4.263   0.639   7.375 -0.2555 -0.2023 -0.0937
 2928TP3     H120603   4.293   0.679   7.293  0.5810 -0.2132  0.2005
 2928TP3     H220604   4.168   0.633   7.364 -0.7513  3.6536  0.5776
 2929TP3      O20605   1.509   4.619   9.750 -0.7227  0.2207  0.3712
 2929TP3     H120606   1.489   4.564   9.826 -3.5394  0.7900  0.1583
 2929TP3     H220607   1.433   4.609   9.693  1.0366  0.3092 -2.1246
 2930TP3      O20608   4.849   3.093   0.748 -0.0425 -1.0400 -0.4200
 2930TP3     H120609   4.887   3.104   0.661 -1.9820  0.2149 -1.1721
 2930TP3     H220610   4.760   3.062   0.732 -0.6158 -0.2773  1.0891
 2931TP3      O20611   0.273   4.788   2.767 -0.0205 -0.0660 -0.0363
 2931TP3     H120612   0.280   4.718   2.702  0.0489  1.6630 -2.0259
 2931TP3     H220613   0.193   4.768   2.815  0.1730 -1.6622 -0.3197
 2932TP3      O20614   0.269   1.876   1.651  0.4521 -0.1319  0.2316
 2932TP3     H120615   0.230   1.955   1.688  0.3997 -0.3092  0.5647
 2932TP3     H220616   0.326   1.908   1.581 -0.3459  0.1217 -0.3136
 2933TP3      O20617   5.186   1.345   9.411  0.5516 -0.4446 -0.1059
 2933TP3     H120618   5.181   1.413   9.344 -0.1621 -0.6142 -0.2385
 2933TP3     H220619   5.216   1.390   9.489  1.8462 -0.3308 -0.6451
 2934TP3      O20620   0.914   3.873   2.910 -0.2960 -0.5707  0.0003
 2934TP3     H120621   0.918   3.812   2.984 -0.8321  0.1931  0.6777
 2934TP3     H220622   0.870   3.950   2.946  0.2538  0.1586 -0.8800
 2935TP3      O20623   2.152   5.131   9.017  0.2232 -0.1017  0.0781
 2935TP3     H120624   2.217   5.124   9.087 -0.5494  1.8981  1.0909
 2935TP3     H220625   2.194   5.184   8.950 -0.7305  2.5227  1.3905
 2936TP3      O20626   0.050   2.975   8.173 -0.6877 -0.1929  0.4684
 2936TP3     H120627   0.114   2.948   8.238 -1.1987 -0.5459  0.8339
 2936TP3     H220628   0.054   3.071   8.174 -0.4759 -0.2030  0.7994
 2937TP3      O20629   3.499   4.328   2.186  0.0189  0.3986 -0.0175
 2937TP3     H120630   3.449   4.393   2.236 -2.3899 -1.9840  0.9197
 2937TP3     H220631   3.446   4.313   2.108 -0.4211 -1.5986  0.6057
 2938TP3      O20632   0.976   0.461   8.298 -0.2957  0.1248  0.3865
 2938TP3     H120633   0.977   0.535   8.358 -0.3194  0.5993 -0.1901
 2938TP3     H220634   1.014   0.389   8.349  2.1969  1.1691  0.1661
 2939TP3      O20635   2.773   5.263   1.632  0.0909 -0.2129 -0.0938
 2939TP3     H120636   2.792   5.245   1.724  0.1242 -0.0431 -0.0666
 2939TP3     H220637   2.796   5.182   1.586  3.9049  0.8585 -0.4859
 2940TP3      O20638   5.282   4.512   0.059  0.1207 -0.1472  0.3532
 2940TP3     H120639   5.304   4.582  -0.002  0.1645  0.6743  1.2914
 2940TP3     H220640   5.187   4.506   0.057  0.1542 -0.5503 -0.2515
 2941TP3      O20641   1.736   5.176   7.172  0.0134  0.3522 -0.0510
 2941TP3     H120642   1.649   5.135   7.165 -0.1640  0.3386  1.8189
 2941TP3     H220643   1.786   5.118   7.228  0.7080  1.2096  0.2426
 2942TP3      O20644   2.885   1.234   9.375  0.0199  0.1048  0.3088
 2942TP3     H120645   2.820   1.230   9.305  0.3020  0.3560  0.0279
 2942TP3     H220646   2.957   1.179   9.344 -0.2471 -0.5444  0.8216
 2943TP3      O20647   4.913   3.881   0.976 -0.1433 -0.1418  0.0804
 2943TP3     H120648   4.910   3.815   0.906  0.6528 -0.0368 -0.0643
 2943TP3     H220649   4.948   3.959   0.933  0.8936 -0.2420  0.7039
 2944TP3      O20650   4.119   2.042   1.740 -0.1414 -0.3952  0.0085
 2944TP3     H120651   4.062   2.087   1.679 -0.2983  1.6917  1.5833
 2944TP3     H220652   4.070   2.039   1.822  0.4728 -2.1445  0.3654
 2945TP3      O20653   3.952   0.319   2.706  0.3668 -0.3523 -0.6035
 2945TP3     H120654   3.958   0.236   2.658  0.3143 -1.2692  0.8891
 2945TP3     H220655   3.902   0.297   2.785  3.2149  0.2010  1.5537
 2946TP3      O20656   2.156   4.175   2.246 -0.1392  0.1706  0.3553
 2946TP3     H120657   2.081   4.163   2.304 -0.4957 -0.7008 -0.2563
 2946TP3     H220658   2.121   4.160   2.158  0.7863 -0.4234  0.0713
 2947TP3      O20659   3.593   0.791   8.877  0.5923  0.5422  0.2495
 2947TP3     H120660   3.591   0.872   8.827 -0.5129  0.2810 -0.1682
 2947TP3     H220661   3.586   0.722   8.811 -2.0846  0.2138  0.7549
 2948TP3      O20662   4.795   2.014   1.901  0.3256  0.8916 -0.0649
 2948TP3     H120663   4.833   2.101   1.884  0.4940  0.8600  0.1470
 2948TP3     H220664   4.828   1.960   1.829  1.6640  0.5716  0.7459
 2949TP3      O20665   0.466   3.353   9.289 -0.2742  1.1595 -0.1974
 2949TP3     H120666   0.530   3.338   9.219 -0.4351  3.2162 -0.8808
 2949TP3     H220667   0.513   3.337   9.370  0.3061  0.0243 -0.7465
 2950TP3      O20668   2.338   2.879   8.423  0.1473  0.3972 -0.7243
 2950TP3     H120669   2.248   2.906   8.407 -0.1380  0.7998  1.2813
 2950TP3     H220670   2.341   2.787   8.395 -1.5443 -0.3343  1.2222
 2951TP3      O20671   2.522   2.981   0.055  0.0573  0.0958 -0.3728
 2951TP3     H120672   2.543   3.002  -0.036  0.5703  0.0380 -0.2737
 2951TP3     H220673   2.445   3.033   0.075 -1.3604 -1.4580 -1.4836
 2952TP3      O20674   4.478   0.527   1.805  0.2106 -0.2936  0.8886
 2952TP3     H120675   4.472   0.482   1.720 -1.1988  0.9496  0.2875
 2952TP3     H220676   4.442   0.614   1.788  0.6797  0.2605  2.5867
 2953TP3      O20677   2.364   3.258   9.720  0.5962  0.2349 -0.1838
 2953TP3     H120678   2.403   3.304   9.795 -1.1689  0.8609  0.4041
 2953TP3     H220679   2.300   3.319   9.685 -1.1700 -1.4068  0.0390
 2954TP3      O20680   1.712   4.828   7.321 -0.3735  0.2607  0.0648
 2954TP3     H120681   1.789   4.879   7.295  0.1684 -1.3587 -1.6953
 2954TP3     H220682   1.638   4.877   7.286  0.0089  0.6944 -0.1607
 2955TP3      O20683   1.077   0.151   1.963 -0.4412  0.0153 -0.0006
 2955TP3     H120684   1.167   0.177   1.940 -0.8619  2.9077  1.1505
 2955TP3     H220685   1.087   0.067   2.007  1.6248 -0.0207 -0.4118
 2956TP3      O20686   4.553   2.035   7.388  0.0693 -0.0150  0.1727
 2956TP3     H120687   4.499   2.059   7.313  1.0752  0.7505 -0.3276
 2956TP3     H220688   4.629   1.990   7.350 -0.1920 -1.0932  0.8667
 2957TP3      O20689   3.955   4.181   0.356 -0.4004  0.5410 -0.0196
 2957TP3     H120690   3.955   4.101   0.304 -0.0046 -0.8768  2.0398
 2957TP3     H220691   3.863   4.205   0.364 -0.4164  2.9483 -4.2869
 2958TP3      O20692   2.910   2.472   1.832  0.1289 -0.0065 -0.2199
 2958TP3     H120693   2.931   2.564   1.847 -0.3624 -0.2189  2.1627
 2958TP3     H220694   2.991   2.425   1.854  0.2409 -0.1741 -0.9848
 2959TP3      O20695   3.363   2.067   8.882 -0.2050  0.6499  0.1590
 2959TP3     H120696   3.356   2.023   8.967 -0.8611  2.0978  0.8902
 2959TP3     H220697   3.406   2.151   8.902  2.5834 -0.2730 -1.4483
 2960TP3      O20698   3.260   3.375   0.417  0.3131 -0.2426 -0.0704
 2960TP3     H120699   3.192   3.323   0.459  0.9009 -0.3615  0.7355
 2960TP3     H220700   3.214   3.453   0.385 -0.6851 -1.4411 -1.7612
 2961TP3      O20701   2.595   1.887   0.406 -0.0017 -0.2004  0.2140
 2961TP3     H120702   2.625   1.909   0.494  1.6432 -2.1442  0.1995
 2961TP3     H220703   2.504   1.860   0.418 -0.2896  1.0412  1.0416
 2962TP3      O20704   3.077   2.356   9.723  0.0808 -0.6793  0.0232
 2962TP3     H120705   3.095   2.352   9.629 -2.1113 -1.3693 -0.4332
 2962TP3     H220706   3.064   2.449   9.741  2.6661 -0.2829  0.1640
 2963TP3      O20707   5.030   1.100   8.377  0.1653 -0.0695 -0.4920
 2963TP3     H120708   5.071   1.115   8.462  1.9189 -0.4884 -1.2302
 2963TP3     H220709   4.952   1.048   8.398  0.5405 -0.1469  0.8493
 2964TP3      O20710   0.731   0.559   2.341 -0.4966  0.0539 -0.8136
 2964TP3     H120711   0.704   0.467   2.333 -0.0006 -0.2029  0.3005
 2964TP3     H220712   0.790   0.573   2.267  0.0987 -0.7775 -0.5100
 2965TP3      O20713   4.747   4.678   3.075 -0.0951 -0.1726 -0.2242
 2965TP3     H120714   4.753   4.759   3.125 -2.3374  0.2833 -0.5969
 2965TP3     H220715   4.735   4.706   2.985 -2.5644 -0.8140 -0.1623
 2966TP3      O20716   1.381   3.879   9.403  0.3213  0.6567  0.7373
 2966TP3     H120717   1.449   3.899   9.468 -0.0870  1.4953  0.9164
 2966TP3     H220718   1.315   3.830   9.452  1.4124 -1.4146  0.2549
 2967TP3      O20719   1.790   0.523   0.349  0.5875  0.1678  0.3453
 2967TP3     H120720   1.863   0.480   0.305  0.6409  0.3550  0.2493
 2967TP3     H220721   1.830   0.598   0.394  0.3744  0.5755 -0.1391
 2968TP3      O20722   3.842   4.086   1.459 -0.2524 -0.8206  0.1064
 2968TP3     H120723   3.776   4.111   1.523 -0.3496 -0.3800 -0.1639
 2968TP3     H220724   3.835   4.151   1.390  1.5980  0.2504  0.8463
 2969TP3      O20725   4.933   1.867   1.671  0.1207 -0.0020  0.3182
 2969TP3     H120726   4.910   1.804   1.739  0.2759 -1.0363 -0.5563
 2969TP3     H220727   5.010   1.830   1.628 -0.6650 -0.0088 -1.1825
 2970TP3      O20728   3.257   0.608   9.112  0.5126  0.5688  0.1871
 2970TP3     H120729   3.349   0.580   9.104  0.0220 -1.5473  1.2018
 2970TP3     H220730   3.212   0.561   9.042  0.3280  2.6133 -1.1700
 2971TP3      O20731   5.287   3.105   7.204 -0.3486  0.2381  0.3417
 2971TP3     H120732   5.214   3.044   7.192 -0.8222  0.7594  0.4791
 2971TP3     H220733   5.319   3.086   7.292  0.6050 -0.9476 -0.2433
 2972TP3      O20734   1.042   0.910   3.028  0.1935 -0.1680 -0.3265
 2972TP3     H120735   1.130   0.888   2.998  0.0690  0.8047 -1.4546
 2972TP3     H220736   1.002   0.957   2.955 -1.3601 -0.8012  0.0707
 2973TP3      O20737   1.852   3.826   2.443 -1.1136  0.3219 -0.0918
 2973TP3     H120738   1.904   3.906   2.453 -1.5095  0.4924  0.7129
 2973TP3     H220739   1.899   3.775   2.377 -1.7366  1.9015 -1.8231
 2974TP3      O20740   1.295   2.606   9.656  0.2439 -0.0888  0.1008
 2974TP3     H120741   1.373   2.653   9.683  1.0342 -0.7071 -1.0193
 2974TP3     H220742   1.328   2.523   9.621 -0.9607 -0.6296  0.1967
 2975TP3      O20743   0.749   0.783   1.306  0.4447 -0.1539 -0.5209
 2975TP3     H120744   0.748   0.696   1.347  2.0689 -0.2934 -0.7037
 2975TP3     H220745   0.780   0.767   1.217  0.5777  0.5962 -0.6125
 2976TP3      O20746   4.783   2.567   1.964  0.2303  0.1988 -0.5275
 2976TP3     H120747   4.712   2.628   1.986  0.0624  0.1104 -0.8131
 2976TP3     H220748   4.780   2.501   2.033 -0.9511 -0.6396 -1.3272
 2977TP3      O20749   0.608   2.616   9.540 -0.4233 -0.2069  0.3323
 2977TP3     H120750   0.513   2.626   9.546 -0.3970 -0.4832  4.3802
 2977TP3     H220751   0.643   2.695   9.581  1.0805 -0.5441 -0.2352
 2978TP3      O20752   4.927   0.919   0.836 -0.6198 -0.2002 -0.1633
 2978TP3     H120753   4.970   0.849   0.885 -1.1692 -1.6088 -1.6007
 2978TP3     H220754   4.990   0.991   0.837  0.0666 -0.7817  1.1403
 2979TP3      O20755   4.291   0.671   2.825  0.4184 -0.0546  0.2898
 2979TP3     H120756   4.285   0.644   2.733  1.2019 -0.7565  0.4253
 2979TP3     H220757   4.350   0.607   2.864  1.9355  1.5507  0.7623
 2980TP3      O20758   1.364   4.560   6.768 -0.1830  0.2128  0.1497
 2980TP3     H120759   1.292   4.563   6.705 -1.8109  1.6127  1.9267
 2980TP3     H220760   1.349   4.479   6.817  0.5480 -0.4149 -0.6440
 2981TP3      O20761   3.292   1.435  10.024 -0.1558  0.0397 -0.3467
 2981TP3     H120762   3.220   1.427  10.087 -0.4624  2.0050 -0.4123
 2981TP3     H220763   3.322   1.344  10.012 -1.3372 -0.6050  1.1496
 2982TP3      O20764   3.098   2.515   8.034  0.0730 -0.3146  0.3552
 2982TP3     H120765   3.166   2.492   8.097 -1.2753 -0.6959  1.7360
 2982TP3     H220766   3.016   2.507   8.083 -1.1013 -1.3958 -1.6719
 2983TP3      O20767   1.914   3.995   8.075  0.4864  0.0513 -0.2741
 2983TP3     H120768   1.892   4.062   8.139 -0.6599 -0.1957 -0.3969
 2983TP3     H220769   2.007   3.979   8.089  0.8619  1.8584 -0.4405
 2984TP3      O20770   3.062   0.294   6.860  0.3421  0.2825  0.2503
 2984TP3     H120771   3.113   0.262   6.786 -2.0615  0.2582 -1.5396
 2984TP3     H220772   3.082   0.387   6.866 -0.4385  0.5868 -1.3864
 2985TP3      O20773   4.567   1.796   1.896  0.1364 -0.8666 -0.1161
 2985TP3     H120774   4.482   1.836   1.878  0.3823 -0.5534 -0.5996
 2985TP3     H220775   4.618   1.866   1.936  0.3133 -0.9219 -0.2445
 2986TP3      O20776   1.992   0.308   8.256 -0.2267 -0.3832 -0.0126
 2986TP3     H120777   2.086   0.319   8.271 -0.1791 -0.6813 -0.0878
 2986TP3     H220778   1.959   0.272   8.338 -0.3068 -0.1144  0.0752
 2987TP3      O20779   4.775   4.991   9.868  0.2462  0.4586  0.0885
 2987TP3     H120780   4.703   4.984   9.931  1.2365 -0.3776  1.1695
 2987TP3     H220781   4.820   5.072   9.893 -0.0983  0.7992 -0.3700
 2988TP3      O20782   2.990   4.208  10.075  0.0037  0.0764  0.4372
 2988TP3     H120783   2.986   4.120  10.112 -1.0553 -0.4186 -0.8157
 2988TP3     H220784   3.067   4.248  10.117  0.8953 -1.6568  0.5288
 2989TP3      O20785   1.071   4.185   1.712  0.3509  0.9498  0.4792
 2989TP3     H120786   1.066   4.214   1.803  0.6913  1.2349  0.4075
 2989TP3     H220787   1.031   4.256   1.662 -1.7811 -0.0934  0.5663
 2990TP3      O20788   4.715   3.353   2.563  0.2592  0.1851 -0.2608
 2990TP3     H120789   4.701   3.381   2.473 -0.6370 -0.5284 -0.3637
 2990TP3     H220790   4.808   3.331   2.568  0.4409  0.8045 -0.8404
 2991TP3      O20791   5.100   5.114   0.578  0.2716 -0.1778  0.1415
 2991TP3     H120792   5.117   5.059   0.654 -0.9929 -0.4750  0.2192
 2991TP3     H220793   5.028   5.071   0.532 -0.1269  0.9120 -0.2957
 2992TP3      O20794   2.678   4.684   7.613  0.1301 -0.5141 -0.4611
 2992TP3     H120795   2.616   4.614   7.632 -0.1235 -0.4361 -0.9632
 2992TP3     H220796   2.634   4.737   7.546 -0.5213  1.2556  1.2603
 2993TP3      O20797   4.380   1.983   0.119  0.4185 -0.2795  0.6182
 2993TP3     H120798   4.429   1.945   0.046 -0.0352 -1.0276  0.6831
 2993TP3     H220799   4.446   2.001   0.186  0.6302 -1.1879  0.6700
 2994TP3      O20800   0.518   1.427   7.418 -0.0483  0.1692  0.3660
 2994TP3     H120801   0.573   1.464   7.487 -0.3061  2.4711 -0.5561
 2994TP3     H220802   0.441   1.484   7.417 -0.7559 -0.7700 -0.7817
 2995TP3      O20803   2.832   3.453   9.750 -0.1946 -0.1510  0.1900
 2995TP3     H120804   2.908   3.428   9.803 -0.0664  1.2943  0.7325
 2995TP3     H220805   2.869   3.509   9.682 -0.8127  0.9043  0.7087
 2996TP3      O20806   1.347   2.005   8.473  0.5303  0.4777  0.0452
 2996TP3     H120807   1.365   2.021   8.566  0.0965  0.8863  0.0665
 2996TP3     H220808   1.264   1.958   8.472  0.2415  0.9754 -0.1525
 2997TP3      O20809   2.490   2.043   0.069 -0.0138  0.2232  0.2916
 2997TP3     H120810   2.413   2.099   0.065  0.5573  0.9562 -1.1555
 2997TP3     H220811   2.548   2.085   0.132 -0.6390 -0.1562  1.1394
 2998TP3      O20812   0.413   4.442   7.972  0.7537 -0.0926  0.5247
 2998TP3     H120813   0.399   4.531   8.004 -0.0494  0.1689 -0.4921
 2998TP3     H220814   0.365   4.439   7.889  0.7035 -1.5044  0.5854
 2999TP3      O20815   2.659   2.626  10.025  0.0396 -0.2646 -0.0784
 2999TP3     H120816   2.686   2.560   9.961 -1.2912 -0.3919 -0.5251
 2999TP3     H220817   2.580   2.590  10.065  0.3509  0.2215  1.0295
 3000TP3      O20818   4.536   4.412   8.438  0.1867 -0.2560  0.4182
 3000TP3     H120819   4.607   4.348   8.441  0.6172  0.2399  0.9386
 3000TP3     H220820   4.457   4.360   8.456  0.5930 -0.5628  1.3843
 3001TP3      O20821   3.454   2.696   0.559  0.2165  0.1381  0.4468
 3001TP3     H120822   3.460   2.613   0.513  1.0789  1.2672 -1.5982
 3001TP3     H220823   3.537   2.705   0.605  1.0603  0.7938 -1.1099
 3002TP3      O20824   0.623   4.289   2.050 -0.3659 -0.2851 -0.2338
 3002TP3     H120825   0.610   4.346   2.126 -2.5876 -0.4673 -0.4123
 3002TP3     H220826   0.586   4.205   2.077 -1.4419 -0.2681 -1.5775
 3003TP3      O20827   1.579   3.353   7.323 -0.3720  0.2255  0.0239
 3003TP3     H120828   1.560   3.409   7.248 -1.2167  1.2721  0.9977
 3003TP3     H220829   1.650   3.397   7.369 -2.3075  1.5963  1.8597
 3004TP3      O20830   2.452   3.621   3.284  0.0484 -0.1225 -0.0122
 3004TP3     H120831   2.498   3.617   3.368 -1.0306  0.3314  0.6281
 3004TP3     H220832   2.471   3.537   3.242 -0.0083 -0.6714  1.0198
 3005TP3      O20833   4.710   1.173   0.927  0.2870 -0.4361  0.5000
 3005TP3     H120834   4.766   1.118   0.981  0.2021  0.0350  1.0730
 3005TP3     H220835   4.767   1.201   0.855 -0.0336 -2.3255 -0.5289
 3006TP3      O20836   1.248   2.810   8.433 -0.0122 -0.5880  0.0997
 3006TP3     H120837   1.329   2.833   8.387  0.0160 -0.8287  0.0266
 3006TP3     H220838   1.196   2.764   8.368  0.0141 -0.9029  0.2987
 3007TP3      O20839   1.801   3.195   9.057 -0.0460 -0.1723 -0.9326
 3007TP3     H120840   1.778   3.253   8.984 -0.8530 -2.8484 -2.9729
 3007TP3     H220841   1.717   3.157   9.084  0.1283  1.2422  1.9712
 3008TP3      O20842   4.379   0.141   0.130  0.0984 -0.1447 -0.6394
 3008TP3     H120843   4.407   0.199   0.059  0.3702 -0.3547 -0.7021
 3008TP3     H220844   4.426   0.060   0.116 -0.3584 -0.4208 -0.6050
 3009TP3      O20845   1.566   3.370   1.141  0.1491  0.1203 -0.1859
 3009TP3     H120846   1.594   3.458   1.117 -0.2809  0.1022 -0.7898
 3009TP3     H220847   1.552   3.326   1.057  0.1765 -0.4625  0.1097
 3010TP3      O20848   2.797   0.732   3.324 -0.2801 -0.3013  0.2061
 3010TP3     H120849   2.744   0.719   3.403 -0.0710  0.3940  0.4704
 3010TP3     H220850   2.822   0.644   3.297 -1.7450 -0.6614 -0.0517
 3011TP3      O20851   4.814   1.868   8.471  0.2585 -0.6389 -0.7616
 3011TP3     H120852   4.899   1.859   8.428 -0.0738 -1.5630 -1.2566
 3011TP3     H220853   4.755   1.812   8.419 -0.3141 -1.2052  0.4709
 3012TP3      O20854   3.958   3.750   9.762  0.0255 -0.3661 -0.0193
 3012TP3     H120855   4.040   3.796   9.741 -0.3403  0.0268 -0.5945
 3012TP3     H220856   3.964   3.668   9.711 -0.5340  0.2624 -1.1283
 3013TP3      O20857   1.576   3.067   7.624 -0.1406 -0.5041  0.4153
 3013TP3     H120858   1.484   3.072   7.648  0.1492  2.2200  1.2645
 3013TP3     H220859   1.579   3.094   7.533 -0.2314 -1.3669  0.1460
 3014TP3      O20860   0.790   0.633   9.388  0.0923  0.6188  0.3536
 3014TP3     H120861   0.695   0.646   9.398  0.0663  0.0395  0.8858
 3014TP3     H220862   0.821   0.612   9.476  0.5920  0.0168  0.0362
 3015TP3      O20863   1.668   2.548   8.832  0.2729  0.3250 -0.4466
 3015TP3     H120864   1.630   2.622   8.785  0.6772  0.8922  0.1098
 3015TP3     H220865   1.639   2.558   8.922  0.6492  0.0257 -0.2865
 3016TP3      O20866   2.404   1.793   2.648 -0.5991 -0.3831  0.3553
 3016TP3     H120867   2.323   1.796   2.597  0.5556 -1.7436 -1.7044
 3016TP3     H220868   2.473   1.785   2.582  1.1244 -0.5023  2.1019
 3017TP3      O20869   2.888   1.802   1.463  0.4755  0.1345 -0.2058
 3017TP3     H120870   2.825   1.812   1.535 -0.5020 -2.0786 -0.6723
 3017TP3     H220871   2.853   1.730   1.411  1.8215  0.8717 -2.2353
 3018TP3      O20872   1.033   4.145   8.080  0.1034  1.0097 -0.1521
 3018TP3     H120873   1.011   4.123   7.990  0.1284 -2.6215  0.5605
 3018TP3     H220874   0.956   4.118   8.131  0.5740  1.8119  1.0429
 3019TP3      O20875   0.079   0.759   9.319  0.1079  0.6485  0.0115
 3019TP3     H120876   0.046   0.703   9.248  0.1772  0.1434  0.3728
 3019TP3     H220877   0.002   0.780   9.371  0.2442  0.0096  0.4807
 3020TP3      O20878   4.044   0.132   6.306  0.4404 -0.2100 -0.0747
 3020TP3     H120879   4.007   0.217   6.326 -0.0215 -0.7461  1.4359
 3020TP3     H220880   3.994   0.070   6.359  1.6788 -1.2634 -0.0828
 3021TP3      O20881   1.329   4.265   2.824 -0.0255 -0.4526 -0.4369
 3021TP3     H120882   1.389   4.304   2.886  0.3553  0.4367 -1.3364
 3021TP3     H220883   1.321   4.174   2.852 -0.2227  0.0357  1.1544
 3022TP3      O20884   1.176   1.159   9.535 -0.1285 -0.1951 -0.1827
 3022TP3     H120885   1.186   1.086   9.473 -1.4528  1.2757 -2.2691
 3022TP3     H220886   1.195   1.237   9.483 -0.4457  1.0748  1.5147
 3023TP3      O20887   1.963   4.352   1.424  0.1690 -0.2899 -0.0225
 3023TP3     H120888   1.993   4.402   1.499  1.8553 -0.9406 -0.2274
 3023TP3     H220889   1.875   4.323   1.448  0.6244 -0.3765  1.6569
 3024TP3      O20890   0.562   3.125   9.499 -0.2172 -0.0890  0.0141
 3024TP3     H120891   0.583   3.107   9.591  2.1069 -2.2810 -0.8429
 3024TP3     H220892   0.507   3.052   9.472  0.1883 -0.1456 -0.6809
 3025TP3      O20893   3.202   1.637   1.005 -0.4044 -0.3427  0.2572
 3025TP3     H120894   3.214   1.565   1.068  0.0068  0.0075  0.5857
 3025TP3     H220895   3.290   1.653   0.971 -0.5930 -0.3902 -0.2598
 3026TP3      O20896   0.868   1.140   1.142  0.0598  0.5428  0.2127
 3026TP3     H120897   0.836   1.228   1.159 -1.7082  0.1477 -0.8407
 3026TP3     H220898   0.798   1.097   1.094  1.4649 -0.9973 -0.5894
 3027TP3      O20899   0.886   1.266   3.394 -0.2935  0.2036  0.0960
 3027TP3     H120900   0.857   1.237   3.308 -0.5961  1.2642 -0.1765
 3027TP3     H220901   0.819   1.328   3.422 -0.0243  0.1226  0.9497
 3028TP3      O20902   3.353   0.520   9.819 -0.1225 -0.0054 -0.2637
 3028TP3     H120903   3.323   0.486   9.735 -0.3077  0.8424 -0.5427
 3028TP3     H220904   3.393   0.444   9.862 -2.1438 -1.0439 -0.1116
 3029TP3      O20905   0.951   5.109   9.251 -0.1582 -0.3633 -0.3438
 3029TP3     H120906   0.937   5.035   9.311  1.0015  0.9416  1.6381
 3029TP3     H220907   0.864   5.145   9.237 -0.8996 -2.5410 -2.0731
 3030TP3      O20908   1.320   3.128   7.556  0.5303  0.6186  0.1338
 3030TP3     H120909   1.324   3.209   7.505 -0.7745 -0.9824 -2.7396
 3030TP3     H220910   1.256   3.146   7.624 -0.1974  1.8494 -0.8305
 3031TP3      O20911   1.640   0.041   0.644  0.3302 -0.0466  0.2665
 3031TP3     H120912   1.680   0.112   0.695  1.7186 -0.4007 -0.2895
 3031TP3     H220913   1.697  -0.034   0.660 -0.6405 -0.8195  0.1609
 3032TP3      O20914   3.338   4.671   9.747 -0.1643 -0.2018 -0.3828
 3032TP3     H120915   3.302   4.717   9.671 -0.3609 -1.2149 -0.9232
 3032TP3     H220916   3.348   4.739   9.814 -4.1866 -0.0257  0.2494
 3033TP3      O20917   1.332   2.062   9.232  0.1020 -0.4179 -0.4489
 3033TP3     H120918   1.411   2.034   9.279 -0.5612  1.7195  2.2225
 3033TP3     H220919   1.363   2.083   9.144  2.5892  0.3913  0.5123
 3034TP3      O20920   0.324   2.976   2.194  0.2846 -0.0653 -0.0934
 3034TP3     H120921   0.363   3.040   2.134 -1.0122  0.6960 -0.1856
 3034TP3     H220922   0.275   2.916   2.137  0.2306 -0.2077  0.0995
 3035TP3      O20923   2.545   4.913   7.292 -0.2020 -0.3243  0.2193
 3035TP3     H120924   2.582   4.829   7.264 -0.0790 -0.3655  0.4972
 3035TP3     H220925   2.609   4.978   7.263 -0.2764 -0.3293  0.0422
 3036TP3      O20926   0.421   2.743   0.127  0.6319  0.0906 -0.5740
 3036TP3     H120927   0.501   2.721   0.175  0.6094  0.1056 -0.5302
 3036TP3     H220928   0.380   2.658   0.109  0.4897  0.1026 -0.3110
 3037TP3      O20929   3.463   3.008   8.955 -0.2319 -0.2431  0.6657
 3037TP3     H120930   3.495   3.098   8.954  0.5801 -0.4331  3.0565
 3037TP3     H220931   3.372   3.015   8.984 -0.6482 -0.1128 -0.6232
 3038TP3      O20932   2.131   3.520   0.488  0.1482 -0.0657 -0.0358
 3038TP3     H120933   2.108   3.585   0.555 -0.0876  1.7825 -1.8293
 3038TP3     H220934   2.180   3.569   0.422  1.9267 -2.1857 -0.4334
 3039TP3      O20935   2.262   2.808   0.131  0.3913 -0.3222  0.2160
 3039TP3     H120936   2.284   2.888   0.083  2.3844  0.0187  1.5847
 3039TP3     H220937   2.168   2.817   0.149  0.8103  2.4411  1.5528
 3040TP3      O20938   5.035   3.910   2.180 -0.0438 -0.1878  0.3123
 3040TP3     H120939   5.042   3.939   2.089 -1.1064  0.6225  0.4820
 3040TP3     H220940   5.052   3.815   2.176 -0.6126 -0.2564 -0.7953
 3041TP3      O20941   1.502   1.209   9.116 -0.0317 -0.4766 -0.2947
 3041TP3     H120942   1.418   1.248   9.091 -0.7285 -1.0492  1.0259
 3041TP3     H220943   1.477   1.131   9.167  1.2977 -0.2882  0.6784
 3042TP3      O20944   2.239   3.094   0.107  0.2070 -0.5236 -0.7448
 3042TP3     H120945   2.224   3.151   0.032 -0.0215 -0.8938 -0.9880
 3042TP3     H220946   2.173   3.120   0.171  0.1899 -0.4228 -0.8042
 3043TP3      O20947   4.553   0.576   9.162  0.7081  0.0035 -0.2251
 3043TP3     H120948   4.588   0.573   9.251  1.7364 -0.1146 -0.6193
 3043TP3     H220949   4.473   0.628   9.170  0.7482 -0.0614  0.7784
 3044TP3      O20950   0.195   5.069   3.115 -0.0879  0.0725  0.2310
 3044TP3     H120951   0.154   5.152   3.092  1.5692  0.9312  0.2482
 3044TP3     H220952   0.123   5.015   3.148 -0.8722  2.3480  2.5506
 3045TP3      O20953   3.526   0.363   6.995  0.5576 -0.0325 -0.1334
 3045TP3     H120954   3.476   0.408   6.927  0.1897  1.2442  0.9264
 3045TP3     H220955   3.605   0.332   6.950  1.0630  2.1322 -0.8616
 3046TP3      O20956   4.116   2.341   0.412 -0.1887 -0.1119 -0.0448
 3046TP3     H120957   4.190   2.281   0.412  2.5516  2.9454 -0.9207
 3046TP3     H220958   4.132   2.398   0.487 -0.2799  2.0289 -1.5660
 3047TP3      O20959   1.079   2.642   1.492 -0.1437 -0.1605 -0.1964
 3047TP3     H120960   0.999   2.688   1.469  0.5557  1.0992 -0.1971
 3047TP3     H220961   1.055   2.549   1.489 -2.0886  0.2059  1.6898
 3048TP3      O20962   1.445   4.692   3.003  0.5030  0.3057  0.0258
 3048TP3     H120963   1.436   4.786   2.993  1.6952  0.3790 -0.5638
 3048TP3     H220964   1.450   4.658   2.914  0.1133 -0.3201  0.2314
 3049TP3      O20965   2.968   4.982   1.249  0.2932  0.4546 -0.6133
 3049TP3     H120966   3.013   4.902   1.221  0.0787 -0.0264  0.3694
 3049TP3     H220967   3.001   5.050   1.190  1.2418 -0.1611 -0.8154
 3050TP3      O20968   2.648   0.869   0.482 -0.0829 -0.3618 -0.0734
 3050TP3     H120969   2.579   0.816   0.522  0.0161 -0.8607 -0.5418
 3050TP3     H220970   2.730   0.833   0.517  0.0374 -1.2041 -1.1455
 3051TP3      O20971   0.170   4.116   1.086 -0.5528  0.0219 -0.6130
 3051TP3     H120972   0.106   4.144   1.021 -0.5282  1.0891 -0.1924
 3051TP3     H220973   0.119   4.104   1.166 -0.2093  1.1260 -0.2107
 3052TP3      O20974   3.143   3.141   2.118 -0.1960  0.2003  0.3334
 3052TP3     H120975   3.236   3.123   2.126  0.1566  1.2955 -1.0077
 3052TP3     H220976   3.102   3.055   2.110  0.8363 -0.2501 -0.2433
 3053TP3      O20977   2.520   5.268   0.549 -0.1024  0.3655  0.2369
 3053TP3     H120978   2.582   5.219   0.602 -1.4418 -1.3623  0.3056
 3053TP3     H220979   2.491   5.205   0.482 -2.4534  0.7798  0.7843
 3054TP3      O20980   2.946   4.183   0.953  0.4469 -0.0661  0.7908
 3054TP3     H120981   2.926   4.261   0.901 -0.5793  0.7239  2.2932
 3054TP3     H220982   3.037   4.195   0.981  1.5774 -1.2822 -2.0435
 3055TP3      O20983   2.728   3.444   7.613 -0.2008  0.2185 -0.2650
 3055TP3     H120984   2.800   3.498   7.577 -0.1080  1.3591  1.4970
 3055TP3     H220985   2.771   3.363   7.641 -0.6482 -1.8892 -4.8280
 3056TP3      O20986   3.455   2.839   7.548 -0.1635  0.1740  0.4995
 3056TP3     H120987   3.416   2.927   7.545  1.2945  0.8325 -0.5919
 3056TP3     H220988   3.526   2.846   7.611 -0.6250 -0.5061  1.1111
 3057TP3      O20989   2.303   0.373   0.984  0.0050  0.7941 -0.3143
 3057TP3     H120990   2.237   0.443   0.988 -0.8844  0.1165 -1.9319
 3057TP3     H220991   2.338   0.379   0.895 -0.1151 -0.8138 -0.4974
 3058TP3      O20992   3.002   4.096   8.829  0.3910  0.1582  0.0052
 3058TP3     H120993   2.955   4.175   8.855  0.3634 -0.2841  1.4108
 3058TP3     H220994   3.051   4.121   8.751 -1.0211  1.0368 -0.6197
 3059TP3      O20995   0.848   5.292   2.461  0.3408  0.5210 -0.7649
 3059TP3     H120996   0.835   5.341   2.380  0.8411 -0.0109 -1.1755
 3059TP3     H220997   0.801   5.342   2.527 -1.0099  0.3838 -1.5817
 3060TP3      O20998   3.407   3.713   1.835 -0.8610  0.0873 -0.5436
 3060TP3     H120999   3.317   3.707   1.802 -0.9442 -0.5021 -0.2371
 3060TP3     H221000   3.456   3.756   1.765 -1.3798  0.3989 -0.7208
 3061TP3      O21001   5.006   4.325   1.125  0.1904 -0.1778  0.1816
 3061TP3     H121002   5.073   4.359   1.066  1.0036 -0.3903  0.9471
 3061TP3     H221003   5.044   4.245   1.160 -1.0717 -1.0703 -0.4410
 3062TP3      O21004   1.077   4.666   9.342 -0.3412 -0.1693 -0.2987
 3062TP3     H121005   1.059   4.690   9.251 -1.3410 -0.7390 -0.2562
 3062TP3     H221006   1.004   4.610   9.367  0.6766 -1.2357  0.3928
 3063TP3      O21007   3.222   4.518   1.928  0.6905  0.4157 -0.0665
 3063TP3     H121008   3.243   4.433   1.966  0.8134  1.0825  1.3969
 3063TP3     H221009   3.306   4.548   1.892  0.7073  0.0515 -0.3437
 3064TP3      O21010   4.057   1.157   2.670 -0.6913 -0.0493  0.6768
 3064TP3     H121011   4.057   1.121   2.581  0.5542 -0.3382  0.7722
 3064TP3     H221012   4.147   1.189   2.682 -0.7373 -0.3896  1.9790
 3065TP3      O21013   2.605   4.444   0.778  0.6224 -0.2915  0.6452
 3065TP3     H121014   2.571   4.439   0.867  2.9514  0.3191  1.6551
 3065TP3     H221015   2.560   4.519   0.739 -1.2814 -1.2800  0.8658
 3066TP3      O21016   0.202   2.684   2.790  0.2503  0.2641 -0.1687
 3066TP3     H121017   0.218   2.699   2.883 -1.3792  1.3614 -0.0132
 3066TP3     H221018   0.289   2.685   2.750  1.1242 -1.8524  1.5150
 3067TP3      O21019   1.764   4.671   2.372  0.4068  0.3777  0.0419
 3067TP3     H121020   1.747   4.576   2.372  2.0554  0.0589  0.1959
 3067TP3     H221021   1.730   4.700   2.457  0.6704 -0.2333  0.3659
 3068TP3      O21022   0.121   1.045   2.870 -0.3158  0.1626  0.4169
 3068TP3     H121023   0.156   1.127   2.836  2.4059 -0.3176  1.7330
 3068TP3     H221024   0.183   0.978   2.839 -1.3311 -1.1174  1.0333
 3069TP3      O21025   1.081   0.625   8.488 -0.1731  0.1126 -0.3124
 3069TP3     H121026   1.087   0.633   8.583 -0.7669  2.4206 -0.3980
 3069TP3     H221027   1.005   0.679   8.464  0.5279  0.3632 -2.1649
 3070TP3      O21028   0.966   2.749   8.347  0.4865 -0.7117  0.0242
 3070TP3     H121029   0.984   2.782   8.259 -0.2518 -1.2662 -0.3460
 3070TP3     H221030   0.902   2.811   8.383  2.3851  0.7690  1.0198
 3071TP3      O21031   0.453   1.055   8.965  0.1467  0.1710 -0.1594
 3071TP3     H121032   0.391   0.985   8.981 -0.5764  0.2656 -2.2321
 3071TP3     H221033   0.423   1.127   9.021 -1.3890  0.0752 -0.8097
 3072TP3      O21034   2.652   4.920   9.359  0.2255  0.7201  0.2209
 3072TP3     H121035   2.667   4.923   9.453 -0.3042  1.2503  0.2944
 3072TP3     H221036   2.663   5.011   9.330 -1.4531  0.8999  0.0689
 3073TP3      O21037   3.598   0.234   8.190 -0.1672 -0.3755  0.4315
 3073TP3     H121038   3.570   0.215   8.100 -0.5349  0.9277  0.2506
 3073TP3     H221039   3.677   0.182   8.201  0.2274 -0.1035 -0.8745
 3074TP3      O21040   3.273   0.958   1.194  0.3419 -0.4783 -0.0938
 3074TP3     H121041   3.280   1.001   1.279  1.7952 -0.6752 -0.0829
 3074TP3     H221042   3.244   1.027   1.134  1.1260  0.1424  0.2212
 3075TP3      O21043   3.617   1.070   1.449 -0.5472 -0.0150 -0.1930
 3075TP3     H121044   3.529   1.039   1.473 -0.5841  0.8962  0.9368
 3075TP3     H221045   3.602   1.131   1.377 -0.7397 -0.5766 -0.6338
 3076TP3      O21046   3.867   4.300   1.261  0.8528  0.1014 -0.0016
 3076TP3     H121047   3.920   4.306   1.181 -0.4708  0.6890 -0.8626
 3076TP3     H221048   3.880   4.385   1.304 -0.2419  0.6927 -0.7902
 3077TP3      O21049   3.720   1.721   0.883 -0.4027 -0.7428 -0.0272
 3077TP3     H121050   3.758   1.704   0.796  0.2886 -0.5429  0.2331
 3077TP3     H221051   3.638   1.671   0.883 -1.1120  0.3547 -1.3079
 3078TP3      O21052   5.173   0.322   1.616  0.2038  0.3901  0.1977
 3078TP3     H121053   5.237   0.254   1.636 -1.0617 -0.2257  2.6383
 3078TP3     H221054   5.144   0.303   1.527  0.9809 -1.3523  0.2796
 3079TP3      O21055   3.465   1.768   9.005  0.1612  0.6417  0.2740
 3079TP3     H121056   3.452   1.785   9.098 -1.2771 -0.6597  0.3563
 3079TP3     H221057   3.449   1.674   8.995  1.0682  0.6043 -1.1750
 3080TP3      O21058   3.743   0.477   8.769 -0.0155  0.3912  0.0392
 3080TP3     H121059   3.776   0.554   8.724 -0.2366  0.5712  0.1815
 3080TP3     H221060   3.821   0.432   8.802  0.1536  0.1757 -0.6509
 3081TP3      O21061   3.693   1.094   8.020 -0.2565 -0.0038  0.2225
 3081TP3     H121062   3.763   1.102   7.955 -0.8682  0.4297 -0.3996
 3081TP3     H221063   3.726   1.141   8.096  0.4781 -0.5288  0.2412
 3082TP3      O21064   0.051   4.393   2.041 -0.4545  0.8303  0.0835
 3082TP3     H121065   0.027   4.474   1.996 -0.5547  1.4598  1.2204
 3082TP3     H221066   0.147   4.390   2.035 -0.5525  0.1602 -1.3862
 3083TP3      O21067   2.511   3.653   7.909  0.4986 -0.2666 -0.0674
 3083TP3     H121068   2.594   3.606   7.913 -0.4868 -2.0169  1.9753
 3083TP3     H221069   2.531   3.741   7.940  1.7148 -0.4159 -0.4005
 3084TP3      O21070   3.824   0.176   3.246 -0.3691  0.1166  0.1164
 3084TP3     H121071   3.864   0.089   3.257  0.6824  0.1058 -2.7974
 3084TP3     H221072   3.748   0.160   3.190 -0.2237  1.0455 -0.3620
 3085TP3      O21073   0.609   3.021   7.637 -0.5589 -0.0921  0.4257
 3085TP3     H121074   0.601   2.976   7.553 -0.5600 -0.4027  0.5935
 3085TP3     H221075   0.536   2.988   7.689 -0.4270 -0.0670  0.6275
 3086TP3      O21076   2.560   0.121   0.210 -0.0445  0.7013  0.2132
 3086TP3     H121077   2.655   0.114   0.216  0.2253  2.7041 -0.8824
 3086TP3     H221078   2.538   0.082   0.126  0.1127  2.1518 -0.5410
 3087TP3      O21079   4.596   4.581   9.811 -0.1488 -0.1569  0.4693
 3087TP3     H121080   4.640   4.615   9.733  1.6179  0.6731  1.7592
 3087TP3     H221081   4.603   4.486   9.804  1.2105 -0.0591  0.2486
 3088TP3      O21082   4.427   2.096   6.633  0.4135 -0.2245 -0.5653
 3088TP3     H121083   4.491   2.163   6.609  0.0603  0.8759  1.3343
 3088TP3     H221084   4.442   2.080   6.726 -1.3291 -0.7669 -0.3339
 3089TP3      O21085   3.704   0.487  10.066 -0.4370  0.2126  0.2408
 3089TP3     H121086   3.700   0.549   9.993 -0.3224  0.0183  0.0705
 3089TP3     H221087   3.763   0.419  10.037  0.1776  0.4940  0.8013
 3090TP3      O21088   1.939   0.600   1.930  0.1451  0.2760 -0.2371
 3090TP3     H121089   1.920   0.594   1.837  2.4053  0.8272 -0.7932
 3090TP3     H221090   1.999   0.674   1.938  1.2931 -0.7564  1.4050
 3091TP3      O21091   4.591   2.235   8.524  0.0700  0.3909  0.2004
 3091TP3     H121092   4.599   2.147   8.563  1.6769 -0.3790 -1.6567
 3091TP3     H221093   4.514   2.229   8.467  0.5069 -0.0233 -0.3598
 3092TP3      O21094   4.204   0.927   7.465  0.2345 -0.1595 -0.3165
 3092TP3     H121095   4.124   0.960   7.424 -0.2011 -1.2446 -0.3607
 3092TP3     H221096   4.209   0.836   7.438  0.6570 -0.5368  0.9602
 3093TP3      O21097   4.133   1.208   0.239 -0.3683  0.2486  0.1751
 3093TP3     H121098   4.127   1.295   0.199  2.1188  0.6567  0.5230
 3093TP3     H221099   4.227   1.190   0.242 -0.8514 -3.1503 -1.2627
 3094TP3      O21100   3.676   0.404   6.538 -0.2267  0.4176 -0.0152
 3094TP3     H121101   3.581   0.412   6.535 -0.5006 -1.9554  0.1412
 3094TP3     H221102   3.696   0.386   6.630 -0.0599 -2.4117 -0.5118
 3095TP3      O21103   3.650   4.303   1.412  0.2256 -0.0826 -0.2514
 3095TP3     H121104   3.722   4.301   1.349 -0.1570 -0.5950 -0.6821
 3095TP3     H221105   3.651   4.392   1.447  1.4101 -0.2390  0.1518
 3096TP3      O21106   2.859   4.888   2.780 -0.0388 -0.0150  0.1144
 3096TP3     H121107   2.857   4.797   2.810  0.4397  0.5279  1.9329
 3096TP3     H221108   2.788   4.930   2.829 -0.8724  0.4186 -1.4142
 3097TP3      O21109   4.224   4.626   2.708 -0.2505  0.5188 -0.4140
 3097TP3     H121110   4.223   4.578   2.791 -2.1414  1.4109  0.1431
 3097TP3     H221111   4.139   4.608   2.668  1.3106 -1.4358 -3.1625
 3098TP3      O21112   3.250   4.090   1.807 -0.6303 -0.2434  0.3312
 3098TP3     H121113   3.164   4.053   1.791 -1.4828  2.2995 -1.5840
 3098TP3     H221114   3.278   4.124   1.722  0.8624  1.7347  1.5200
 3099TP3      O21115   4.423   0.145   2.271  0.0478 -0.6345 -0.3922
 3099TP3     H121116   4.439   0.127   2.364  0.2726 -0.2590 -0.3518
 3099TP3     H221117   4.484   0.216   2.250  1.0453 -1.6991 -1.2055
 3100TP3      O21118   1.314   3.118   8.304  0.1968 -0.0280  0.0580
 3100TP3     H121119   1.393   3.072   8.331  0.2832  0.6336  1.0153
 3100TP3     H221120   1.295   3.177   8.377 -1.8049 -0.9430  0.3604
 3101TP3      O21121   5.129   3.536   1.286 -0.1671  0.7277 -0.1532
 3101TP3     H121122   5.038   3.519   1.307 -0.0318  0.8003  0.5213
 3101TP3     H221123   5.177   3.463   1.326  0.1836  1.3568  0.5992
 3102TP3      O21124   1.114   4.117   9.123 -0.3088 -0.2095  0.4058
 3102TP3     H121125   1.097   4.206   9.092 -1.8539 -0.1643  1.3051
 3102TP3     H221126   1.149   4.129   9.211 -0.2638 -0.4885  0.4268
 3103TP3      O21127   0.967   2.520   2.370  0.2036  0.3116  0.4716
 3103TP3     H121128   0.965   2.584   2.299 -0.0594 -0.9692 -0.7307
 3103TP3     H221129   1.059   2.518   2.398  0.6456 -0.2247 -0.8906
 3104TP3      O21130   0.204   1.438   9.983 -0.3596  0.4053 -0.5629
 3104TP3     H121131   0.218   1.530   9.962 -0.5086  0.7873  0.8484
 3104TP3     H221132   0.290   1.406  10.009 -0.6483  0.7638  1.0027
 3105TP3      O21133   1.539   3.699   1.995  0.3777  0.0172 -0.2834
 3105TP3     H121134   1.530   3.725   2.087  0.7134 -0.0276 -0.2369
 3105TP3     H221135   1.459   3.732   1.953  0.2636  0.1151  0.0060
 3106TP3      O21136   4.845   1.754   9.019 -0.0316  0.3002 -0.1666
 3106TP3     H121137   4.828   1.737   8.927  1.1141 -1.6477 -0.0780
 3106TP3     H221138   4.928   1.711   9.037 -0.1804  0.6903  1.7761
 3107TP3      O21139   3.424   2.673   9.124 -0.4895  0.4292 -0.5821
 3107TP3     H121140   3.457   2.749   9.173  1.0152 -0.5352 -0.0509
 3107TP3     H221141   3.329   2.687   9.120 -0.3047  2.0818 -0.0671
 3108TP3      O21142   4.974   3.605   1.853 -0.0601 -0.0635 -0.1412
 3108TP3     H121143   5.031   3.672   1.815 -1.9462  1.6762 -0.1073
 3108TP3     H221144   5.032   3.531   1.871  1.7006  0.6568 -2.3616
 3109TP3      O21145   4.506   4.032   2.626  0.4563 -0.0662 -0.1826
 3109TP3     H121146   4.466   4.011   2.710 -0.8150  2.0050 -0.2063
 3109TP3     H221147   4.596   4.001   2.634 -0.2414 -1.9083  1.0825
 3110TP3      O21148   1.327   1.446   8.941  0.5339  0.5727 -0.1276
 3110TP3     H121149   1.333   1.542   8.942 -0.8983  0.6804  0.6940
 3110TP3     H221150   1.415   1.417   8.916  0.7732  2.1090 -1.1944
 3111TP3      O21151   0.745   3.755   9.776 -0.0708 -0.2295  0.4612
 3111TP3     H121152   0.791   3.742   9.693 -1.4501 -3.5375  0.0594
 3111TP3     H221153   0.654   3.770   9.751 -0.4091 -0.7636  1.3154
 3112TP3      O21154   4.086   1.854   9.356 -0.1773 -0.1649 -0.6048
 3112TP3     H121155   3.998   1.888   9.341  0.1144  2.2623  2.2965
 3112TP3     H221156   4.139   1.891   9.286 -0.4957  3.0230  0.6990
 3113TP3      O21157   1.080   3.894   8.838 -0.0987  0.3249  0.4844
 3113TP3     H121158   1.078   3.899   8.934  0.0175 -0.4973  0.5318
 3113TP3     H221159   1.026   3.818   8.817  0.3346  0.1723 -0.0829
 3114TP3      O21160   4.319   4.239   3.091  0.3720 -0.5785  0.3851
 3114TP3     H121161   4.258   4.301   3.130  1.8570  1.0181  0.2877
 3114TP3     H221162   4.327   4.267   3.000  1.4987 -0.5192  0.4833
 3115TP3      O21163   4.201   0.909   9.343  0.2908 -0.2104  0.0369
 3115TP3     H121164   4.257   0.889   9.268  0.9462  1.0631  0.1626
 3115TP3     H221165   4.119   0.861   9.326  1.1367 -1.5081 -0.5009
 3116TP3      O21166   4.020   2.942   1.538  0.5157 -0.2651 -0.5364
 3116TP3     H121167   3.965   2.938   1.616  3.7092 -0.8160  1.8755
 3116TP3     H221168   3.959   2.928   1.466 -2.5136 -0.5294  1.8525
 3117TP3      O21169   3.453   2.729   8.143 -0.0683 -0.5690 -0.3559
 3117TP3     H121170   3.419   2.719   8.054 -1.4128 -2.0007  0.2715
 3117TP3     H221171   3.502   2.811   8.140  0.2528 -0.7644 -2.5059
 3118TP3      O21172   2.589   3.150   9.959 -0.0564  0.0412 -0.1688
 3118TP3     H121173   2.644   3.166   9.882 -1.3032  1.7569 -0.7754
 3118TP3     H221174   2.530   3.225   9.962 -1.1415 -0.8133  1.5277
 3119TP3      O21175   1.596   1.993   9.030  0.1025  0.1344  0.7723
 3119TP3     H121176   1.604   2.021   8.939  0.1371 -0.6969  0.5082
 3119TP3     H221177   1.671   1.935   9.044  0.2612  0.4809  1.4230
 3120TP3      O21178   2.451   5.213   1.998  0.4086 -0.1422 -0.1517
 3120TP3     H121179   2.468   5.221   1.904  2.5724  0.9389  0.2714
 3120TP3     H221180   2.372   5.160   2.003  0.0828 -0.0159 -2.5854
 3121TP3      O21181   1.508   0.357   2.995  0.5344 -0.4490 -0.7363
 3121TP3     H121182   1.468   0.435   2.956 -0.8651 -0.3526  0.8004
 3121TP3     H221183   1.601   0.365   2.973  0.2746  1.1541 -1.4214
 3122TP3      O21184   2.977   1.418   2.203  0.2604  0.2274 -0.4439
 3122TP3     H121185   3.028   1.480   2.151 -1.6178  0.4683 -2.1097
 3122TP3     H221186   2.995   1.333   2.163  1.8307 -0.1910  1.0339
 3123TP3      O21187   3.280   4.457   7.752 -0.3442  0.3888  0.5200
 3123TP3     H121188   3.320   4.539   7.782  0.5970  0.1198  0.0211
 3123TP3     H221189   3.279   4.464   7.657  1.5203 -0.9726  0.3638
 3124TP3      O21190   2.540   1.088   0.374 -0.0074 -0.2486  0.1400
 3124TP3     H121191   2.477   1.021   0.348 -1.0606  0.6131  0.3907
 3124TP3     H221192   2.596   1.045   0.439 -1.3195 -0.5917  1.0688
 3125TP3      O21193   0.928   4.778   7.634 -0.1132 -0.0456  0.0498
 3125TP3     H121194   0.928   4.721   7.711 -2.5465 -1.8327 -1.1636
 3125TP3     H221195   0.869   4.736   7.572  2.2588  0.9200 -3.1688
 3126TP3      O21196   4.759   2.193   0.795 -0.5114  0.1651 -0.4372
 3126TP3     H121197   4.728   2.279   0.825 -1.0384 -0.7799  1.9672
 3126TP3     H221198   4.816   2.163   0.866 -0.1009 -1.3496 -1.3764
 3127TP3      O21199   1.363   1.055   7.769 -0.2779 -0.6149 -0.7301
 3127TP3     H121200   1.366   0.999   7.847  0.2992 -1.9105 -1.6357
 3127TP3     H221201   1.349   1.143   7.803 -3.7320 -1.5342  0.6483
 3128TP3      O21202   3.916   0.116   0.230 -0.3013 -0.6365 -0.5117
 3128TP3     H121203   3.891   0.034   0.188 -0.5774 -0.6812 -0.2654
 3128TP3     H221204   3.847   0.131   0.295 -0.6789  0.1949 -1.0889
 3129TP3      O21205   1.627   1.429   8.572  0.2793 -0.0059  0.0249
 3129TP3     H121206   1.584   1.355   8.616  0.8936 -0.4431 -0.0922
 3129TP3     H221207   1.721   1.411   8.582  0.4347  0.8121  0.0753
 3130TP3      O21208   1.757   3.347   9.777 -0.2293  0.4499  0.2635
 3130TP3     H121209   1.735   3.317   9.865 -0.6786 -0.0241 -0.0090
 3130TP3     H221210   1.753   3.443   9.784 -0.6790  0.4074  0.6522
 3131TP3      O21211   1.947   0.098   7.851  0.1355  0.4814 -0.3744
 3131TP3     H121212   1.982   0.010   7.868 -1.4573 -0.4644 -1.7083
 3131TP3     H221213   1.923   0.131   7.938 -0.0476 -0.7701  0.0767
 3132TP3      O21214   2.906   4.348   8.948 -0.3274 -0.3159  0.0552
 3132TP3     H121215   2.893   4.394   8.865 -1.3776  0.1720  0.4768
 3132TP3     H221216   2.986   4.387   8.985  0.1874 -0.5840 -0.7411
 3133TP3      O21217   2.624   5.261   8.720 -0.3270  0.2732 -0.3513
 3133TP3     H121218   2.606   5.177   8.678 -0.4474 -0.4057  1.0191
 3133TP3     H221219   2.651   5.318   8.648  0.6455 -1.1816 -1.1897
 3134TP3      O21220   0.481   3.798   1.236  0.2236 -0.1587 -0.3182
 3134TP3     H121221   0.516   3.854   1.305  1.1872  0.4448 -1.2771
 3134TP3     H221222   0.459   3.857   1.165 -0.2070 -0.8306 -0.7557
 3135TP3      O21223   3.532   3.685  10.048 -0.1052 -0.1596 -0.1785
 3135TP3     H121224   3.576   3.713   9.968  0.5372 -1.8522 -0.4554
 3135TP3     H221225   3.469   3.619  10.020 -0.3476 -0.2945  0.6371
 3136TP3      O21226   1.475   2.279   8.251 -0.3234  0.1668  0.8311
 3136TP3     H121227   1.464   2.186   8.234  0.5675  0.4568 -1.6322
 3136TP3     H221228   1.523   2.312   8.176 -1.1118  2.7389  1.3570
 3137TP3      O21229   3.648   5.184   8.132  0.0457  0.1356  1.0513
 3137TP3     H121230   3.700   5.192   8.052  0.7751 -1.0892  1.3649
 3137TP3     H221231   3.557   5.183   8.102  0.2815  0.5169  0.3173
 3138TP3      O21232   5.267   2.638   8.697  0.2285  0.1776  0.2751
 3138TP3     H121233   5.255   2.565   8.757 -2.6963  0.5868  0.3147
 3138TP3     H221234   5.261   2.598   8.610  0.7328  0.1272  0.2545
 3139TP3      O21235   3.357   3.726   0.470 -0.3554 -0.4843  0.0137
 3139TP3     H121236   3.397   3.668   0.405  0.4856  0.4952 -0.3734
 3139TP3     H221237   3.267   3.695   0.477  0.0221 -1.7046 -0.3272
 3140TP3      O21238   3.546   4.440   2.945  0.0036  0.1687  0.5986
 3140TP3     H121239   3.577   4.375   2.882  2.1270  1.1373  0.5143
 3140TP3     H221240   3.518   4.514   2.891  0.6469  0.5244  0.7374
 3141TP3      O21241   2.224   1.619   0.097 -0.1163  0.2469 -0.4337
 3141TP3     H121242   2.275   1.554   0.146 -0.0069  1.5479  1.2766
 3141TP3     H221243   2.286   1.690   0.079 -0.9013  1.1231  0.2305
 3142TP3      O21244   2.026   3.421   9.527 -0.0181  0.3881  0.5174
 3142TP3     H121245   2.057   3.399   9.439 -1.3169 -0.3846  0.2280
 3142TP3     H221246   1.931   3.428   9.518 -0.2523 -0.4279  1.9987
 3143TP3      O21247   2.059   1.218   8.302  0.4145 -0.2677 -0.6402
 3143TP3     H121248   2.076   1.147   8.240 -0.6504 -0.5736 -0.6011
 3143TP3     H221249   1.973   1.252   8.276  0.8211  0.8979 -0.5473
 3144TP3      O21250   4.870   5.091   8.616  0.2363  0.2033 -0.1146
 3144TP3     H121251   4.939   5.046   8.567 -0.5116 -0.8464 -0.2282
 3144TP3     H221252   4.910   5.174   8.644  1.4103 -0.2208 -0.5063
 3145TP3      O21253   3.037   0.817   9.649  0.3022 -0.1279 -0.5749
 3145TP3     H121254   2.967   0.770   9.603 -0.4055  0.0766  0.2615
 3145TP3     H221255   3.104   0.830   9.583 -0.1138 -1.0224 -1.2037
 3146TP3      O21256   1.224   4.351   9.762  0.2164 -0.4511 -0.5857
 3146TP3     H121257   1.279   4.389   9.831  0.6069  0.4796 -1.3877
 3146TP3     H221258   1.136   4.382   9.781  0.4739  0.5776 -1.0269
 3147TP3      O21259   2.808   2.112   0.020 -0.6146 -0.0664  0.0639
 3147TP3     H121260   2.827   2.146  -0.068 -1.6246  2.0687  0.5938
 3147TP3     H221261   2.746   2.040   0.005 -0.0428 -0.3627 -1.0064
 3148TP3      O21262   1.048   1.700   7.160 -0.1583 -0.0721 -0.4491
 3148TP3     H121263   1.043   1.651   7.242  0.6556 -0.0968 -0.4038
 3148TP3     H221264   1.136   1.680   7.126  0.7585  2.4355  0.2574
 3149TP3      O21265   2.253   0.076   0.769  0.5065 -0.4198 -0.0836
 3149TP3     H121266   2.276   0.118   0.686  1.3296  0.1522  0.4229
 3149TP3     H221267   2.176   0.022   0.748  1.0021 -0.6752 -1.3255
 3150TP3      O21268   1.883   4.001   8.601  0.2991  0.3531 -0.5223
 3150TP3     H121269   1.908   4.081   8.647  0.0818  0.0477  0.1443
 3150TP3     H221270   1.921   4.010   8.514 -0.5406  1.6165 -0.7733
 3151TP3      O21271   2.641   2.398   1.491  0.6236 -0.5727  0.0590
 3151TP3     H121272   2.698   2.341   1.439 -1.7224 -1.9427 -1.1755
 3151TP3     H221273   2.617   2.344   1.566  0.4785 -0.2178  0.2685
 3152TP3      O21274   3.852   0.891   7.104 -0.1563 -0.0460 -0.4824
 3152TP3     H121275   3.820   0.848   7.183  0.8342 -0.7308 -0.4207
 3152TP3     H221276   3.784   0.954   7.081 -0.0439  0.8586  1.4554
 3153TP3      O21277   0.337   0.533   7.506 -0.3343  0.3591  0.0801
 3153TP3     H121278   0.403   0.535   7.437 -0.9785 -0.1092 -0.5721
 3153TP3     H221279   0.385   0.510   7.585  0.2240 -0.4443 -0.4712
 3154TP3      O21280   0.592   3.797   0.345  0.4102  0.2685  0.3667
 3154TP3     H121281   0.637   3.881   0.352 -0.5095  0.6502  2.3542
 3154TP3     H221282   0.653   3.733   0.379  1.0427  0.1140 -0.9814
 3155TP3      O21283   4.967   2.249   8.665  0.2170  0.6212  0.0045
 3155TP3     H121284   4.986   2.273   8.755  0.2450  0.9731 -0.0967
 3155TP3     H221285   4.921   2.165   8.672  1.7824 -0.2708  0.2641
 3156TP3      O21286   3.435   1.853   7.425 -0.2109  0.1489 -0.2857
 3156TP3     H121287   3.433   1.882   7.334  1.1694  0.5584 -0.2055
 3156TP3     H221288   3.504   1.787   7.428 -0.8914 -0.5604  0.2846
 3157TP3      O21289   4.176   4.005   9.800  0.4685  0.5015 -0.2942
 3157TP3     H121290   4.085   4.014   9.830  0.8111 -0.2570  1.0386
 3157TP3     H221291   4.222   4.076   9.844  0.7211  0.2226 -0.1087
 3158TP3      O21292   4.965   3.016   6.920 -1.1298 -0.0796 -0.2820
 3158TP3     H121293   4.875   2.983   6.915 -1.2006  0.0418  0.1290
 3158TP3     H221294   5.020   2.938   6.920 -1.3442 -0.2906  1.9168
 3159TP3      O21295   2.398   2.477   1.374 -0.3083 -0.5121 -0.0688
 3159TP3     H121296   2.387   2.572   1.370 -1.4735 -0.4611  2.5565
 3159TP3     H221297   2.473   2.464   1.432  0.2543 -1.2157 -0.9268
 3160TP3      O21298   2.707   4.232   0.428 -0.2154 -0.3721  0.5911
 3160TP3     H121299   2.780   4.292   0.413 -1.1100  0.4597 -0.6821
 3160TP3     H221300   2.714   4.208   0.521  1.1290  0.3929  0.7110
 3161TP3      O21301   1.548   5.064   1.924 -0.1259 -0.3164  0.2225
 3161TP3     H121302   1.575   5.094   2.011  1.1110  0.5977 -0.4545
 3161TP3     H221303   1.472   5.118   1.903  0.9370  1.0539 -0.1865
 3162TP3      O21304   5.164   4.581   1.582 -0.0274 -0.0363 -0.3238
 3162TP3     H121305   5.191   4.668   1.611  1.7234 -0.5534 -0.2748
 3162TP3     H221306   5.097   4.597   1.516  0.2185  1.3479 -0.2684
 3163TP3      O21307   1.943   0.002   8.618  0.7353  0.1136  0.1601
 3163TP3     H121308   1.904  -0.045   8.691 -0.2820 -0.4712 -0.7242
 3163TP3     H221309   2.035  -0.022   8.619  0.2434 -1.9632 -0.2907
 3164TP3      O21310   3.521   3.577   2.303  0.0356 -0.1133 -0.1154
 3164TP3     H121311   3.561   3.543   2.383  2.4054  2.7065  0.0803
 3164TP3     H221312   3.470   3.653   2.332  1.1062  1.0900 -1.2156
 3165TP3      O21313   2.685   4.129   8.657 -0.0175  0.1085 -0.7423
 3165TP3     H121314   2.659   4.103   8.745 -2.1040 -2.3025 -1.9296
 3165TP3     H221315   2.664   4.222   8.651 -1.5104 -0.1031  0.7626
 3166TP3      O21316   2.661   3.454   8.964 -0.2186 -0.3980  0.0245
 3166TP3     H121317   2.627   3.380   8.912  3.8865 -1.6670 -1.1995
 3166TP3     H221318   2.666   3.526   8.901  0.8387 -0.7271 -0.2949
 3167TP3      O21319   4.184   3.212   3.290  0.2438 -0.2346 -0.1029
 3167TP3     H121320   4.232   3.129   3.286 -0.0480 -0.4392  0.5788
 3167TP3     H221321   4.114   3.196   3.353 -0.4092  0.2245 -0.6914
 3168TP3      O21322   2.552   3.958   0.824 -0.8233  0.2540 -0.0233
 3168TP3     H121323   2.512   3.885   0.776 -0.1639  0.3872 -0.8016
 3168TP3     H221324   2.504   3.962   0.906 -2.4931  0.4770 -0.9700
 3169TP3      O21325   0.149   0.361   8.876 -0.0280 -0.8543  0.0861
 3169TP3     H121326   0.169   0.383   8.967  0.3576  0.7329 -0.3440
 3169TP3     H221327   0.206   0.287   8.856  2.6271  1.0518  0.0855
 3170TP3      O21328   4.675   0.162   9.306  0.1771  0.0104 -0.3604
 3170TP3     H121329   4.760   0.206   9.309 -0.3669  1.0599 -0.1681
 3170TP3     H221330   4.615   0.220   9.353 -0.5980 -0.8568 -0.2270
 3171TP3      O21331   4.553   0.106   1.523  0.5638 -0.0081  0.2540
 3171TP3     H121332   4.547   0.017   1.487  0.6900 -0.4009  1.1871
 3171TP3     H221333   4.471   0.148   1.495  0.2751 -0.5748  0.2329
 3172TP3      O21334   3.395   2.790   1.626  0.4657 -0.0205 -0.5527
 3172TP3     H121335   3.455   2.725   1.590  0.9120  0.5499 -0.8606
 3172TP3     H221336   3.432   2.812   1.712 -0.2752 -0.9484  0.0207
 3173TP3      O21337   0.261   1.281   7.498  0.2788  0.3478  0.9522
 3173TP3     H121338   0.197   1.213   7.518  0.4691 -0.3653 -0.6839
 3173TP3     H221339   0.213   1.347   7.448  0.9298 -0.5626 -0.9564
 3174TP3      O21340   3.546   3.008   1.312  0.2094 -0.2545 -0.4971
 3174TP3     H121341   3.594   2.969   1.384  0.3865 -0.2786 -0.6258
 3174TP3     H221342   3.548   2.942   1.243  1.3253  0.3241 -1.0536
 3175TP3      O21343   3.706   2.920   9.055  0.0543  0.2717 -0.0798
 3175TP3     H121344   3.669   2.914   9.143 -1.7871 -4.9022 -0.8418
 3175TP3     H221345   3.630   2.930   8.998  0.7571 -0.7061 -1.2316
 3176TP3      O21346   3.409   0.420   1.169 -0.7825  0.5153  0.4793
 3176TP3     H121347   3.352   0.434   1.093  0.3737  0.2813 -0.4691
 3176TP3     H221348   3.497   0.410   1.131 -0.5319 -2.4887  1.5580
 3177TP3      O21349   0.045   2.914   1.691 -0.1903  0.0524 -0.2906
 3177TP3     H121350   0.088   2.985   1.738  1.0450 -1.2778  0.6759
 3177TP3     H221351   0.100   2.837   1.708 -1.5427 -1.1695 -1.1968
 3178TP3      O21352   3.533   4.616   0.867 -0.2546 -0.0315 -0.4823
 3178TP3     H121353   3.603   4.588   0.808  0.0659 -1.9862  0.7250
 3178TP3     H221354   3.578   4.636   0.949 -0.9630  0.1467 -0.1273
 3179TP3      O21355   3.082   3.937   8.576  0.0863  0.0999  0.4602
 3179TP3     H121356   3.015   4.005   8.565  0.1526  0.4017  1.7876
 3179TP3     H221357   3.095   3.930   8.670  0.7778 -1.0963  0.3048
 3180TP3      O21358   4.739   2.524   0.327  0.5419 -0.4958 -0.0747
 3180TP3     H121359   4.826   2.553   0.358  0.4828 -0.8408  0.4377
 3180TP3     H221360   4.686   2.523   0.407 -0.5773  1.9127 -0.7093
 3181TP3      O21361   4.879   4.843   1.229 -0.0214  0.8073  0.0867
 3181TP3     H121362   4.907   4.898   1.155  1.1314  1.2921  0.8577
 3181TP3     H221363   4.904   4.892   1.307 -3.9625  1.8002  0.9629
 3182TP3      O21364   0.672   1.424   1.586  0.7069 -0.1810 -0.2947
 3182TP3     H121365   0.633   1.347   1.546  0.9683 -0.6854  0.4143
 3182TP3     H221366   0.667   1.408   1.680 -0.0125  1.0393 -0.1001
 3183TP3      O21367   1.884   3.452   9.209 -0.1593 -0.2493  0.3802
 3183TP3     H121368   1.798   3.441   9.168  0.3083  0.0347 -0.7121
 3183TP3     H221369   1.937   3.382   9.172  0.1811 -0.2065  0.7820
 3184TP3      O21370   0.821   1.104   8.299 -0.1985 -0.3686 -0.6050
 3184TP3     H121371   0.734   1.112   8.338  0.2081 -3.0406  1.1094
 3184TP3     H221372   0.807   1.052   8.219 -0.3777  0.8824 -1.4178
 3185TP3      O21373   1.044   1.335   0.281 -0.0306 -0.2932  0.3309
 3185TP3     H121374   0.985   1.377   0.343 -1.0628  2.3143 -2.1892
 3185TP3     H221375   1.132   1.355   0.313 -0.5303  1.0518  0.9279
 3186TP3      O21376   2.423   3.130   2.722  0.1709 -0.0215 -0.3180
 3186TP3     H121377   2.392   3.154   2.809 -2.4180 -1.0106 -0.8785
 3186TP3     H221378   2.451   3.039   2.731  1.1519  0.2652 -0.2781
 3187TP3      O21379   3.943   4.656   9.595 -0.1239  0.5779  0.6578
 3187TP3     H121380   3.912   4.651   9.505 -1.8361  1.1872  1.1779
 3187TP3     H221381   3.866   4.637   9.648  1.2477 -1.7077  2.0209
 3188TP3      O21382   3.395   1.160   9.292  0.3035 -0.3126  0.5215
 3188TP3     H121383   3.349   1.110   9.225 -0.7310  1.5741 -0.2456
 3188TP3     H221384   3.419   1.242   9.248  1.3693  0.1582  1.9102
 3189TP3      O21385   0.948   2.763   0.369  0.5211  0.1560  0.2921
 3189TP3     H121386   0.946   2.805   0.283  0.4290  2.3519  1.2896
 3189TP3     H221387   0.890   2.688   0.360 -1.1716  1.5121 -1.0192
 3190TP3      O21388   0.107   0.215   7.509  0.2383  0.4216  0.3638
 3190TP3     H121389   0.088   0.307   7.493  1.7726  0.7952  0.5122
 3190TP3     H221390   0.024   0.170   7.494 -0.2632  1.6790 -0.8921
 3191TP3      O21391   3.125   1.799   2.138 -0.1007 -0.0410  0.2282
 3191TP3     H121392   3.166   1.828   2.220  0.0691 -0.7515  0.3979
 3191TP3     H221393   3.053   1.861   2.125  0.7166  0.9326  0.1819
 3192TP3      O21394   3.071   1.107   0.846  0.4687 -0.2528  0.0379
 3192TP3     H121395   3.098   1.015   0.839  1.8455  0.2592 -2.4715
 3192TP3     H221396   3.047   1.132   0.757 -0.1366  1.7737  0.7151
 3193TP3      O21397   0.108   5.163   0.927 -0.3588 -0.7541 -0.4860
 3193TP3     H121398   0.146   5.173   0.840  1.1350  0.9881  0.3139
 3193TP3     H221399   0.182   5.144   0.984 -1.2001 -1.0073  0.5503
 3194TP3      O21400   1.719   5.071   2.552  0.2854 -0.1111 -0.4665
 3194TP3     H121401   1.660   5.072   2.628  0.3080  1.4725 -0.4400
 3194TP3     H221402   1.660   5.081   2.477  0.2974 -1.2978 -0.6458
 3195TP3      O21403   2.141   3.997   0.122 -0.3590 -0.7196  1.2632
 3195TP3     H121404   2.159   4.082   0.082 -0.0376 -0.7581  1.3204
 3195TP3     H221405   2.073   3.958   0.067 -0.9098 -0.1961  1.5538
 3196TP3      O21406   3.634   4.564   7.427 -0.2589  0.7152 -0.1950
 3196TP3     H121407   3.697   4.629   7.395  0.0067  0.5001 -0.1175
 3196TP3     H221408   3.627   4.500   7.356  1.2314 -0.4027  0.5866
 3197TP3      O21409   4.675   3.219   1.167  0.1914  0.5745 -0.2330
 3197TP3     H121410   4.770   3.205   1.159  0.0964 -0.6125  0.6113
 3197TP3     H221411   4.667   3.311   1.194  1.2662 -0.0359  2.4502
 3198TP3      O21412   0.960   5.037   0.229  0.2559  0.1188  0.3856
 3198TP3     H121413   0.940   5.084   0.148 -0.7152  3.0453  2.1660
 3198TP3     H221414   1.056   5.038   0.235  0.2745  1.5967  0.1576
 3199TP3      O21415   0.455   3.577   0.215 -0.4930  0.3861 -0.2963
 3199TP3     H121416   0.448   3.557   0.308 -0.2330  1.5564 -0.0036
 3199TP3     H221417   0.508   3.657   0.212  0.5559 -0.3154 -1.5308
 3200TP3      O21418   4.748   2.625   1.294 -0.2546  0.4011 -0.0329
 3200TP3     H121419   4.705   2.711   1.300 -1.3846  0.0309 -1.9548
 3200TP3     H221420   4.841   2.644   1.303 -0.2950  2.1508 -2.3959
 3201TP3      O21421   4.852   0.990   2.259  0.5356 -0.1712  0.2047
 3201TP3     H121422   4.790   1.028   2.196 -0.1386  1.0447  1.5588
 3201TP3     H221423   4.819   0.901   2.274 -1.0690  0.5234  1.0719
 3202TP3      O21424   3.768   1.320   0.650  0.5746 -0.1677  0.5610
 3202TP3     H121425   3.821   1.297   0.573  1.2083 -0.6612  1.1351
 3202TP3     H221426   3.683   1.280   0.632 -0.0802  1.6977 -0.9608
 3203TP3      O21427   1.621   3.726   7.239 -0.4604  0.1330 -0.1242
 3203TP3     H121428   1.604   3.645   7.190 -1.2189 -0.5091  1.1650
 3203TP3     H221429   1.550   3.731   7.302 -0.0274  1.4545  0.2783
 3204TP3      O21430   0.372   2.442   7.668 -0.0844 -0.3147 -0.1715
 3204TP3     H121431   0.307   2.395   7.615 -0.7908  1.4332 -0.9202
 3204TP3     H221432   0.404   2.511   7.610 -0.1955  1.0752  1.3822
 3205TP3      O21433   3.969   4.965  10.082 -0.4526 -0.1732  0.1765
 3205TP3     H121434   3.895   4.979  10.022 -0.3030  2.0815  0.4333
 3205TP3     H221435   3.928   4.947  10.166 -0.6952 -0.1784  0.0588
 3206TP3      O21436   2.155   0.574   1.710 -0.7395  0.0309  0.2326
 3206TP3     H121437   2.209   0.565   1.631  0.9780  3.0271  0.9152
 3206TP3     H221438   2.169   0.493   1.759 -0.5836 -1.1949 -1.7553
 3207TP3      O21439   5.189   2.029   9.842  0.1601  0.0869 -0.0814
 3207TP3     H121440   5.138   2.089   9.896 -1.4623 -2.4267  1.3916
 3207TP3     H221441   5.280   2.047   9.866 -0.4071  0.4777  1.9889
 3208TP3      O21442   3.500   3.130   9.636  0.6608 -0.0842 -0.1466
 3208TP3     H121443   3.562   3.203   9.643 -1.1049  1.6053 -0.9162
 3208TP3     H221444   3.550   3.053   9.662  2.3869  1.5080  1.6437
 3209TP3      O21445   4.944   5.181   2.312  0.8110 -0.6639  0.1604
 3209TP3     H121446   4.870   5.194   2.372  0.6222 -0.2127 -0.1640
 3209TP3     H221447   5.015   5.232   2.351  0.9005 -0.9405  0.3682
 3210TP3      O21448   2.591   0.669   8.889  0.1473  0.4398  0.2031
 3210TP3     H121449   2.655   0.622   8.835 -0.2492  0.6553 -0.4612
 3210TP3     H221450   2.621   0.655   8.979  0.6652 -0.1472 -0.0530
 3211TP3      O21451   0.723   1.033   9.974  0.3012 -0.1255  0.6617
 3211TP3     H121452   0.814   1.061   9.966 -0.4071  2.5670  1.0251
 3211TP3     H221453   0.693   1.072  10.056 -1.4883  0.0699 -0.0307
 3212TP3      O21454   3.575   4.861   6.840 -0.1058  0.0694  0.2135
 3212TP3     H121455   3.537   4.773   6.833  0.4559 -0.1223 -0.5674
 3212TP3     H221456   3.549   4.904   6.759 -0.3449  0.6195  0.5760
 3213TP3      O21457   2.039   4.660   2.411  0.6143 -0.3388 -0.5519
 3213TP3     H121458   2.031   4.565   2.416  0.0719 -0.2439  2.0818
 3213TP3     H221459   1.952   4.690   2.389  0.1490 -0.4014  1.0704
 3214TP3      O21460   4.182   4.685   1.114 -0.2622  0.3109 -0.5645
 3214TP3     H121461   4.249   4.617   1.107  0.9119  1.3993 -0.2722
 3214TP3     H221462   4.231   4.765   1.133 -1.6776  1.0901 -0.0482
 3215TP3      O21463   4.244   3.178   8.600 -0.5177 -0.4274  0.0240
 3215TP3     H121464   4.331   3.165   8.562 -0.9142 -0.9513 -0.7291
 3215TP3     H221465   4.218   3.265   8.571  0.1127  0.1068  0.9970
 3216TP3      O21466   0.403   0.902   9.756 -0.1940 -0.2391  0.1876
 3216TP3     H121467   0.403   0.825   9.698 -0.5674 -0.3703  0.3602
 3216TP3     H221468   0.355   0.873   9.833  0.9023 -0.2820  0.8704
 3217TP3      O21469   2.793   1.355   2.690  0.3074 -0.6956 -0.1017
 3217TP3     H121470   2.734   1.430   2.679  0.0796 -0.7075  0.9515
 3217TP3     H221471   2.857   1.385   2.754  0.3022 -1.3586  0.2190
 3218TP3      O21472   2.873   1.359   0.316 -0.1455  0.0667  0.9527
 3218TP3     H121473   2.942   1.394   0.372 -0.8780  1.5461  0.9645
 3218TP3     H221474   2.837   1.435   0.271 -0.0404 -0.9881 -1.0475
 3219TP3      O21475   0.756   3.024   9.332 -0.2569 -0.8814 -0.2240
 3219TP3     H121476   0.694   2.985   9.271  0.1401  0.0768 -1.2770
 3219TP3     H221477   0.702   3.072   9.395 -0.6877 -2.2118  0.4671
 3220TP3      O21478   2.429   5.127   3.193 -0.5026  0.8865 -0.4150
 3220TP3     H121479   2.385   5.083   3.121  0.7658  2.1326 -2.0477
 3220TP3     H221480   2.449   5.058   3.256 -2.3344 -0.1000 -0.8850
 3221TP3      O21481   3.977   4.857   0.777  0.1144 -0.0050  0.3900
 3221TP3     H121482   3.956   4.936   0.728  1.8450 -0.5304 -1.3196
 3221TP3     H221483   3.993   4.888   0.866  1.1050  1.6703 -0.3090
 3222TP3      O21484   0.392   0.949   0.150 -0.4423  0.2182  0.1882
 3222TP3     H121485   0.414   0.861   0.120  1.2638  0.1795  1.4064
 3222TP3     H221486   0.395   1.003   0.071  0.8042 -0.4319 -0.2327
 3223TP3      O21487   2.881   4.625   0.099 -0.4076  0.2435 -0.0079
 3223TP3     H121488   2.831   4.596   0.023 -0.4601 -0.3876  0.2579
 3223TP3     H221489   2.824   4.603   0.174 -0.5236  1.2019  0.1883
 3224TP3      O21490   0.246   0.014   0.724 -0.2748  0.1688 -0.0669
 3224TP3     H121491   0.241   0.109   0.722 -0.0913  0.1653 -1.2592
 3224TP3     H221492   0.330  -0.006   0.764  0.4777  0.5450 -1.4100
 3225TP3      O21493   3.110   4.343   1.709  0.0658 -0.2743 -0.3529
 3225TP3     H121494   3.085   4.423   1.756  0.6282 -0.4424  0.2608
 3225TP3     H221495   3.046   4.278   1.737  0.7291 -0.5247  0.6682
 3226TP3      O21496   1.456   2.826   8.839  0.0656  0.1003 -0.5076
 3226TP3     H121497   1.384   2.770   8.811 -0.8338  0.4233  1.0633
 3226TP3     H221498   1.415   2.908   8.866  0.6784 -0.4472  2.4624
 3227TP3      O21499   3.140   1.982   8.304 -0.2311 -0.2299 -0.3410
 3227TP3     H121500   3.204   1.964   8.235  0.8166 -1.7552  0.9708
 3227TP3     H221501   3.192   2.008   8.380 -0.9447 -3.0197  1.2418
 3228TP3      O21502   2.595   2.798   8.669  0.0729 -0.1054 -0.2424
 3228TP3     H121503   2.577   2.722   8.614  1.7946 -1.1758  0.6044
 3228TP3     H221504   2.582   2.766   8.759 -1.2442  1.2008  0.0695
 3229TP3      O21505   3.412   0.963   6.946  0.1051  0.0203 -0.1473
 3229TP3     H121506   3.340   1.009   6.989 -0.8448 -1.5567  0.0472
 3229TP3     H221507   3.405   0.873   6.978  2.0426 -0.2331 -0.3082
 3230TP3      O21508   0.723   4.109   6.756  0.1050  0.3196 -0.1474
 3230TP3     H121509   0.778   4.168   6.705  1.1805 -1.9614 -1.7978
 3230TP3     H221510   0.723   4.027   6.707 -0.4594 -1.4244  2.5342
 3231TP3      O21511   2.043   0.713   0.823  0.2015 -0.4533  0.1940
 3231TP3     H121512   2.045   0.659   0.903 -0.5329  0.3131  0.7505
 3231TP3     H221513   2.110   0.675   0.767  2.1909  0.2369  1.9993
 3232TP3      O21514   0.135   4.152   0.421 -0.5328  0.1199  0.6306
 3232TP3     H121515   0.091   4.197   0.348  1.1995  1.4432  0.3372
 3232TP3     H221516   0.127   4.212   0.495  0.5339  0.2910  0.6299
 3233TP3      O21517   0.040   1.781   7.795  0.3451  0.5549  0.2770
 3233TP3     H121518   0.008   1.740   7.715 -0.5776 -1.0316  1.4074
 3233TP3     H221519   0.094   1.714   7.837 -0.4861  0.7643  1.7546
 3234TP3      O21520   4.029   1.121   2.375 -0.2414 -0.2754 -0.2161
 3234TP3     H121521   4.122   1.124   2.350 -0.0504 -0.4480  0.4501
 3234TP3     H221522   3.982   1.130   2.292  0.3541  1.7487 -0.3878
 3235TP3      O21523   4.071   1.104   7.132 -0.2413  0.3042 -0.4515
 3235TP3     H121524   4.027   1.019   7.134 -1.2312  0.7746  2.4826
 3235TP3     H221525   4.039   1.145   7.051 -0.6261 -1.6379 -1.3483
 3236TP3      O21526   1.020   2.618   9.463 -0.5065  0.4208  0.1346
 3236TP3     H121527   0.982   2.705   9.476 -0.4436  0.5782 -0.7082
 3236TP3     H221528   1.013   2.576   9.549 -1.7095  0.7901  0.2304
 3237TP3      O21529   1.525   4.896   9.376  0.1683 -0.0825  0.4059
 3237TP3     H121530   1.590   4.826   9.368 -0.9304 -1.1146  0.2040
 3237TP3     H221531   1.554   4.963   9.313 -0.0769 -1.4417 -1.2243
 3238TP3      O21532   1.045   1.968   9.277  0.1605 -0.0505  0.4851
 3238TP3     H121533   1.126   2.018   9.263  0.1562  0.0877  0.9482
 3238TP3     H221534   1.069   1.901   9.340  0.0740 -0.4169  0.1323
 3239TP3      O21535   4.569   3.256   1.983 -0.4163  0.1331  0.1189
 3239TP3     H121536   4.636   3.325   1.989  0.3298 -0.5637  0.0389
 3239TP3     H221537   4.491   3.302   1.952 -0.3923  1.2251  1.5739
 3240TP3      O21538   4.395   1.558   2.248 -0.4645 -0.6606  0.1845
 3240TP3     H121539   4.366   1.535   2.159  1.9947  0.5124 -1.0057
 3240TP3     H221540   4.314   1.556   2.300 -2.5826  1.5528 -2.6574
 3241TP3      O21541   5.091   1.606  10.029  0.5956  0.0753 -0.4075
 3241TP3     H121542   5.048   1.635   9.949 -1.0316  0.8238  0.6833
 3241TP3     H221543   5.105   1.686  10.080 -0.0126 -0.5571  0.7989
 3242TP3      O21544   3.487   3.562   1.384 -0.4815 -0.3285 -0.2719
 3242TP3     H121545   3.554   3.572   1.316 -0.2318  1.8554  0.2244
 3242TP3     H221546   3.456   3.651   1.401  0.1676 -0.6036  3.1458
 3243TP3      O21547   1.212   2.232   0.675  0.2002  0.3636  0.3533
 3243TP3     H121548   1.177   2.315   0.642 -2.7496 -0.7427  0.4064
 3243TP3     H221549   1.182   2.229   0.766  0.2904 -0.7751  0.3498
 3244TP3      O21550   3.219   5.157   2.174  0.8405 -0.2116 -0.3324
 3244TP3     H121551   3.148   5.143   2.237  1.5777 -2.0449  0.1529
 3244TP3     H221552   3.184   5.129   2.090  0.5724  0.1335 -0.3359
 3245TP3      O21553   1.807   1.951   8.057  0.0969 -0.2601 -0.2746
 3245TP3     H121554   1.753   1.901   8.119  0.5882 -1.5052 -0.8146
 3245TP3     H221555   1.744   1.990   7.996 -0.2984 -0.2001  0.1676
 3246TP3      O21556   2.739   3.943   7.456 -0.3062 -0.0617  0.6323
 3246TP3     H121557   2.807   3.995   7.415  0.2350 -2.2933 -1.5093
 3246TP3     H221558   2.781   3.904   7.533  0.3022 -0.0429  0.3108
 3247TP3      O21559   5.027   3.274   6.940 -0.1892 -0.0235 -0.2146
 3247TP3     H121560   5.021   3.181   6.962 -0.2440 -0.0613 -0.3830
 3247TP3     H221561   4.967   3.317   7.000 -1.3026 -0.2678 -1.1181
 3248TP3      O21562   4.030   4.534   2.095  0.7653 -0.5376 -0.8497
 3248TP3     H121563   4.013   4.616   2.142  0.4379 -2.0078  1.8339
 3248TP3     H221564   3.946   4.512   2.054  0.5463 -0.0621 -0.6660
 3249TP3      O21565   4.521   4.214   9.993 -0.2347 -0.6510  0.2765
 3249TP3     H121566   4.471   4.226   9.912  0.6374 -0.7362 -0.2940
 3249TP3     H221567   4.612   4.224   9.965  0.0896 -1.0366  1.1942
 3250TP3      O21568   4.488   4.107   8.675 -0.5763 -0.6509 -0.4083
 3250TP3     H121569   4.508   4.197   8.703  1.6375 -0.0637 -3.3252
 3250TP3     H221570   4.395   4.108   8.656 -0.9372  0.4960  1.1816
 3251TP3      O21571   0.397   4.516   8.624  0.2326 -0.0887  0.3834
 3251TP3     H121572   0.335   4.472   8.682  0.2930  0.4697  0.8752
 3251TP3     H221573   0.479   4.518   8.673 -0.3773  2.8571  1.5104
 3252TP3      O21574   1.673   5.291  10.009 -0.2264 -0.1884 -0.4002
 3252TP3     H121575   1.707   5.209   9.973  0.0151 -0.0112 -0.5810
 3252TP3     H221576   1.673   5.351   9.935 -3.6140 -0.9425 -1.1649
 3253TP3      O21577   5.134   1.624   9.301  0.3905  0.1410 -0.7224
 3253TP3     H121578   5.098   1.693   9.357  1.6127 -1.0161  1.5897
 3253TP3     H221579   5.221   1.656   9.277  0.9820 -0.5636  0.4000
 3254TP3      O21580   1.356   1.646   2.766  0.1153 -0.2782 -0.3310
 3254TP3     H121581   1.323   1.630   2.855 -0.0825 -0.4717 -0.4385
 3254TP3     H221582   1.279   1.672   2.716  0.2449 -0.0664 -0.4211
 3255TP3      O21583   3.540   2.804   1.126 -0.1475  0.3240  0.2847
 3255TP3     H121584   3.498   2.722   1.102  0.5234  0.6169 -2.1653
 3255TP3     H221585   3.633   2.790   1.109 -0.0075  1.5354 -0.0272
 3256TP3      O21586   0.921   3.280   1.442 -0.1052  0.0626 -0.0812
 3256TP3     H121587   0.887   3.350   1.387  0.3875  1.0903  0.8862
 3256TP3     H221588   0.852   3.213   1.440 -0.3193  0.2807 -1.5067
 3257TP3      O21589   3.353   0.199   9.729 -0.4326  0.4079  0.2410
 3257TP3     H121590   3.355   0.127   9.792 -0.9850  1.6123  1.7143
 3257TP3     H221591   3.263   0.201   9.697 -0.2074 -0.0631 -0.4482
 3258TP3      O21592   0.381   4.115   9.256  0.0711  0.3535  0.1193
 3258TP3     H121593   0.313   4.058   9.220 -0.4917  1.0668  0.0262
 3258TP3     H221594   0.355   4.131   9.346  0.2399  0.4424  0.1535
 3259TP3      O21595   3.018   2.604   9.867  0.3672  0.1697  0.3355
 3259TP3     H121596   3.067   2.570   9.942 -0.7385 -0.2477  0.8821
 3259TP3     H221597   2.971   2.680   9.901  0.7134  0.6501 -0.2241
 3260TP3      O21598   1.969   1.494   7.557 -0.7392 -0.4289  0.0982
 3260TP3     H121599   1.985   1.548   7.635 -1.4156 -0.2868  0.1475
 3260TP3     H221600   1.930   1.555   7.494 -2.4692 -1.0537  0.5084
 3261TP3      O21601   4.390   0.174   9.208 -0.7517  0.2019 -0.2749
 3261TP3     H121602   4.320   0.175   9.273 -1.0272  2.3237 -0.5493
 3261TP3     H221603   4.371   0.097   9.154 -3.3678  1.1397 -0.8388
 3262TP3      O21604   0.569   4.747   7.360 -0.0229  0.0951  0.5912
 3262TP3     H121605   0.532   4.677   7.414 -0.2229  0.3915  0.8376
 3262TP3     H221606   0.546   4.722   7.271  2.2742 -1.6271  0.3693
 3263TP3      O21607   5.289   0.788   1.016 -0.4590 -1.0033  0.2738
 3263TP3     H121608   5.352   0.716   1.009 -1.4724 -1.8554 -0.3069
 3263TP3     H221609   5.301   0.838   0.936  0.2806 -0.4740  0.7001
 3264TP3      O21610   1.309   3.719   8.855  0.6050 -0.2040 -0.2003
 3264TP3     H121611   1.337   3.795   8.906  1.3464 -0.5534 -0.0691
 3264TP3     H221612   1.324   3.744   8.764  2.1725 -0.6935 -0.0936
 3265TP3      O21613   5.080   2.830   7.796 -0.1287 -0.4448  0.2994
 3265TP3     H121614   5.088   2.853   7.889 -2.4795  0.2089  0.3848
 3265TP3     H221615   4.989   2.804   7.785  0.3015 -1.2968 -1.6888
 3266TP3      O21616   4.273   2.944   3.225 -0.0593 -0.1016  0.5194
 3266TP3     H121617   4.265   2.870   3.165  0.0412  0.2843  0.0263
 3266TP3     H221618   4.362   2.937   3.259  0.2840  0.3512 -0.2709
 3267TP3      O21619   3.358   2.983   8.495  0.1725  0.3713  0.1143
 3267TP3     H121620   3.366   2.958   8.403 -1.1277  1.4539 -0.3145
 3267TP3     H221621   3.303   2.915   8.534 -0.8834  0.9332 -0.3678
 3268TP3      O21622   3.897   2.781   7.360 -0.5418  0.0335 -0.4151
 3268TP3     H121623   3.839   2.726   7.413  0.3800  0.1834  0.7916
 3268TP3     H221624   3.941   2.719   7.301 -0.5065 -0.3515  0.0077
 3269TP3      O21625   1.954   3.041   2.933  0.5382 -0.3327 -0.3558
 3269TP3     H121626   1.967   3.031   2.839  0.6614  1.6163 -0.5945
 3269TP3     H221627   2.040   3.027   2.972  0.8631  0.6012 -0.7219
 3270TP3      O21628   4.062   3.032   9.450 -0.2741  0.2478  0.4817
 3270TP3     H121629   4.107   2.957   9.410  2.2436  1.1385  1.4013
 3270TP3     H221630   4.056   3.096   9.379  0.6299  0.3826  0.5123
 3271TP3      O21631   5.061   4.104   1.308 -0.0662 -0.3383  0.4990
 3271TP3     H121632   4.967   4.124   1.315 -0.2671 -0.6361 -0.9858
 3271TP3     H221633   5.075   4.036   1.373 -1.6168 -2.5625 -1.3170
 3272TP3      O21634   2.393   3.875   2.008  0.2663 -0.3997  0.3502
 3272TP3     H121635   2.389   3.834   1.921  1.3232  0.4357 -0.1189
 3272TP3     H221636   2.311   3.924   2.015 -0.0296 -0.8328  0.0247
 3273TP3      O21637   1.771   1.636   1.002 -0.0316 -0.1774  0.4023
 3273TP3     H121638   1.775   1.694   1.078 -1.2280  0.0926  0.2816
 3273TP3     H221639   1.723   1.686   0.936 -0.5405 -1.0711  0.0788
 3274TP3      O21640   3.625   3.278   1.217 -0.2974 -0.8144 -0.0620
 3274TP3     H121641   3.689   3.247   1.153  0.2966 -0.4735  0.3593
 3274TP3     H221642   3.599   3.199   1.265  2.9439 -0.4966  2.6030
 3275TP3      O21643   1.376   1.033   0.549 -0.2009 -0.0770  0.0236
 3275TP3     H121644   1.303   1.073   0.597 -0.2277  0.5918 -0.5638
 3275TP3     H221645   1.341   0.951   0.517 -0.4877 -0.0700  0.3101
 3276TP3      O21646   3.649   2.567   9.262  0.0130  0.0704  0.0987
 3276TP3     H121647   3.591   2.620   9.208  0.6124 -0.1374 -0.7809
 3276TP3     H221648   3.621   2.584   9.352  0.0392  1.6740 -0.1702
 3277TP3      O21649   4.064   1.259   8.040 -0.1176  0.2953 -0.7717
 3277TP3     H121650   4.070   1.254   8.135 -1.0013  0.8800 -0.6695
 3277TP3     H221651   4.146   1.298   8.012  0.0854  0.2573 -0.2362
 3278TP3      O21652   1.773   0.195   9.606  0.1629  0.1152 -0.1546
 3278TP3     H121653   1.828   0.266   9.573 -0.2551  0.1200 -0.8681
 3278TP3     H221654   1.827   0.117   9.596  0.1777  0.1692 -0.5267
 3279TP3      O21655   2.987   3.556   2.445  0.0639 -0.6828 -0.3400
 3279TP3     H121656   3.053   3.535   2.512 -1.0452 -2.7438  0.1871
 3279TP3     H221657   2.993   3.483   2.383 -1.4287 -0.7048 -0.4844
 3280TP3      O21658   3.341   3.352   6.541 -0.0927 -0.4344  0.0148
 3280TP3     H121659   3.251   3.355   6.507 -0.2112 -0.5606  0.3096
 3280TP3     H221660   3.354   3.438   6.581  0.6635  0.3880 -1.8561
 3281TP3      O21661   0.909   2.382   8.592 -0.8959  0.4421 -0.6614
 3281TP3     H121662   0.955   2.439   8.530  0.0683 -1.1576 -1.4891
 3281TP3     H221663   0.841   2.339   8.540  0.0726 -1.0910 -0.7179
 3282TP3      O21664   3.047   1.175   0.132 -0.5104 -0.0770  0.5690
 3282TP3     H121665   2.997   1.144   0.208  0.0845  1.4210  1.6450
 3282TP3     H221666   3.042   1.271   0.139  1.6107  0.1129  0.1395
 3283TP3      O21667   1.975   0.238   2.543 -0.1836 -0.0345 -0.6004
 3283TP3     H121668   2.015   0.298   2.606 -1.5029  1.0748 -0.7616
 3283TP3     H221669   1.953   0.160   2.593  0.4171  0.1132 -0.1022
 3284TP3      O21670   3.040   0.156   2.359  0.0559 -0.0855  0.0083
 3284TP3     H121671   2.995   0.077   2.328  1.3101 -0.3462 -1.2172
 3284TP3     H221672   3.118   0.163   2.304  0.2873  1.6801  0.4954
 3285TP3      O21673   2.606   4.430   1.557  0.0946  0.6394 -0.3932
 3285TP3     H121674   2.646   4.494   1.614 -1.5437  0.1710  1.4141
 3285TP3     H221675   2.608   4.348   1.607  0.3679 -0.2711 -1.8239
 3286TP3      O21676   1.879   4.554   0.741  0.0996 -0.4172 -0.7061
 3286TP3     H121677   1.914   4.466   0.746 -0.3656 -0.6377 -1.1859
 3286TP3     H221678   1.846   4.572   0.829 -0.9156 -1.2050 -0.9052
 3287TP3      O21679   2.711   3.731   2.739 -0.3967 -0.0750  0.6227
 3287TP3     H121680   2.639   3.670   2.726 -0.7941  0.6413 -0.6993
 3287TP3     H221681   2.677   3.793   2.804 -0.3004 -0.7637  1.3393
 3288TP3      O21682   0.164   2.089   9.901 -0.3607  0.0856  0.2687
 3288TP3     H121683   0.166   2.171   9.950  2.6207 -0.5919  1.4844
 3288TP3     H221684   0.171   2.021   9.968 -1.3060 -1.1371 -0.8220
 3289TP3      O21685   2.166   2.370   0.457  0.6057  0.1106 -0.2086
 3289TP3     H121686   2.259   2.358   0.475  0.2376 -0.3353  1.6055
 3289TP3     H221687   2.152   2.328   0.372  2.0243  0.0535 -0.4348
 3290TP3      O21688   3.206   2.363   2.710 -0.1748  0.2905 -0.3585
 3290TP3     H121689   3.268   2.403   2.648  0.4894 -0.1683 -0.0062
 3290TP3     H221690   3.261   2.330   2.781 -0.8705  0.2341  0.1666
 3291TP3      O21691   3.493   5.044   8.835  0.2031  0.3614 -0.2947
 3291TP3     H121692   3.526   5.121   8.789 -0.0146  1.3956  1.1941
 3291TP3     H221693   3.562   5.021   8.897 -0.3108  0.2488  0.2521
 3292TP3      O21694   3.790   3.188   0.943  0.0171  0.5612  0.3957
 3292TP3     H121695   3.726   3.226   0.882 -0.7967 -1.3997 -0.0519
 3292TP3     H221696   3.874   3.227   0.917 -0.6168  1.2439 -0.6959
 3293TP3      O21697   0.698   4.949   2.272 -0.2168 -0.7809  0.3976
 3293TP3     H121698   0.688   5.001   2.192 -1.3798 -0.9933  0.3837
 3293TP3     H221699   0.715   4.860   2.241  1.6975 -0.4526  0.4208
 3294TP3      O21700   1.225   3.078   9.267 -0.2568  0.0748 -0.1431
 3294TP3     H121701   1.297   3.022   9.296  1.1098  1.0751 -1.4266
 3294TP3     H221702   1.219   3.146   9.335 -1.8643 -1.4707  1.3707
 3295TP3      O21703   4.099   4.915   2.052 -0.1220  0.0870 -0.0418
 3295TP3     H121704   4.015   4.895   2.093 -0.4514 -1.1437 -1.1978
 3295TP3     H221705   4.108   5.010   2.058 -0.2222 -0.0096  2.6184
 3296TP3      O21706   4.472   4.616   3.049 -0.5241  0.1987  0.5498
 3296TP3     H121707   4.558   4.653   3.072  0.6177 -0.7316 -1.8469
 3296TP3     H221708   4.482   4.589   2.958 -3.3704 -0.0587  0.2331
 3297TP3      O21709   0.995   3.880   9.433 -0.0775 -0.4129  0.0040
 3297TP3     H121710   1.055   3.827   9.485  0.4064  0.4734  0.3738
 3297TP3     H221711   1.038   3.965   9.426 -0.7978 -0.0902 -0.6463
 3298TP3      O21712   0.183   3.743   8.556 -0.1121 -0.4110 -0.1509
 3298TP3     H121713   0.190   3.746   8.460  3.7887 -0.6163 -0.0229
 3298TP3     H221714   0.165   3.651   8.576 -1.0169 -0.3570 -0.6327
 3299TP3      O21715   3.909   1.190   0.441 -0.7889  0.1070  0.2746
 3299TP3     H121716   3.872   1.221   0.358 -1.2120 -0.0345  0.4080
 3299TP3     H221717   3.972   1.122   0.415 -0.3546  0.5970  0.0252
 3300TP3      O21718   5.082   3.166   0.274  0.0403  0.7182 -0.2615
 3300TP3     H121719   5.036   3.118   0.206  1.2711 -2.8417  1.1860
 3300TP3     H221720   5.170   3.179   0.239  0.8534 -1.6271  0.6622
 3301TP3      O21721   5.034   3.492   8.991 -0.4030 -0.3686 -0.4815
 3301TP3     H121722   5.081   3.421   9.034 -0.4091  0.4207  0.9016
 3301TP3     H221723   4.956   3.450   8.953 -0.1418 -1.1793 -0.1467
 3302TP3      O21724   1.973   4.885   9.271 -0.3642 -0.0572  0.4842
 3302TP3     H121725   2.021   4.862   9.192 -0.7946 -0.9909  0.4890
 3302TP3     H221726   2.033   4.944   9.318 -0.1901  0.6591 -0.6114
 3303TP3      O21727   5.212   4.329   7.074  0.5442  0.7512  0.0041
 3303TP3     H121728   5.150   4.294   7.010  0.2766  1.0078  0.1203
 3303TP3     H221729   5.266   4.254   7.099  0.4107  0.5696 -0.2484
 3304TP3      O21730   5.269   0.532   2.453 -0.0719 -0.3073 -0.1508
 3304TP3     H121731   5.319   0.531   2.535 -0.7843  1.7163  0.3650
 3304TP3     H221732   5.197   0.472   2.468 -0.5490  0.5194  0.9683
 3305TP3      O21733   0.301   1.768   8.511 -0.1034 -0.3472  0.0582
 3305TP3     H121734   0.316   1.751   8.418 -1.8387  2.2390 -0.8187
 3305TP3     H221735   0.288   1.863   8.515  0.3534 -0.3266  3.0411
 3306TP3      O21736   4.815   0.586   0.241 -0.3765  0.5695  0.3946
 3306TP3     H121737   4.909   0.599   0.249 -0.0458 -1.9422  1.4112
 3306TP3     H221738   4.805   0.492   0.225 -2.6429  1.0302 -1.5718
 3307TP3      O21739   4.679   2.958   6.730  0.0956 -0.1449 -0.6727
 3307TP3     H121740   4.731   2.999   6.661  0.7044  1.6576  0.7402
 3307TP3     H221741   4.589   2.962   6.698 -0.1730  4.0855 -0.0204
 3308TP3      O21742   1.792   1.704   0.302 -0.0743 -0.3484 -0.2914
 3308TP3     H121743   1.873   1.732   0.260  0.8090 -0.8427  1.0069
 3308TP3     H221744   1.746   1.785   0.324 -0.6196 -0.0864 -2.2555
 3309TP3      O21745   3.599   3.289   9.904  0.5872 -0.7382  0.4863
 3309TP3     H121746   3.623   3.324   9.818 -1.4854 -2.5389 -0.9334
 3309TP3     H221747   3.683   3.282   9.951  1.5838  1.6798 -0.7819
 3310TP3      O21748   4.864   0.019   0.424 -0.3205  0.4112  0.6225
 3310TP3     H121749   4.898  -0.039   0.355 -0.9473  0.5209  0.2155
 3310TP3     H221750   4.778  -0.017   0.445  0.1153  0.0127  1.7981
 3311TP3      O21751   0.198   1.389   9.293  0.2043 -0.0336  0.5256
 3311TP3     H121752   0.204   1.403   9.387  0.3842 -0.7767  0.6297
 3311TP3     H221753   0.144   1.310   9.284  1.1236 -0.6294  0.0603
 3312TP3      O21754   4.932   0.635   8.917 -0.5834 -0.1521 -0.4028
 3312TP3     H121755   4.967   0.718   8.950 -1.6880 -0.3388  1.3454
 3312TP3     H221756   4.840   0.636   8.942 -0.3456 -2.4431  0.7969
 3313TP3      O21757   0.008   0.807   7.174  0.2904 -0.9208 -0.2398
 3313TP3     H121758  -0.050   0.731   7.173  1.8498 -2.1802  0.3476
 3313TP3     H221759   0.028   0.821   7.266  0.3424 -0.0431 -0.3748
 3314TP3      O21760   1.093   3.256   6.530  0.2643 -0.0536  0.1274
 3314TP3     H121761   1.084   3.285   6.621  0.4203 -0.1020  0.1584
 3314TP3     H221762   1.185   3.271   6.509 -0.2808  2.4035 -0.8529
 3315TP3      O21763   4.366   4.260   1.746  0.2785 -0.4090 -0.1017
 3315TP3     H121764   4.358   4.355   1.746  0.0393 -0.4233  0.4397
 3315TP3     H221765   4.278   4.229   1.768  0.4147 -0.7461 -0.0264
 3316TP3      O21766   2.110   0.865   9.715 -0.6498 -0.4921  0.0114
 3316TP3     H121767   2.187   0.910   9.749  0.1479  0.1255 -2.3957
 3316TP3     H221768   2.119   0.775   9.747 -0.2083  0.1167  1.6940
 3317TP3      O21769   0.680   2.348   0.973  0.4319  0.0787 -0.8279
 3317TP3     H121770   0.646   2.260   0.957 -1.7117  0.0717  2.7352
 3317TP3     H221771   0.732   2.339   1.054  0.2564  2.0512 -0.4503
 3318TP3      O21772   2.978   0.404   3.567 -0.3268  0.1734 -0.4661
 3318TP3     H121773   3.065   0.379   3.598  0.6824  1.6418 -1.9793
 3318TP3     H221774   2.920   0.339   3.607  1.3650 -0.5340  1.0196
 3319TP3      O21775   0.926   1.256   9.406 -0.1523 -0.3239 -0.0283
 3319TP3     H121776   1.014   1.224   9.384 -0.0200 -0.2118  0.3386
 3319TP3     H221777   0.890   1.188   9.463  0.3160  0.4082  1.1632
 3320TP3      O21778   4.527   2.321   1.097  0.1723 -0.3377  0.0475
 3320TP3     H121779   4.508   2.244   1.043 -1.4151 -2.3578  3.2015
 3320TP3     H221780   4.623   2.323   1.102  0.2501 -1.9469 -0.3170
 3321TP3      O21781   0.517   2.988   8.547 -0.0632  0.8977 -0.0592
 3321TP3     H121782   0.465   2.976   8.467  0.4417 -1.7345 -0.0892
 3321TP3     H221783   0.458   3.032   8.608 -0.1662  3.8986 -2.0958
 3322TP3      O21784   3.681   0.224   0.342 -0.2044 -0.1101  0.5605
 3322TP3     H121785   3.746   0.292   0.361  0.1638 -0.4843  0.6717
 3322TP3     H221786   3.608   0.245   0.400 -0.6672  0.9733 -0.3739
 3323TP3      O21787   5.215   0.028   7.393 -0.1147  0.1021  0.6970
 3323TP3     H121788   5.228  -0.052   7.341 -1.7883 -0.8033  1.5900
 3323TP3     H221789   5.154   0.081   7.342  1.0935  0.9033  0.0453
 3324TP3      O21790   3.586   1.635   0.295  0.4372  0.5269  0.0938
 3324TP3     H121791   3.492   1.622   0.302  0.4694 -0.0828 -0.5035
 3324TP3     H221792   3.599   1.728   0.311 -0.2863  0.6543 -0.0418
 3325TP3      O21793   4.492   1.347   0.929  0.1625  0.0054 -0.1118
 3325TP3     H121794   4.571   1.297   0.951  0.9525 -0.3009 -3.1595
 3325TP3     H221795   4.523   1.416   0.871 -1.7057  0.4939 -0.5842
 3326TP3      O21796   3.642   1.136   1.741  0.2017  0.0522  0.0437
 3326TP3     H121797   3.703   1.062   1.749  1.7926  1.3558  0.5379
 3326TP3     H221798   3.601   1.124   1.656 -2.7757 -3.6703  1.7249
 3327TP3      O21799   1.624   1.262   2.415  0.3878  0.7206 -1.0841
 3327TP3     H121800   1.594   1.323   2.348 -0.0641  0.0137 -1.5345
 3327TP3     H221801   1.684   1.204   2.369 -1.0738 -0.7181 -1.2475
 3328TP3      O21802   1.805   4.806   6.796 -0.3063  0.4940  0.0449
 3328TP3     H121803   1.797   4.712   6.813 -1.9791  1.0738  3.0824
 3328TP3     H221804   1.879   4.834   6.849  0.5047  0.8649 -1.2406
 3329TP3      O21805   0.195   4.278   1.538  0.1649 -0.6113 -0.0113
 3329TP3     H121806   0.168   4.335   1.610 -0.8871 -0.0935 -0.7925
 3329TP3     H221807   0.284   4.305   1.517  0.1605 -0.1810  0.5049
 3330TP3      O21808   0.803   1.726   0.652  0.5807  0.1478 -0.1702
 3330TP3     H121809   0.829   1.768   0.734 -0.2792 -0.7615  0.5834
 3330TP3     H221810   0.773   1.799   0.597  2.4152  0.9339 -0.2062
 3331TP3      O21811   5.105   2.887   0.337  0.8257 -0.0258  0.2695
 3331TP3     H121812   5.131   2.907   0.247 -0.3883  0.8958  0.0935
 3331TP3     H221813   5.187   2.893   0.387  1.5337 -0.6358 -0.7631
 3332TP3      O21814   4.533   1.065   8.051  0.0762  0.1977  0.6095
 3332TP3     H121815   4.439   1.045   8.055  0.1739 -0.4212 -0.0057
 3332TP3     H221816   4.543   1.144   8.104 -0.9438  0.8504 -0.1319
 3333TP3      O21817   0.556   4.011   1.369 -0.2253  0.0342 -0.4239
 3333TP3     H121818   0.624   4.044   1.428  0.2246 -0.5741 -0.5865
 3333TP3     H221819   0.557   4.070   1.294  0.5948 -0.3558 -0.7304
 3334TP3      O21820   1.203   1.062   7.545 -0.3782 -0.0179 -0.0902
 3334TP3     H121821   1.261   1.090   7.474 -0.2909 -2.1335 -0.9290
 3334TP3     H221822   1.260   1.051   7.621 -0.3812  1.7003  0.2068
 3335TP3      O21823   1.731   0.848   7.953 -0.9259 -0.1943  0.5518
 3335TP3     H121824   1.656   0.902   7.977 -1.2423 -0.5758  0.4238
 3335TP3     H221825   1.709   0.761   7.984 -0.2478 -0.1826  1.0969
 3336TP3      O21826   1.812   2.885   2.207  0.0127 -0.1905 -0.1925
 3336TP3     H121827   1.786   2.813   2.265 -0.0163  1.1838  1.5698
 3336TP3     H221828   1.761   2.871   2.127 -2.8875 -0.0309  1.5033
 3337TP3      O21829   3.013   1.567   1.816 -0.4854 -0.4251  0.2609
 3337TP3     H121830   3.073   1.530   1.880  2.1215  0.4797 -1.4700
 3337TP3     H221831   3.031   1.661   1.818  0.5981 -0.4768 -2.5316
 3338TP3      O21832   0.592   1.295   8.075  0.0138  0.4988 -0.2645
 3338TP3     H121833   0.573   1.351   8.151  1.2947  0.1613  0.3211
 3338TP3     H221834   0.566   1.208   8.102 -0.4910  0.5403 -0.6004
 3339TP3      O21835   3.811   0.098   8.847  0.4774  0.1554  0.4155
 3339TP3     H121836   3.885   0.036   8.844  0.5738  0.2997 -0.4582
 3339TP3     H221837   3.848   0.181   8.817  0.4565  0.7708  2.0105
 3340TP3      O21838   3.252   3.819   0.138 -0.4143  0.1330  0.4451
 3340TP3     H121839   3.318   3.832   0.070  1.7497  0.6434  2.4949
 3340TP3     H221840   3.270   3.888   0.202 -2.6956  0.0014  1.3080
 3341TP3      O21841   3.842   1.379   2.398 -0.6541 -0.1939  0.2935
 3341TP3     H121842   3.854   1.316   2.469  1.6066  0.9570  1.0313
 3341TP3     H221843   3.892   1.342   2.325  0.3982  0.5277  0.6237
 3342TP3      O21844   2.041   4.023   0.422  0.2682  0.3956  0.3043
 3342TP3     H121845   1.999   4.087   0.365  0.7911  0.4867  0.0084
 3342TP3     H221846   2.127   4.062   0.441 -0.2369  0.8202  1.9270
 3343TP3      O21847   4.211   3.065   9.830  0.0835 -0.0050  0.4630
 3343TP3     H121848   4.156   3.004   9.878 -1.0798  0.5297 -0.1408
 3343TP3     H221849   4.276   3.010   9.787 -0.2423 -0.6971  0.8390
 3344TP3      O21850   3.610   0.672   0.751 -0.2424 -0.4291 -0.4939
 3344TP3     H121851   3.636   0.754   0.709  3.2100 -0.5185  1.1346
 3344TP3     H221852   3.650   0.603   0.697  1.1351 -0.7149  0.8254
 3345TP3      O21853   4.028   2.278   3.280  0.0818  1.0494 -0.4604
 3345TP3     H121854   4.068   2.214   3.221  2.0946  0.0426  1.8085
 3345TP3     H221855   4.085   2.354   3.274  0.4895  0.8231  0.3676
 3346TP3      O21856   2.792   3.782   0.720  0.2590  0.2121 -0.1892
 3346TP3     H121857   2.753   3.715   0.777  1.1067  0.7732  1.1051
 3346TP3     H221858   2.819   3.734   0.642  0.6692 -0.9426  0.6215
 3347TP3      O21859   4.937   0.864   1.425 -0.0392 -0.0475 -0.0991
 3347TP3     H121860   4.932   0.951   1.463 -0.1211 -0.1016  0.0141
 3347TP3     H221861   4.976   0.810   1.493 -1.9318 -0.5659  0.6583
 3348TP3      O21862   2.260   4.333   1.649  0.0224 -0.4331 -0.2220
 3348TP3     H121863   2.275   4.308   1.558  0.6737 -0.9847  0.0240
 3348TP3     H221864   2.221   4.256   1.689  0.4980 -0.4875  0.1517
 3349TP3      O21865   1.882   3.578   0.009  0.2842  0.0286 -0.8200
 3349TP3     H121866   1.915   3.622  -0.070  1.8816 -0.4814 -0.4717
 3349TP3     H221867   1.878   3.646   0.075  1.1850 -0.0112 -0.7197
 3350TP3      O21868   2.380   1.703   9.366 -0.0936 -0.5892  0.2884
 3350TP3     H121869   2.291   1.722   9.396 -0.0568  0.1957 -0.0624
 3350TP3     H221870   2.368   1.650   9.288 -0.2392 -0.9003  0.5199
 3351TP3      O21871   0.562   1.116   8.409  0.0731 -0.0380  0.0306
 3351TP3     H121872   0.516   1.186   8.456 -0.4531 -1.2923  1.4787
 3351TP3     H221873   0.538   1.036   8.456  0.6145 -1.2178 -1.5964
 3352TP3      O21874   3.556   1.494   2.480 -0.0930 -0.0864 -0.7790
 3352TP3     H121875   3.481   1.536   2.438 -0.3341  1.4512  1.0450
 3352TP3     H221876   3.603   1.451   2.409 -1.6137  0.5942 -2.2596
 3353TP3      O21877   3.483   1.576   1.981  0.6036 -0.0518 -0.8858
 3353TP3     H121878   3.565   1.553   2.025  0.2390  0.6476  0.1942
 3353TP3     H221879   3.510   1.637   1.912  1.1725 -1.1181 -1.6418
 3354TP3      O21880   1.736   2.419   1.662  0.7985  0.2146  0.2795
 3354TP3     H121881   1.693   2.490   1.615  2.1777  0.8366 -0.0891
 3354TP3     H221882   1.666   2.379   1.714 -0.6178 -0.0366 -1.7057
 3355TP3      O21883   4.501   0.233   8.474  0.2525 -0.5653  0.5648
 3355TP3     H121884   4.592   0.257   8.487  0.1241 -1.0069  2.4758
 3355TP3     H221885   4.452   0.285   8.538 -0.9938  0.4417 -1.1093
 3356TP3      O21886   4.304   2.162   2.759  0.2967  0.2082  0.3477
 3356TP3     H121887   4.291   2.209   2.841  1.0715 -0.1771  0.7011
 3356TP3     H221888   4.267   2.076   2.775 -0.0404  0.3064  0.1040
 3357TP3      O21889   3.876   2.052   2.919 -0.0970  0.0692 -0.1657
 3357TP3     H121890   3.818   1.978   2.935  1.2639 -0.6824  1.6524
 3357TP3     H221891   3.960   2.024   2.955  1.9174  0.4764 -4.0593
 3358TP3      O21892   3.019   3.202   0.334 -0.2306  0.2316 -0.1343
 3358TP3     H121893   3.061   3.243   0.259 -1.6988  0.6966 -0.7344
 3358TP3     H221894   3.065   3.119   0.345  2.6015  1.8073  0.9049
 3359TP3      O21895   2.294   3.765   0.948 -0.6801  0.0711 -0.7773
 3359TP3     H121896   2.296   3.693   1.011  3.1901 -2.1560 -3.0687
 3359TP3     H221897   2.340   3.837   0.991 -0.3140 -0.5271 -0.1553
 3360TP3      O21898   1.578   4.196   8.635  0.6213 -0.3832 -0.1061
 3360TP3     H121899   1.489   4.220   8.609 -0.0907 -1.7841  0.8565
 3360TP3     H221900   1.600   4.122   8.578  0.3612 -1.3129  0.9650
 3361TP3      O21901   1.824   0.826   2.803  0.0417 -0.5573 -0.5327
 3361TP3     H121902   1.730   0.822   2.782 -0.2281  0.1651  0.4793
 3361TP3     H221903   1.857   0.896   2.747 -0.3876  0.3934  0.3867
 3362TP3      O21904   0.268   5.029   2.630  0.1559  0.0481  0.6009
 3362TP3     H121905   0.343   5.089   2.632  1.1149 -0.9443 -2.0543
 3362TP3     H221906   0.298   4.952   2.677  0.0651  0.3882  1.2335
 3363TP3      O21907   4.226   2.590   8.996 -0.1401  0.3266 -0.0676
 3363TP3     H121908   4.236   2.683   9.017  0.7014 -0.0974  1.5321
 3363TP3     H221909   4.306   2.569   8.947 -0.1295  0.3425 -0.0573
 3364TP3      O21910   3.467   4.923   8.118  0.5767 -0.2000 -0.0382
 3364TP3     H121911   3.386   4.875   8.101 -0.1204 -0.0422  2.4602
 3364TP3     H221912   3.465   4.996   8.056 -1.6842  0.3265  0.5557
 3365TP3      O21913   1.558   0.798   2.744  0.2754 -0.1356  0.9288
 3365TP3     H121914   1.504   0.803   2.666 -0.8038 -0.2993  1.6400
 3365TP3     H221915   1.547   0.884   2.786 -0.5929 -0.6517  1.8011
 3366TP3      O21916   5.022   4.248   9.553  0.4512  0.6520  0.1498
 3366TP3     H121917   5.008   4.259   9.647 -0.9211  1.1341 -0.0847
 3366TP3     H221918   4.939   4.275   9.513  1.3426  1.4301 -1.2649
 3367TP3      O21919   4.047   5.055   2.586 -0.6414 -0.3236 -0.1639
 3367TP3     H121920   4.054   4.976   2.533  1.7301 -0.2010 -0.1588
 3367TP3     H221921   4.010   5.026   2.669 -1.0758 -1.1612 -0.6420
 3368TP3      O21922   4.478   4.388   3.883  0.0321 -0.0795  0.2434
 3368TP3     H121923   4.460   4.322   3.816 -0.4384 -1.5117  1.7123
 3368TP3     H221924   4.392   4.410   3.920  0.3202  0.3620  0.6689
 3369TP3      O21925   0.712   4.785   9.071  0.5024  0.7311  0.0648
 3369TP3     H121926   0.785   4.727   9.091  0.0620  0.1505 -0.0004
 3369TP3     H221927   0.743   4.839   8.998  1.0664  0.8832  0.4137
 3370TP3      O21928   1.650   4.742   2.611 -0.1857 -0.6206 -0.3740
 3370TP3     H121929   1.597   4.699   2.678 -0.9386 -2.3421 -2.0067
 3370TP3     H221930   1.593   4.812   2.577  0.5903  0.9876  1.4278
 3371TP3      O21931   3.212   4.772   0.640  0.0098 -0.2266  0.3442
 3371TP3     H121932   3.275   4.839   0.668  1.4711 -2.0358  1.6058
 3371TP3     H221933   3.177   4.736   0.721 -0.9804 -0.7893 -0.3180
 3372TP3      O21934   4.755   1.453   8.160  0.0055  0.5571 -0.1792
 3372TP3     H121935   4.816   1.445   8.086 -1.1959  0.4402 -1.1954
 3372TP3     H221936   4.808   1.488   8.231  2.3801 -3.5796  0.3978
 3373TP3      O21937   0.669   3.323   9.092 -0.1335 -0.6980 -0.2126
 3373TP3     H121938   0.746   3.323   9.148 -1.7169  2.5482  2.3807
 3373TP3     H221939   0.701   3.344   9.005  2.0923 -2.1043  0.2111
 3374TP3      O21940   5.213   1.696   0.570  0.0597  0.1288  0.6843
 3374TP3     H121941   5.122   1.676   0.592  0.1965  0.5400  1.6898
 3374TP3     H221942   5.254   1.718   0.654  0.8482  0.8930  0.1219
 3375TP3      O21943   0.305   3.848   0.336 -0.2826 -0.6247  0.0712
 3375TP3     H121944   0.321   3.929   0.385  1.0207 -0.1627 -1.0382
 3375TP3     H221945   0.392   3.812   0.320 -0.8741 -2.6816  1.1878
 3376TP3      O21946   0.363   2.778   9.234 -0.0907  0.1467 -0.3501
 3376TP3     H121947   0.275   2.795   9.201 -1.0019 -1.3713  1.1700
 3376TP3     H221948   0.411   2.859   9.216 -1.8470  1.0878 -1.0056
 3377TP3      O21949   1.204   0.684   8.746 -0.1041 -0.2321  0.0750
 3377TP3     H121950   1.181   0.599   8.783 -0.4607  0.1613  0.7934
 3377TP3     H221951   1.169   0.748   8.809  0.9982  0.4289  0.0480
 3378TP3      O21952   3.215   1.423   9.290 -0.9871 -0.2365  0.2518
 3378TP3     H121953   3.187   1.392   9.204 -2.9246  0.5458  0.5602
 3378TP3     H221954   3.311   1.418   9.286 -0.8935  1.4379 -2.5867
 3379TP3      O21955   1.251   2.640   1.774  0.3035  0.2396 -0.4788
 3379TP3     H121956   1.218   2.594   1.697 -1.3899  1.1220 -0.3270
 3379TP3     H221957   1.191   2.714   1.785  2.7002  2.3180 -0.5195
 3380TP3      O21958   3.482   1.393   9.191 -0.1067 -0.4748 -0.5201
 3380TP3     H121959   3.465   1.428   9.104  0.1333  2.0778  0.3773
 3380TP3     H221960   3.572   1.419   9.210  0.0929 -1.6340  0.2421
 3381TP3      O21961   3.047   1.923   9.819  0.5244 -0.2281  0.6431
 3381TP3     H121962   3.124   1.976   9.797 -0.8988  1.5278 -0.3384
 3381TP3     H221963   3.050   1.849   9.758  0.5534  0.7206 -0.5413
 3382TP3      O21964   1.356   0.085   2.077 -0.6302 -0.1324  0.1004
 3382TP3     H121965   1.370   0.041   1.993 -0.1568  1.0760 -0.4755
 3382TP3     H221966   1.344   0.013   2.139 -0.1095 -1.0757 -0.8435
 3383TP3      O21967   2.744   2.094   8.528 -0.1938 -0.6128 -0.1155
 3383TP3     H121968   2.713   2.090   8.619 -0.4305 -0.0715 -0.1723
 3383TP3     H221969   2.763   2.003   8.506  2.0756 -0.5323  1.2401
 3384TP3      O21970   4.356   0.665   9.474  0.3353 -0.2347  0.8591
 3384TP3     H121971   4.383   0.575   9.456  0.7068  0.0056  0.1989
 3384TP3     H221972   4.281   0.680   9.417  1.0764  0.2937  0.0006
 3385TP3      O21973   3.006   2.075   7.917 -0.0968  0.7658  0.2764
 3385TP3     H121974   3.040   2.003   7.971  0.0595  0.5630 -0.0930
 3385TP3     H221975   2.911   2.062   7.916 -0.0851  0.6705  0.3573
 3386TP3      O21976   5.189   1.890   0.402  0.0790 -0.5771  0.6119
 3386TP3     H121977   5.186   1.808   0.451 -0.0319 -1.1942 -0.4079
 3386TP3     H221978   5.137   1.873   0.323  2.4343 -0.4927 -1.0597
 3387TP3      O21979   2.625   3.640   2.265 -0.1257 -0.0189 -0.2594
 3387TP3     H121980   2.621   3.736   2.267  2.0517  0.1241 -0.5188
 3387TP3     H221981   2.631   3.619   2.172 -0.0494 -0.3819 -0.1714
 3388TP3      O21982   2.196   4.126   8.788  0.0487  0.2029  0.5689
 3388TP3     H121983   2.131   4.184   8.749  1.7984  1.6325 -0.3331
 3388TP3     H221984   2.247   4.183   8.846  2.0688 -0.2837 -0.6546
 3389TP3      O21985   4.085   4.777   2.433 -0.0848 -0.0689  0.1113
 3389TP3     H121986   4.163   4.760   2.380  0.1124  0.9447  0.0571
 3389TP3     H221987   4.082   4.703   2.495 -0.8964 -1.8429 -1.9035
 3390TP3      O21988   0.158   3.459   2.509 -0.2324 -0.2387  0.0891
 3390TP3     H121989   0.179   3.548   2.480 -0.5466 -0.5707 -1.2261
 3390TP3     H221990   0.164   3.407   2.429  0.6239 -1.5316  0.9649
 3391TP3      O21991   4.732   1.767   0.029 -0.3707 -0.2472  0.0574
 3391TP3     H121992   4.661   1.795   0.086 -0.8079 -0.5921 -0.3098
 3391TP3     H221993   4.728   1.672   0.030  0.1088 -0.2719  0.0557
 3392TP3      O21994   1.479   2.004   0.785  0.0441 -0.4934 -0.2321
 3392TP3     H121995   1.541   2.061   0.741 -0.7796  0.4444 -0.2198
 3392TP3     H221996   1.466   2.045   0.871  1.6460 -2.2931  0.9623
 3393TP3      O21997   0.104   1.828   7.230 -0.0231 -0.1296  0.3430
 3393TP3     H121998   0.026   1.775   7.215  1.4068 -2.2690 -0.0808
 3393TP3     H221999   0.101   1.896   7.164 -1.9063  0.3281  0.8481
 3394TP3      O22000   4.141   2.659   9.678 -0.3628 -0.1003 -1.2082
 3394TP3     H122001   4.167   2.592   9.741  1.3180 -1.2868 -3.0138
 3394TP3     H222002   4.182   2.631   9.596 -0.6128  2.5132 -2.3318
 3395TP3      O22003   3.410   4.666   2.859 -0.0854  0.0575 -0.0634
 3395TP3     H122004   3.362   4.725   2.917  0.5609  0.0626  0.4838
 3395TP3     H222005   3.376   4.685   2.772  0.6901  1.8396 -0.0163
 3396TP3      O22006   0.668   2.045   1.702  0.3772 -0.0288 -0.2345
 3396TP3     H122007   0.642   1.962   1.662  0.7884  0.0926 -0.7548
 3396TP3     H222008   0.758   2.031   1.730  0.3404  0.1397 -0.0260
 3397TP3      O22009   5.148   4.319   3.583  0.1988 -0.0973  0.2758
 3397TP3     H122010   5.059   4.355   3.575  0.0685 -0.5889 -0.6824
 3397TP3     H222011   5.205   4.396   3.582 -0.2339  0.2489  1.3335
 3398TP3      O22012   1.479   0.955   9.636  0.1402 -0.0026 -0.3956
 3398TP3     H122013   1.455   0.936   9.726 -2.1664  0.6427 -0.7986
 3398TP3     H222014   1.460   0.874   9.588  0.4682 -0.0468 -0.4530
 3399TP3      O22015   5.019   2.558   8.802  0.3341  0.0662 -0.1477
 3399TP3     H122016   5.024   2.547   8.707 -0.1849  0.9870 -0.2901
 3399TP3     H222017   4.941   2.509   8.827 -0.2871  0.9210 -0.3815
 3400TP3      O22018   4.323   4.096   9.525  0.1692  0.5014 -0.3774
 3400TP3     H122019   4.237   4.056   9.539  0.3125  1.0002  2.4598
 3400TP3     H222020   4.310   4.155   9.452 -1.7116  0.0247 -0.4887
 3401TP3      O22021   1.872   2.230   9.793  0.4773 -0.4402 -0.2400
 3401TP3     H122022   1.934   2.303   9.796  2.1369 -1.7259 -1.5467
 3401TP3     H222023   1.851   2.220   9.700 -1.1941 -0.4882  0.1038
 3402TP3      O22024   5.073   5.011   2.534 -0.0938 -0.8493 -0.4919
 3402TP3     H122025   5.020   5.091   2.531 -1.7457 -1.5700  3.5646
 3402TP3     H222026   5.161   5.040   2.510 -0.9409  1.8657 -0.6669
 3403TP3      O22027   2.514   3.279   3.309 -0.2367  0.4626 -0.1359
 3403TP3     H122028   2.448   3.214   3.286 -0.0402  0.7280 -1.5303
 3403TP3     H222029   2.562   3.240   3.382 -2.0384  0.3569  1.0509
 3404TP3      O22030   2.286   4.152   0.464 -0.0945 -0.2121  0.3166
 3404TP3     H122031   2.268   4.242   0.493  0.9258  0.0730  0.0738
 3404TP3     H222032   2.365   4.159   0.411 -0.2498 -1.1961 -0.0557
 3405TP3      O22033   0.508   1.337   9.898  0.7226 -0.1849 -0.0204
 3405TP3     H122034   0.465   1.274   9.839 -1.0687 -0.1087  1.1250
 3405TP3     H222035   0.513   1.418   9.847  2.4078 -1.0091 -1.2614
 3406TP3      O22036   2.460   1.982   7.862 -0.2724 -0.6417 -0.9605
 3406TP3     H122037   2.420   2.053   7.912  1.1287  0.4346 -1.3016
 3406TP3     H222038   2.408   1.905   7.885 -0.1932 -0.0466  1.4995
 3407TP3      O22039   1.505   3.027   3.036 -0.2430 -0.4031 -0.1204
 3407TP3     H122040   1.525   3.119   3.022  2.6447 -1.1629 -1.7681
 3407TP3     H222041   1.409   3.024   3.040 -0.4340  2.6204  0.0410
 3408TP3      O22042   1.409   4.951   3.008  0.6070  0.2744 -0.2882
 3408TP3     H122043   1.452   5.024   3.053  0.9581  0.1179 -0.3615
 3408TP3     H222044   1.322   4.984   2.986 -0.6004 -0.5056  2.8212
 3409TP3      O22045   2.035   3.306   1.106  0.5926 -0.4443 -0.3050
 3409TP3     H122046   2.011   3.252   1.030  0.6199 -0.4711 -0.2950
 3409TP3     H222047   2.097   3.251   1.154  2.4452  0.4800 -1.5187
 3410TP3      O22048   2.082   3.860   1.623 -0.3810  0.6336  0.0508
 3410TP3     H122049   2.140   3.870   1.547  0.9127  1.9432  1.1478
 3410TP3     H222050   1.995   3.875   1.589  0.1982  1.4039 -1.1485
 3411TP3      O22051   5.033   4.253   9.845 -0.2159 -0.1442 -0.1510
 3411TP3     H122052   5.122   4.251   9.880  0.1206  0.3310 -0.9782
 3411TP3     H222053   4.987   4.184   9.894 -0.3175  1.7496  2.7072
 3412TP3      O22054   4.644   0.437   3.194  0.0335  0.1826  0.1793
 3412TP3     H122055   4.705   0.452   3.266  1.2004 -1.4726 -0.4229
 3412TP3     H222056   4.586   0.514   3.196  1.5827  1.3896  1.2947
 3413TP3      O22057   2.133   2.979   9.597  0.4183 -0.0807  0.1684
 3413TP3     H122058   2.113   3.060   9.644  0.2575  1.4300 -2.3115
 3413TP3     H222059   2.220   2.954   9.628  0.0903  0.5136  1.6288
 3414TP3      O22060   0.419   5.078   8.209 -0.7708 -0.5636 -0.0645
 3414TP3     H122061   0.481   5.005   8.205 -1.3354 -1.1362  1.1709
 3414TP3     H222062   0.413   5.109   8.118  0.7069 -0.9962 -0.3436
 3415TP3      O22063   2.964   4.935   3.065 -0.4219  0.3132 -0.4528
 3415TP3     H122064   2.964   4.844   3.095 -0.4553  0.1332 -0.9967
 3415TP3     H222065   2.877   4.948   3.026 -0.8917  0.9593  0.7531
 3416TP3      O22066   3.197   1.648   7.901  0.4450 -0.5555  0.3907
 3416TP3     H122067   3.283   1.612   7.881 -0.2273 -1.6521 -0.6197
 3416TP3     H222068   3.149   1.575   7.941 -0.0895 -0.0154  0.7581
 3417TP3      O22069   3.814   4.478   1.946 -0.2726  0.0624 -0.1544
 3417TP3     H122070   3.750   4.543   1.974 -0.4402 -0.0843 -0.1979
 3417TP3     H222071   3.811   4.480   1.851  0.5559  0.8183 -0.1822
 3418TP3      O22072   3.186   0.982   7.635 -0.3528  0.0227  0.6056
 3418TP3     H122073   3.166   0.967   7.542 -0.8061  0.5846  0.6035
 3418TP3     H222074   3.129   1.055   7.659 -0.9567 -0.7496  1.5839
 3419TP3      O22075   1.508   0.075   8.524 -0.0053 -0.2085  0.7384
 3419TP3     H122076   1.425   0.066   8.570 -0.5393 -0.3374 -0.2173
 3419TP3     H222077   1.530  -0.014   8.496  1.6769 -0.5983  2.9693
 3420TP3      O22078   4.268   1.630   9.391 -0.1973  0.2285 -0.2846
 3420TP3     H122079   4.232   1.714   9.363 -2.3975 -1.5405 -3.2696
 3420TP3     H222080   4.268   1.635   9.487 -2.3609  2.7685 -0.3000
 3421TP3      O22081   1.375   2.692   8.205  0.2802 -0.1291  0.5867
 3421TP3     H122082   1.448   2.750   8.186 -0.9541  2.6087  3.2825
 3421TP3     H222083   1.308   2.714   8.140  0.4686  0.2116  0.5053
 3422TP3      O22084   0.983   2.487   8.340  0.3104  0.2473  0.0473
 3422TP3     H122085   1.055   2.479   8.278  0.2156  0.8916 -0.1515
 3422TP3     H222086   0.991   2.576   8.375 -0.2436  0.2436  0.1940
 3423TP3      O22087   1.162   4.557   0.937  0.3231 -0.1757  0.0947
 3423TP3     H122088   1.139   4.640   0.895  0.6441  1.3328  2.6339
 3423TP3     H222089   1.087   4.500   0.922 -0.3681  0.9480 -0.8448
 3424TP3      O22090   1.531   2.996   7.941 -0.1569 -0.6036  0.6417
 3424TP3     H122091   1.584   3.068   7.977 -0.2217 -0.2129 -0.0255
 3424TP3     H222092   1.563   2.918   7.987 -0.0620 -0.1608  1.3515
 3425TP3      O22093   2.826   2.215   1.337 -0.4813  0.4164 -0.1608
 3425TP3     H122094   2.788   2.215   1.249 -0.0429 -0.1468 -0.3584
 3425TP3     H222095   2.915   2.179   1.325 -0.7007 -0.4419  0.6263
 3426TP3      O22096   2.028   4.321   0.763  0.6247 -0.2225  0.2720
 3426TP3     H122097   2.040   4.248   0.824  2.5185 -0.9008 -0.8251
 3426TP3     H222098   2.094   4.385   0.789  0.3310  0.2057 -0.0310
 3427TP3      O22099   3.930   0.351   6.448 -0.3789 -0.3135  0.0634
 3427TP3     H122100   3.835   0.359   6.451 -0.1817  4.1585  0.7162
 3427TP3     H222101   3.959   0.379   6.535  1.5472 -0.2124 -0.5712
 3428TP3      O22102   4.634   5.113   1.907  0.1787 -0.4997 -0.0196
 3428TP3     H122103   4.551   5.144   1.871  0.0061 -1.2904 -0.3344
 3428TP3     H222104   4.700   5.165   1.862 -0.1531  0.3503  0.4555
 3429TP3      O22105   3.401   3.746   7.162 -0.0900  0.1527 -0.0215
 3429TP3     H122106   3.347   3.798   7.221  0.1318  2.2049 -1.5065
 3429TP3     H222107   3.341   3.718   7.093 -0.0349 -0.8942  0.3442
 3430TP3      O22108   0.985   1.001   1.760  0.6068 -0.0120 -0.5837
 3430TP3     H122109   0.955   1.091   1.768  1.0100  0.0088  1.0903
 3430TP3     H222110   0.904   0.949   1.755  0.2486  0.2281  1.5704
 3431TP3      O22111   1.200   3.340   1.791  0.5267 -0.2300 -0.5459
 3431TP3     H122112   1.213   3.383   1.876  0.6064 -0.4125 -0.4655
 3431TP3     H222113   1.282   3.355   1.744  0.0274  0.9791 -1.0884
 3432TP3      O22114   3.267   1.681   7.566 -0.2134 -0.4768  0.2723
 3432TP3     H122115   3.308   1.723   7.490 -0.1440 -1.4314 -0.2355
 3432TP3     H222116   3.236   1.754   7.619 -3.3583  0.2907 -2.3190
 3433TP3      O22117   1.327   3.034   8.917  0.2569 -0.8645 -0.1689
 3433TP3     H122118   1.236   3.035   8.946  0.2746 -1.0601 -0.1058
 3433TP3     H222119   1.377   3.068   8.991  0.4953 -2.9731  0.7158
 3434TP3      O22120   1.093   4.673   9.825  0.6976 -0.2835 -0.0372
 3434TP3     H122121   1.098   4.630   9.910  0.9159 -0.5007 -0.1606
 3434TP3     H222122   1.019   4.631   9.781 -0.5939  1.0779  0.7426
 3435TP3      O22123   1.032   2.133   1.789 -0.2176 -0.7791 -0.0689
 3435TP3     H122124   1.022   2.051   1.742 -1.2232 -0.0204 -1.2462
 3435TP3     H222125   1.125   2.155   1.781 -0.6372  0.3590 -3.6382
 3436TP3      O22126   3.363   2.888   1.897  0.2811  0.0099  0.3226
 3436TP3     H122127   3.310   2.823   1.942 -0.2980 -0.0189 -0.3749
 3436TP3     H222128   3.367   2.962   1.958  0.1227 -0.2995  0.7133
 3437TP3      O22129   0.819   0.908   8.094  0.0017 -0.8579  0.0643
 3437TP3     H122130   0.841   0.826   8.050  0.4247  0.1943 -1.7699
 3437TP3     H222131   0.790   0.966   8.024  0.8958  0.9671  1.1373
 3438TP3      O22132   0.129   3.700   8.897  0.0319  0.1071  0.2967
 3438TP3     H122133   0.161   3.620   8.937 -0.7077 -0.4814 -0.2554
 3438TP3     H222134   0.208   3.746   8.868  0.4859 -0.1860  1.0447
 3439TP3      O22135   1.361   0.702   7.635 -0.2540  0.2703 -0.6562
 3439TP3     H122136   1.420   0.777   7.626  1.2131 -0.6243  0.9343
 3439TP3     H222137   1.332   0.684   7.546 -0.1106  2.2752 -1.1748
 3440TP3      O22138   3.227   3.024   0.397 -0.1159  0.5266 -0.4666
 3440TP3     H122139   3.320   3.030   0.420 -0.4233 -0.1025  1.0475
 3440TP3     H222140   3.216   2.934   0.365 -0.0660  0.8417 -1.4106
 3441TP3      O22141   3.439   2.251   7.060 -0.2954 -0.0004  0.5122
 3441TP3     H122142   3.462   2.251   7.153  3.9202  0.1587 -0.3612
 3441TP3     H222143   3.395   2.167   7.046  0.8093 -0.9353  2.3052
 3442TP3      O22144   0.230   3.564   9.693  0.2722 -0.5150  0.7853
 3442TP3     H122145   0.163   3.538   9.630  0.5750 -0.5813  0.4931
 3442TP3     H222146   0.296   3.608   9.641 -0.0607  0.5276  1.2240
 3443TP3      O22147   3.907   3.381   7.076 -0.2159  0.0150  0.1627
 3443TP3     H122148   3.947   3.468   7.068  2.4910 -1.1817 -0.4652
 3443TP3     H222149   3.956   3.338   7.145 -1.7682 -0.9538  0.7235
 3444TP3      O22150   0.710   3.271   7.693  0.1517 -0.1518 -0.0849
 3444TP3     H122151   0.777   3.261   7.761 -0.5939  2.1097  1.0908
 3444TP3     H222152   0.679   3.182   7.677  2.3616 -1.0871  0.4085
 3445TP3      O22153   2.501   2.597   8.528  0.1050  0.5445 -0.1136
 3445TP3     H122154   2.430   2.622   8.470  0.5954  1.1047 -0.4852
 3445TP3     H222155   2.539   2.519   8.487 -1.0505 -0.5123  0.7352
 3446TP3      O22156   3.344   5.217   9.805 -0.2682 -0.4806  0.0556
 3446TP3     H122157   3.282   5.208   9.877 -0.0855 -3.1051 -0.0126
 3446TP3     H222158   3.331   5.139   9.751  1.0563  0.3629 -1.6108
 3447TP3      O22159   2.745   1.540   7.941 -0.1226 -0.3212 -0.3072
 3447TP3     H122160   2.767   1.448   7.957 -0.9465 -0.2881  1.2844
 3447TP3     H222161   2.717   1.572   8.027  0.4372  1.5078 -0.7824
 3448TP3      O22162   0.090   3.058   9.261  0.1036  0.6922 -0.2458
 3448TP3     H122163   0.134   2.973   9.252 -0.8264  0.1174  0.4062
 3448TP3     H222164   0.015   3.052   9.202 -0.4274  0.7321  0.4176
 3449TP3      O22165   4.135   3.120   2.506  0.3160  0.1557  0.2038
 3449TP3     H122166   4.056   3.066   2.498 -0.2193  1.0171 -0.5878
 3449TP3     H222167   4.112   3.186   2.572  0.9957 -0.6050  1.2280
 3450TP3      O22168   3.267   1.849   0.663  0.2368 -0.6030  0.5988
 3450TP3     H122169   3.235   1.938   0.646  1.2801 -0.4635 -0.8089
 3450TP3     H222170   3.187   1.798   0.677 -0.3768  0.5510  1.5060
 3451TP3      O22171   0.326   0.061   8.133  0.4514  0.0732 -0.1898
 3451TP3     H122172   0.290  -0.007   8.190  0.5972 -0.1690 -0.3809
 3451TP3     H222173   0.354   0.013   8.054  1.3588  0.2256  0.0254
 3452TP3      O22174   3.898   3.082   9.676 -0.4362 -0.6830  0.1457
 3452TP3     H122175   3.944   3.055   9.596 -1.2449 -0.6678 -0.3343
 3452TP3     H222176   3.922   3.173   9.689 -0.1361 -0.7471  0.0357
 3453TP3      O22177   5.191   4.713   1.168  0.3754  0.2274 -0.1186
 3453TP3     H122178   5.253   4.689   1.236 -1.8985 -0.0939  1.9440
 3453TP3     H222179   5.225   4.796   1.133  0.7334  1.3472  2.6272
 3454TP3      O22180   1.834   3.010   0.271 -0.5253  0.1131 -0.3263
 3454TP3     H122181   1.747   3.039   0.299 -0.0299 -0.7788  2.4718
 3454TP3     H222182   1.882   3.091   0.254 -0.8805  0.7903  1.6134
 3455TP3      O22183   1.446   1.539   9.569  0.4638 -0.2556 -0.0937
 3455TP3     H122184   1.371   1.538   9.629  0.4159  1.3295 -0.0884
 3455TP3     H222185   1.459   1.447   9.545 -1.4129 -0.5722 -0.0212
 3456TP3      O22186   3.943   0.704   1.037 -0.0051 -0.1493  0.0998
 3456TP3     H122187   4.007   0.764   0.998  0.7452 -0.3420  1.0116
 3456TP3     H222188   3.865   0.759   1.049  0.3956  0.4286  0.1382
 3457TP3      O22189   2.071   3.168   2.148  0.0437  0.4442  0.2375
 3457TP3     H122190   2.151   3.216   2.125 -0.5950  0.8155 -1.3424
 3457TP3     H222191   2.101   3.096   2.205  1.4669  0.6647 -0.2054
 3458TP3      O22192   1.260   4.330   9.494  0.1493  0.1294  0.3627
 3458TP3     H122193   1.351   4.299   9.494  0.1014 -0.0129  0.4476
 3458TP3     H222194   1.242   4.348   9.587  0.2395  0.5936  0.2896
 3459TP3      O22195   2.547   2.276   7.804  0.2658 -0.0319 -0.0724
 3459TP3     H122196   2.640   2.282   7.781  0.3069 -0.8396 -0.1529
 3459TP3     H222197   2.530   2.182   7.807 -0.1478  0.0615  1.5662
 3460TP3      O22198   0.942   4.218   6.588  0.1340 -0.4537  0.0792
 3460TP3     H122199   0.954   4.312   6.583  1.7043 -0.6283 -0.1051
 3460TP3     H222200   0.999   4.191   6.660  0.7240 -1.3961 -0.7100
 3461TP3      O22201   3.694   0.350   1.087 -0.0897  0.6236  0.2437
 3461TP3     H122202   3.683   0.255   1.079 -0.2186  0.7325 -1.0917
 3461TP3     H222203   3.772   0.360   1.142 -2.1321 -0.1914  3.6237
 3462TP3      O22204   1.509   5.150   0.127 -0.2684 -0.9189  0.0359
 3462TP3     H122205   1.551   5.204   0.060  2.7932 -1.1231  1.6091
 3462TP3     H222206   1.486   5.069   0.081  0.5021 -0.5231 -1.0884
 3463TP3      O22207   4.044   2.531   7.249  0.1249  0.7688  0.0398
 3463TP3     H122208   4.066   2.474   7.176  2.6220 -0.3497  1.5027
 3463TP3     H222209   4.125   2.579   7.267 -0.4357  1.1187  1.9264
 3464TP3      O22210   0.931   2.293   9.554 -0.1546  0.4068  0.0621
 3464TP3     H122211   1.005   2.289   9.493 -0.3037  0.1758 -0.1063
 3464TP3     H222212   0.866   2.347   9.509  0.0189  0.8433  0.3290
 3465TP3      O22213   3.590   3.566   9.452  0.1743 -0.0327 -0.2714
 3465TP3     H122214   3.667   3.545   9.399  1.0748 -1.3096  1.4549
 3465TP3     H222215   3.605   3.655   9.483 -0.4588  0.8112 -2.2395
 3466TP3      O22216   5.128   4.530   8.076 -0.1555  0.3198 -0.0134
 3466TP3     H122217   5.119   4.491   7.989  2.8236 -0.7890  0.0803
 3466TP3     H222218   5.121   4.456   8.136 -0.4411  0.8321  0.5954
 3467TP3      O22219   0.614   0.792   2.460  0.9695  0.2963 -0.0984
 3467TP3     H122220   0.639   0.846   2.385 -1.3024 -0.6994 -1.6702
 3467TP3     H222221   0.654   0.707   2.443  1.5131  0.4209  0.5086
 3468TP3      O22222   3.445   0.598   3.503 -0.9946  0.1403 -0.2467
 3468TP3     H122223   3.460   0.690   3.479 -1.9299  0.8641  1.6891
 3468TP3     H222224   3.357   0.579   3.472 -2.1721  1.0513  2.2730
 3469TP3      O22225   1.374   4.590   2.372 -0.3144  0.2122  0.3215
 3469TP3     H122226   1.441   4.601   2.304 -2.3439 -1.1823 -2.0677
 3469TP3     H222227   1.363   4.677   2.408  0.8786  1.0170 -1.1121
 3470TP3      O22228   3.983   4.881   2.791 -0.6643 -0.3444  0.1811
 3470TP3     H122229   4.029   4.855   2.871 -2.0042 -2.4147  0.3408
 3470TP3     H222230   3.967   4.799   2.745 -2.1295  0.5643 -1.0027
 3471TP3      O22231   0.681   5.133   2.023  0.7164  0.5024 -0.8357
 3471TP3     H122232   0.589   5.149   2.001  0.0855 -0.7614  0.6752
 3471TP3     H222233   0.722   5.115   1.938 -0.3289  1.4678 -1.5819
 3472TP3      O22234   1.525   2.957   8.417  0.3012  0.1755  0.0503
 3472TP3     H122235   1.593   2.890   8.413 -1.5540 -1.8288 -0.2440
 3472TP3     H222236   1.516   2.977   8.510  0.2615 -0.6838  0.2395
 3473TP3      O22237   1.003   2.207   7.912 -0.4598 -0.4671  0.2083
 3473TP3     H122238   1.079   2.182   7.964 -1.4620 -1.7122  1.1519
 3473TP3     H222239   1.012   2.301   7.899  2.7263 -0.9234 -2.2295
 3474TP3      O22240   2.237   3.510   1.395  0.4187 -0.2035 -0.1423
 3474TP3     H122241   2.317   3.474   1.358 -1.2265 -0.8994 -3.3379
 3474TP3     H222242   2.232   3.599   1.359 -0.8364 -0.6188 -1.0642
 3475TP3      O22243   1.129   4.310   8.364  0.2420  0.0926  0.1929
 3475TP3     H122244   1.115   4.402   8.344 -0.8087  0.5088  2.5388
 3475TP3     H222245   1.043   4.277   8.388  0.9181 -1.0113  1.1951
 3476TP3      O22246   2.228   5.111   3.551 -0.3576  0.4540 -0.3486
 3476TP3     H122247   2.148   5.058   3.560 -0.0958  0.2079  0.6510
 3476TP3     H222248   2.284   5.060   3.492 -0.9866  0.7112 -1.2024
 3477TP3      O22249   2.906   2.471   7.825 -0.3378  0.0345 -0.1881
 3477TP3     H122250   2.962   2.429   7.890  0.1822 -0.5979 -1.0228
 3477TP3     H222251   2.952   2.552   7.802 -0.0361 -0.2103 -0.4603
 3478TP3      O22252   0.276   1.333   2.343 -0.6191 -0.3768  0.0398
 3478TP3     H122253   0.323   1.268   2.291 -1.0434 -0.1621 -0.6238
 3478TP3     H222254   0.193   1.346   2.296 -1.2590 -0.6056  1.0847
 3479TP3      O22255   1.611   1.360   9.836 -0.2300  0.7511  0.0236
 3479TP3     H122256   1.519   1.383   9.821 -0.9906 -1.4804  0.8603
 3479TP3     H222257   1.608   1.288   9.899  2.1172  0.6513  0.1215
 3480TP3      O22258   3.867   1.141   8.660  0.0275 -1.0196 -0.6734
 3480TP3     H122259   3.900   1.224   8.627 -0.3505 -0.8722 -0.6824
 3480TP3     H222260   3.914   1.075   8.609  2.8995 -0.9604  1.5854
 3481TP3      O22261   4.267   3.611   9.433  0.1122 -0.3238 -0.2027
 3481TP3     H122262   4.336   3.621   9.368 -0.1326  1.2232 -0.2618
 3481TP3     H222263   4.306   3.643   9.515  0.4264 -2.2700  0.4632
 3482TP3      O22264   0.218   1.474   0.420 -0.2477  0.4275  0.1440
 3482TP3     H122265   0.275   1.412   0.375 -0.2693  0.6812 -0.2312
 3482TP3     H222266   0.265   1.557   0.418 -0.1330  0.3839  0.8197
 3483TP3      O22267   2.254   4.327   1.362  0.2498 -0.1163  0.3636
 3483TP3     H122268   2.173   4.377   1.370 -0.3878 -1.3892  3.0346
 3483TP3     H222269   2.323   4.394   1.363 -0.6686  0.8665  0.5040
 3484TP3      O22270   2.957   0.409   7.903 -0.0723  0.0754 -0.0475
 3484TP3     H122271   2.878   0.356   7.893  0.2472 -0.4503  0.1523
 3484TP3     H222272   3.001   0.372   7.979  0.0517  0.7724  0.2287
 3485TP3      O22273   1.157   1.371   3.346  0.1196 -0.0327  0.3404
 3485TP3     H122274   1.065   1.360   3.371  0.5181 -3.1822  0.7991
 3485TP3     H222275   1.172   1.305   3.278  2.5924 -1.3566  2.0181
 3486TP3      O22276   5.180   2.513   2.307 -0.5902  0.2735 -0.1872
 3486TP3     H122277   5.106   2.574   2.313 -0.4479  0.6905 -2.0162
 3486TP3     H222278   5.251   2.557   2.353 -0.7999  1.0298 -0.5644
 3487TP3      O22279   4.420   1.468   8.408  0.0870  0.2733  0.0320
 3487TP3     H122280   4.388   1.487   8.496 -1.0855 -4.6949  0.9648
 3487TP3     H222281   4.350   1.500   8.350 -1.4226 -0.6589  1.2872
 3488TP3      O22282   3.313   4.433   2.589  0.4590 -0.2554 -0.2790
 3488TP3     H122283   3.315   4.529   2.593 -0.2061 -0.2286 -0.5413
 3488TP3     H222284   3.392   4.406   2.636  1.0865  0.4406 -0.8856
 3489TP3      O22285   2.236   0.018   8.638  0.5041  0.5409  0.0436
 3489TP3     H122286   2.304   0.063   8.587  2.5033 -2.8763 -0.6555
 3489TP3     H222287   2.268   0.022   8.728 -0.2220  1.8686  0.2735
 3490TP3      O22288   4.512   0.931   7.788  0.1923  0.4012  0.3027
 3490TP3     H122289   4.581   0.865   7.797 -0.5248 -0.3113  0.7005
 3490TP3     H222290   4.515   0.980   7.870  0.4930  0.6430  0.1500
 3491TP3      O22291   1.975   4.958   2.452  0.5777  0.4199 -0.3755
 3491TP3     H122292   1.996   4.878   2.499  0.2085 -0.4538 -1.6435
 3491TP3     H222293   1.890   4.985   2.486  0.1239 -0.4328 -0.8040
 3492TP3      O22294   0.322   1.084   2.236  0.2397  0.6759 -0.2266
 3492TP3     H122295   0.367   1.043   2.162  2.8726  1.1886  0.9722
 3492TP3     H222296   0.273   1.012   2.277  0.1683  0.0129 -1.4345
 3493TP3      O22297   3.360   3.033   9.413 -0.2736  0.6621  0.3393
 3493TP3     H122298   3.269   3.012   9.434 -0.3860  0.9759  0.1641
 3493TP3     H222299   3.402   3.045   9.499  0.1022 -1.4827  0.5243
 3494TP3      O22300   4.320   3.723   1.758 -0.3111 -0.7959  0.3001
 3494TP3     H122301   4.359   3.772   1.830 -0.3766 -0.6962  0.2685
 3494TP3     H222302   4.229   3.708   1.786 -0.4034 -0.5461  0.1319
 3495TP3      O22303   0.880   0.028   6.866 -0.0018 -0.5285  0.0673
 3495TP3     H122304   0.853  -0.001   6.779 -0.8891  0.3903  0.0207
 3495TP3     H222305   0.813  -0.008   6.925 -0.4597  0.4076  0.1391
 3496TP3      O22306   1.078   0.358   3.392 -0.5424 -0.2352  0.0377
 3496TP3     H122307   1.173   0.364   3.388 -0.5383 -0.9600 -2.1486
 3496TP3     H222308   1.052   0.429   3.451  1.3546 -0.4180  1.1854
 3497TP3      O22309   3.196   3.068   0.683  0.1818  0.8496  0.1664
 3497TP3     H122310   3.267   3.012   0.716  0.0259  0.8401  0.4830
 3497TP3     H222311   3.183   3.038   0.593 -0.6292 -0.3520  0.6724
 3498TP3      O22312   1.356   3.422   9.345  0.1378  0.1004  0.4156
 3498TP3     H122313   1.405   3.384   9.418  0.4455 -1.3020 -0.4810
 3498TP3     H222314   1.420   3.426   9.273 -1.0447 -1.9357 -0.8405
 3499TP3      O22315   3.796   1.612   9.863  0.6399 -0.3931  0.3410
 3499TP3     H122316   3.802   1.656   9.948  0.2498  0.6002 -0.1286
 3499TP3     H222317   3.715   1.561   9.869 -0.5224  1.2948 -0.1306
 3500TP3      O22318   4.186   1.028   8.987 -0.1452  0.3072  0.3921
 3500TP3     H122319   4.280   1.047   8.979  0.2570 -1.6132  0.1284
 3500TP3     H222320   4.183   0.939   9.021 -1.8836 -0.3035 -1.2559
 3501TP3      O22321   2.638   4.649   9.234 -0.3286 -0.1690  0.0204
 3501TP3     H122322   2.609   4.650   9.143  0.7130 -2.0066 -0.3846
 3501TP3     H222323   2.615   4.736   9.268 -0.8292  0.5122 -1.9455
 3502TP3      O22324   5.280   3.620   6.458 -0.0269 -0.3755  0.2059
 3502TP3     H122325   5.357   3.674   6.438 -0.7501  0.1821 -1.2418
 3502TP3     H222326   5.307   3.532   6.434  0.0176 -0.1086 -0.7672
 3503TP3      O22327   0.458   2.408   7.246 -0.1219 -0.2782 -0.2035
 3503TP3     H122328   0.549   2.381   7.233 -0.2850 -1.1129  0.3181
 3503TP3     H222329   0.415   2.391   7.162 -0.0323 -0.8914 -0.1305
 3504TP3      O22330   2.625   0.821   1.075 -0.9472  0.4362  0.4094
 3504TP3     H122331   2.553   0.854   1.130 -0.3454  0.7244  1.0395
 3504TP3     H222332   2.592   0.828   0.986 -1.4203  1.3103  0.6346
 3505TP3      O22333   3.347   1.750   1.676 -0.5777 -0.2577  0.1926
 3505TP3     H122334   3.282   1.750   1.746  0.8154  0.1500  1.5490
 3505TP3     H222335   3.373   1.842   1.669  0.7410 -0.5856  0.5676
 3506TP3      O22336   2.306   1.509   1.615  0.4815 -0.1090  0.0205
 3506TP3     H122337   2.263   1.546   1.692 -1.4180  0.0921 -1.0753
 3506TP3     H222338   2.389   1.476   1.648  0.7406  1.9947  1.7204
 3507TP3      O22339   1.043   3.872   2.020  0.2230 -0.0563 -0.2185
 3507TP3     H122340   1.128   3.835   1.996  0.3460 -1.1378  1.6632
 3507TP3     H222341   1.041   3.957   1.977  1.5139 -0.7190 -1.6997
 3508TP3      O22342   0.599   1.781   8.532 -0.3398 -1.0038 -0.9264
 3508TP3     H122343   0.653   1.734   8.469  0.1516 -1.1591 -0.3926
 3508TP3     H222344   0.512   1.786   8.491  0.1392 -0.5075 -1.9077
 3509TP3      O22345   2.078   0.597   9.760  0.4188 -0.4040  0.0304
 3509TP3     H122346   2.116   0.523   9.711  0.4067  0.3009 -1.0820
 3509TP3     H222347   2.069   0.564   9.849  1.4869 -1.3746 -0.1846
 3510TP3      O22348   2.812   2.918   8.548 -0.0573  0.2403 -0.7355
 3510TP3     H122349   2.797   2.997   8.599  0.7331  1.3546 -2.1664
 3510TP3     H222350   2.751   2.854   8.584 -1.3002  1.7446 -0.0800
 3511TP3      O22351   1.957   1.400   2.834  0.0400 -0.6098 -0.3652
 3511TP3     H122352   1.906   1.345   2.894 -0.2670  1.3214  1.2900
 3511TP3     H222353   1.988   1.341   2.766 -0.0503 -2.8351  1.4331
 3512TP3      O22354   3.880   3.108   8.241 -0.3973  0.6185 -0.0589
 3512TP3     H122355   3.966   3.146   8.221  0.5178 -0.9935  0.6098
 3512TP3     H222356   3.868   3.124   8.335  0.4797 -1.5418  0.4709
 3513TP3      O22357   2.605   4.174   1.692  0.1512 -0.3576 -0.0806
 3513TP3     H122358   2.510   4.177   1.694  0.1585 -0.3665  0.3498
 3513TP3     H222359   2.632   4.210   1.777  0.5289 -0.3206 -0.2149
 3514TP3      O22360   4.019   4.181   9.463  0.1223 -0.1991 -0.1882
 3514TP3     H122361   4.042   4.172   9.370 -0.2297  0.2061 -0.3188
 3514TP3     H222362   3.967   4.103   9.482  2.7174 -1.8710  0.4889
 3515TP3      O22363   3.502   0.363   0.516 -0.1406  0.0658 -0.3451
 3515TP3     H122364   3.412   0.384   0.543  0.5027  0.7512  1.3606
 3515TP3     H222365   3.525   0.286   0.568 -0.7130 -1.9906 -2.9251
 3516TP3      O22366   0.108   3.757   9.252  0.5435 -0.2139  0.0760
 3516TP3     H122367   0.094   3.851   9.249  0.1759 -0.2537  0.4860
 3516TP3     H222368   0.022   3.719   9.236  0.6122 -0.4763  0.3253
 3517TP3      O22369   1.865   4.128   6.636 -0.5634  0.1822  0.3972
 3517TP3     H122370   1.848   4.184   6.560 -0.2738  0.6607  0.6824
 3517TP3     H222371   1.797   4.060   6.630 -2.5875  1.9792  1.4403
 3518TP3      O22372   4.614   1.477   7.807  0.0905 -0.0164 -0.2912
 3518TP3     H122373   4.612   1.550   7.869  0.4844 -0.5753  0.3999
 3518TP3     H222374   4.648   1.514   7.726 -0.3640  0.7142 -0.1529
 3519TP3      O22375   2.846   5.208   1.896  0.6658  0.2577 -0.1725
 3519TP3     H122376   2.909   5.150   1.939 -0.6243 -0.4344  0.8781
 3519TP3     H222377   2.850   5.289   1.947  0.3876  0.0513  0.1846
 3520TP3      O22378   2.430   2.710   1.632  0.0299  0.4336  0.1791
 3520TP3     H122379   2.510   2.709   1.684  0.2024  0.8322 -0.0782
 3520TP3     H222380   2.393   2.622   1.643  0.4187  0.3010  0.4250
 3521TP3      O22381   4.643   4.829   1.786  0.2349  0.4718 -0.0437
 3521TP3     H122382   4.652   4.879   1.867  0.1660 -0.6718  0.7068
 3521TP3     H222383   4.587   4.883   1.731 -1.1191  0.5530  1.3310
 3522TP3      O22384   1.133   0.712   1.858 -0.0955  0.0059 -0.0884
 3522TP3     H122385   1.173   0.758   1.932  0.7261  1.4056 -1.3492
 3522TP3     H222386   1.201   0.711   1.791 -0.9505 -0.9053 -0.9744
 3523TP3      O22387   3.910   0.934   8.341  0.2298 -0.3596  0.1859
 3523TP3     H122388   3.923   0.840   8.356  1.8299  0.0538  1.6570
 3523TP3     H222389   3.998   0.971   8.338 -0.3608  1.0756 -0.6843
 3524TP3      O22390   0.244   0.791   7.037  0.5835  0.0138  0.1414
 3524TP3     H122391   0.297   0.719   7.069  0.7201 -0.2718 -0.6954
 3524TP3     H222392   0.165   0.789   7.090  0.7634 -0.4911  0.3910
 3525TP3      O22393   5.048   1.285   0.272  0.5817 -0.0826 -0.0898
 3525TP3     H122394   5.137   1.258   0.250  0.7542  0.6364 -0.2808
 3525TP3     H222395   5.054   1.379   0.288  0.0227 -0.1690  0.7527
 3526TP3      O22396   2.555   3.522   2.793 -0.4276 -0.0855  0.6867
 3526TP3     H122397   2.505   3.570   2.859  0.1121 -0.1144  1.1250
 3526TP3     H222398   2.495   3.453   2.763 -0.2002 -0.9697  2.1834
 3527TP3      O22399   1.748   2.690   2.015  0.2212 -0.3937 -0.3967
 3527TP3     H122400   1.672   2.681   1.957 -0.7096 -0.5321  0.7988
 3527TP3     H222401   1.745   2.613   2.071 -0.6124  1.0690  1.7227
 3528TP3      O22402   5.021   5.028   7.719 -0.2961  0.9142 -0.1029
 3528TP3     H122403   4.988   5.065   7.800 -0.5796 -0.4515  0.4355
 3528TP3     H222404   4.950   4.972   7.687 -0.9342  2.8487 -2.3077
 3529TP3      O22405   2.679   3.973   1.217  0.0137 -0.5643  0.2742
 3529TP3     H122406   2.725   3.976   1.301 -1.4588 -0.6012  1.1185
 3529TP3     H222407   2.700   3.886   1.182  1.9126  0.0215 -0.2009
 3530TP3      O22408   2.812   3.168   9.062 -0.0146  0.4487  0.4779
 3530TP3     H122409   2.809   3.215   9.146  0.2590  1.2703  0.0344
 3530TP3     H222410   2.720   3.155   9.039 -0.1018  0.9946  0.4887
 3531TP3      O22411   3.021   1.086   7.964  0.0417  0.1865  0.7595
 3531TP3     H122412   3.080   1.052   8.031  0.0156  1.8738  1.6933
 3531TP3     H222413   2.971   1.010   7.936  1.7379 -1.0457  0.8648
 3532TP3      O22414   4.621   5.081   8.719 -0.3851 -0.5738  0.2151
 3532TP3     H122415   4.638   5.157   8.773 -0.1445 -1.8937  2.0920
 3532TP3     H222416   4.704   5.062   8.675 -0.2505 -0.2016  0.3143
 3533TP3      O22417   4.446   3.726   1.234 -0.0248  0.1843 -0.1089
 3533TP3     H122418   4.460   3.770   1.318  0.8007 -0.1845 -0.0494
 3533TP3     H222419   4.523   3.671   1.222 -0.2991 -0.0329 -0.9476
 3534TP3      O22420   2.420   2.025   8.354 -0.1328  0.1815 -0.7491
 3534TP3     H122421   2.502   2.042   8.400  0.8794 -0.5856 -2.1717
 3534TP3     H222422   2.360   2.092   8.386  0.8674  0.4344  0.7323
 3535TP3      O22423   2.589   1.185   8.155 -0.3544 -0.2906 -0.2020
 3535TP3     H122424   2.605   1.245   8.228  1.5168 -0.2647 -0.5920
 3535TP3     H222425   2.537   1.114   8.194  0.0485  0.0507  1.0044
 3536TP3      O22426   5.133   1.124   8.630  0.3713 -0.1010  0.0971
 3536TP3     H122427   5.151   1.047   8.684 -0.3567 -0.0243  0.4581
 3536TP3     H222428   5.162   1.198   8.683  2.9581 -0.1974 -1.0420
 3537TP3      O22429   3.599   4.684   9.622 -0.1513 -0.3618  0.3718
 3537TP3     H122430   3.568   4.722   9.541 -0.6005 -0.3196  0.5609
 3537TP3     H222431   3.529   4.625   9.650  0.7413 -1.7552 -0.1886
 3538TP3      O22432   2.911   1.567   1.129 -0.6087 -0.2170 -0.1924
 3538TP3     H122433   2.934   1.511   1.202  0.4625 -0.5975 -0.8007
 3538TP3     H222434   2.825   1.604   1.153 -0.4064 -0.5425  1.1078
 3539TP3      O22435   4.874   2.157   9.331 -0.1563  0.4878  1.1216
 3539TP3     H122436   4.964   2.125   9.336 -0.2642 -0.5196 -1.5623
 3539TP3     H222437   4.857   2.196   9.417  2.4681 -0.2131  2.0460
 3540TP3      O22438   5.169   2.119   1.424 -0.2997  0.1196  0.0042
 3540TP3     H122439   5.243   2.152   1.373 -0.4775 -2.0353 -1.8064
 3540TP3     H222440   5.185   2.151   1.513  2.7432 -0.1088 -0.3395
 3541TP3      O22441   2.860   2.020   7.620  0.2564 -0.3304 -0.1382
 3541TP3     H122442   2.851   2.068   7.702  1.2939 -0.3039 -0.0227
 3541TP3     H222443   2.784   1.962   7.618  0.8530 -1.2302  1.4640
 3542TP3      O22444   2.580   4.008   8.963  0.3532 -0.3452  0.1227
 3542TP3     H122445   2.524   3.931   8.959  0.0629 -0.1271 -0.0112
 3542TP3     H222446   2.663   3.978   8.923 -0.1138 -0.2869 -0.9291
 3543TP3      O22447   4.111   4.293   8.915  0.6630 -0.1676 -0.0287
 3543TP3     H122448   4.056   4.336   8.850 -1.8984 -1.1821  1.3411
 3543TP3     H222449   4.143   4.365   8.970 -0.4514  0.3582 -0.0365
 3544TP3      O22450   0.521   2.342   0.666 -1.3322  0.3306  0.6413
 3544TP3     H122451   0.565   2.301   0.741  0.9725  1.1032 -0.1804
 3544TP3     H222452   0.440   2.294   0.657 -1.4409 -0.1671  3.2699
 3545TP3      O22453   2.017   2.287   2.305 -0.0314 -0.4344  0.5391
 3545TP3     H122454   2.099   2.284   2.355  0.3729 -0.9131 -0.1351
 3545TP3     H222455   1.997   2.195   2.286 -0.9106 -0.3435  0.9811
 3546TP3      O22456   4.143   2.612   2.022 -0.2635  0.3270 -0.2920
 3546TP3     H122457   4.053   2.643   2.017 -0.1997  0.8989  1.4906
 3546TP3     H222458   4.189   2.663   1.955 -1.1935  0.2598 -0.9994
 3547TP3      O22459   4.152   2.879   8.346  0.0352  0.1512  0.5329
 3547TP3     H122460   4.131   2.852   8.435  1.0322 -0.9871  0.4426
 3547TP3     H222461   4.106   2.817   8.290 -0.7213  0.9604  0.2290
 3548TP3      O22462   3.855   3.800   1.085  0.5580 -0.4797 -0.5085
 3548TP3     H122463   3.897   3.725   1.127  0.8408  1.6813  3.5100
 3548TP3     H222464   3.927   3.853   1.052  0.4067 -1.2502 -2.1896
 3549TP3      O22465   2.793   1.574   2.343 -0.5508 -0.7147  0.3043
 3549TP3     H122466   2.718   1.520   2.321 -0.6347  0.0413 -1.4454
 3549TP3     H222467   2.867   1.532   2.299 -0.4259 -0.0196 -0.1633
 3550TP3      O22468   2.788   2.447   9.501 -0.4028 -0.0404 -0.0541
 3550TP3     H122469   2.757   2.522   9.552 -0.5870 -0.6113  0.6891
 3550TP3     H222470   2.761   2.371   9.552  1.7369 -0.5938  0.3503
 3551TP3      O22471   4.867   1.519   8.421 -0.0007 -0.5145 -0.2364
 3551TP3     H122472   4.951   1.510   8.466  0.3886  0.4136 -0.7412
 3551TP3     H222473   4.808   1.461   8.468  0.1695  1.0096  1.9916
 3552TP3      O22474   0.339   2.670   8.820  0.1133 -0.2990 -0.6384
 3552TP3     H122475   0.312   2.612   8.891 -0.2324 -1.8121 -1.9242
 3552TP3     H222476   0.435   2.676   8.828  0.1955 -1.3767 -0.6912
 3553TP3      O22477   3.298   3.274   7.658  0.3939  0.2633 -0.4270
 3553TP3     H122478   3.313   3.228   7.575 -1.0958  0.1096 -0.6472
 3553TP3     H222479   3.366   3.242   7.716 -0.8432 -2.6744 -0.4184
 3554TP3      O22480   2.132   1.714   2.114  0.1588  0.0268  0.1619
 3554TP3     H122481   2.095   1.638   2.069 -0.2600 -0.6258  1.5728
 3554TP3     H222482   2.112   1.700   2.206 -0.1333  1.9728  0.4406
 3555TP3      O22483   3.951   3.723   0.117  0.7802  0.3426  0.0691
 3555TP3     H122484   3.995   3.657   0.064 -0.7858  0.1288 -1.0397
 3555TP3     H222485   3.860   3.694   0.120  0.0596  2.3758 -0.3840
 3556TP3      O22486   0.616   2.676   8.547  0.1611 -0.4916 -0.4692
 3556TP3     H122487   0.668   2.751   8.517  0.7849 -0.5367  0.4523
 3556TP3     H222488   0.596   2.696   8.639 -1.7871 -0.3068 -0.8898
 3557TP3      O22489   3.831   3.528   7.517  0.2276 -0.0463  0.5816
 3557TP3     H122490   3.743   3.496   7.535  0.0518  1.1924  2.0925
 3557TP3     H222491   3.886   3.483   7.582  0.2411  1.3186  1.5527
 3558TP3      O22492   0.563   5.146   3.375 -0.0541 -0.6281  0.2956
 3558TP3     H122493   0.600   5.231   3.350 -0.9551 -0.0289  0.9584
 3558TP3     H222494   0.469   5.155   3.360 -0.0628 -1.8664 -0.6024
 3559TP3      O22495   3.870   3.420   1.235  0.2119 -0.2768 -0.4195
 3559TP3     H122496   3.781   3.388   1.239 -0.3264  0.8058 -2.1982
 3559TP3     H222497   3.884   3.465   1.318 -1.1221  0.0625 -0.3677
 3560TP3      O22498   0.576   4.287   9.132 -0.2924 -0.7085  0.0573
 3560TP3     H122499   0.528   4.335   9.064 -1.4993 -0.5649  0.9664
 3560TP3     H222500   0.517   4.215   9.156  0.2836 -0.9847  0.6757
 3561TP3      O22501   2.567   1.187   0.797 -0.1068  0.2196 -0.0854
 3561TP3     H122502   2.528   1.099   0.798  1.0025 -0.3542 -2.0229
 3561TP3     H222503   2.659   1.173   0.818  0.0341  0.9690 -0.1693
 3562TP3      O22504   3.298   2.209   0.248  0.5831 -0.0755 -0.0477
 3562TP3     H122505   3.379   2.258   0.235 -0.0100  0.8818 -0.2375
 3562TP3     H222506   3.265   2.193   0.159 -0.5141  1.4177  0.0512
 3563TP3      O22507   1.587   5.044   2.783  0.1767  0.4813 -0.4812
 3563TP3     H122508   1.662   5.045   2.843  0.5312 -1.5529 -0.7915
 3563TP3     H222509   1.515   5.010   2.837  0.7679 -2.4816 -1.3480
 3564TP3      O22510   3.659   3.199   7.448  0.2816  0.5524  0.5394
 3564TP3     H122511   3.638   3.272   7.506 -0.0442  0.5257  0.4518
 3564TP3     H222512   3.577   3.153   7.435  0.2721  0.7667 -0.2407
 3565TP3      O22513   5.173   3.616   8.800  0.1552  0.1669 -0.6665
 3565TP3     H122514   5.246   3.656   8.847  1.1285 -1.6009 -0.5687
 3565TP3     H222515   5.107   3.602   8.868  0.4138  0.2146 -0.3998
 3566TP3      O22516   0.531   4.892   1.467 -0.5683 -0.4756  0.3955
 3566TP3     H122517   0.440   4.914   1.488 -0.4677 -0.6695  1.0573
 3566TP3     H222518   0.541   4.801   1.494 -0.3583 -0.6613 -0.2903
 3567TP3      O22519   3.705   0.716   3.824  0.2593  0.0425  0.4100
 3567TP3     H122520   3.692   0.628   3.788 -1.7564  0.7400 -0.7445
 3567TP3     H222521   3.753   0.763   3.755  1.4196 -0.1242  1.0644
 3568TP3      O22522   4.346   1.164   8.457  0.6189  0.2374 -0.2545
 3568TP3     H122523   4.380   1.163   8.368  0.9456  0.0954 -0.1286
 3568TP3     H222524   4.380   1.084   8.497 -0.7307 -0.4607 -0.4439
 3569TP3      O22525   1.725   2.339   0.443 -0.0559  0.5133 -0.0529
 3569TP3     H122526   1.687   2.257   0.411  4.5961 -1.8092 -0.4955
 3569TP3     H222527   1.705   2.403   0.375 -1.8859 -0.8235 -0.8507
 3570TP3      O22528   5.225   2.253   0.029 -0.1345 -0.2259  0.0050
 3570TP3     H122529   5.181   2.328  -0.012  0.6729  0.9805  1.2769
 3570TP3     H222530   5.154   2.199   0.063 -0.6977  0.4576 -0.0691
 3571TP3      O22531   3.428   2.551   7.488 -0.3908 -0.0458  0.5578
 3571TP3     H122532   3.470   2.550   7.403 -0.6786  0.3921  0.4009
 3571TP3     H222533   3.427   2.644   7.513  2.0421 -0.3884  2.2333
 3572TP3      O22534   1.982   3.089   9.232  0.1371  0.4197  0.4237
 3572TP3     H122535   1.996   2.995   9.225 -0.0969  0.4306 -0.2925
 3572TP3     H222536   1.925   3.111   9.158  1.7039  1.4214 -0.5453
 3573TP3      O22537   2.623   4.734   8.524  0.5729  0.1826  0.4947
 3573TP3     H122538   2.562   4.786   8.472  0.8664  0.6383  0.5949
 3573TP3     H222539   2.626   4.649   8.480  2.2827  1.1365 -1.4129
 3574TP3      O22540   1.752   2.463   7.670 -0.0413  0.6539  0.0920
 3574TP3     H122541   1.746   2.540   7.613 -2.6876  0.7527  0.3809
 3574TP3     H222542   1.801   2.494   7.747 -2.3542  2.5817  0.9080
 3575TP3      O22543   2.441   2.698   2.490 -0.2250  0.5698 -0.1699
 3575TP3     H122544   2.506   2.706   2.560 -0.3540  1.1086 -0.1068
 3575TP3     H222545   2.491   2.675   2.412  0.2339  2.3734 -0.4464
 3576TP3      O22546   4.416   5.262   9.918 -0.4803  0.0328 -1.0482
 3576TP3     H122547   4.370   5.346   9.914  0.7565  1.0467  2.5087
 3576TP3     H222548   4.356   5.204   9.963  0.5156  0.5804  1.1242
 3577TP3      O22549   4.245   1.661   1.576  0.4209  0.2968  0.2779
 3577TP3     H122550   4.262   1.569   1.598 -3.9146 -0.7487  0.1943
 3577TP3     H222551   4.215   1.699   1.659 -0.2364  0.8971 -0.2286
 3578TP3      O22552   3.006   1.354   9.841  0.8037 -0.0194 -0.1258
 3578TP3     H122553   3.086   1.375   9.890  1.8890 -1.8630 -0.9826
 3578TP3     H222554   3.013   1.260   9.825 -2.1395 -0.4727  0.7684
 3579TP3      O22555   2.668   1.310   9.156  0.0852  0.2627  0.2801
 3579TP3     H122556   2.633   1.399   9.153 -1.1387 -0.1824  0.5695
 3579TP3     H222557   2.616   1.262   9.092  2.2568  0.2349 -1.5585
 3580TP3      O22558   1.555   1.438   2.221  0.3239  0.6430  0.8862
 3580TP3     H122559   1.594   1.442   2.134 -0.6878 -1.6339  0.2726
 3580TP3     H222560   1.467   1.475   2.210 -0.0994 -0.3775  0.7252
 3581TP3      O22561   0.411   1.508   1.251 -0.4250  0.8542  0.4674
 3581TP3     H122562   0.330   1.552   1.225  0.0817  0.0272 -2.9590
 3581TP3     H222563   0.396   1.416   1.228  1.2419  0.5745  0.3972
 3582TP3      O22564   3.083   3.937   9.504  0.1288 -0.3391  0.7407
 3582TP3     H122565   3.023   3.896   9.441 -1.1087 -0.4144  1.9138
 3582TP3     H222566   3.026   3.991   9.559  1.1432 -0.4243  1.9167
 3583TP3      O22567   4.231   4.002   7.313  0.3660  0.5295  0.0517
 3583TP3     H122568   4.161   4.034   7.370 -0.2030 -0.2489 -0.1898
 3583TP3     H222569   4.185   3.952   7.245  0.9940  1.7267 -1.3063
 3584TP3      O22570   4.218   4.690   8.849  0.1416  0.5780 -0.5436
 3584TP3     H122571   4.186   4.684   8.759 -0.6143 -4.4135 -0.2461
 3584TP3     H222572   4.313   4.701   8.840  0.1373 -0.3870 -2.0221
 3585TP3      O22573   4.565   2.010   0.311  0.3244  0.6781  0.1281
 3585TP3     H122574   4.642   1.998   0.256 -1.1512 -0.5271 -1.8319
 3585TP3     H222575   4.597   1.999   0.401  2.5365  1.0409 -0.5521
 3586TP3      O22576   3.412   4.242   1.132 -0.3961 -0.6199 -0.0485
 3586TP3     H122577   3.438   4.197   1.212  1.9221  0.8133  0.0959
 3586TP3     H222578   3.461   4.198   1.063 -0.5498 -0.3123 -0.3571
 3587TP3      O22579   3.613   3.746   0.190  0.3241 -0.3789  0.7647
 3587TP3     H122580   3.585   3.837   0.191  0.8894 -0.1732 -0.5182
 3587TP3     H222581   3.581   3.712   0.107  2.8368 -0.4425 -0.2548
 3588TP3      O22582   2.268   2.942   7.262  0.1073  0.0859 -0.1040
 3588TP3     H122583   2.249   3.031   7.232  0.3922  0.5804  1.0971
 3588TP3     H222584   2.287   2.893   7.183 -1.0147  0.8559 -0.8809
 3589TP3      O22585   1.296   1.596   1.431  0.4921  0.7139 -0.0231
 3589TP3     H122586   1.266   1.674   1.383  0.5703  0.5540 -0.3362
 3589TP3     H222587   1.242   1.595   1.510  0.7019  1.2568  0.1314
 3590TP3      O22588   1.078   1.944   0.207 -0.2398 -0.0045  0.3203
 3590TP3     H122589   1.090   1.896   0.289 -1.1202 -0.7428  0.0321
 3590TP3     H222590   1.081   1.876   0.139  0.1780  0.5629 -0.2419
 3591TP3      O22591   2.355   0.014   2.491  0.6928  0.3707 -0.1075
 3591TP3     H122592   2.444   0.024   2.457  0.6058  1.5213 -0.0120
 3591TP3     H222593   2.329  -0.074   2.462  0.9043  1.0010 -2.3899
 3592TP3      O22594   3.012   3.030   1.430 -0.3955  0.2031 -0.0891
 3592TP3     H122595   2.999   3.065   1.518 -1.0159  2.3723 -0.9810
 3592TP3     H222596   3.092   2.978   1.437  1.1353  2.5699  1.1484
 3593TP3      O22597   0.188   1.490   8.845 -0.5938 -0.1303 -0.1968
 3593TP3     H122598   0.157   1.566   8.894 -0.2366 -2.0580  3.3411
 3593TP3     H222599   0.281   1.508   8.828 -1.0258  1.1101 -1.3702
 3594TP3      O22600   3.059   0.770   0.063  0.1542  0.3937 -0.1875
 3594TP3     H122601   3.088   0.717  -0.012  0.5700  2.5272 -1.6106
 3594TP3     H222602   3.002   0.711   0.113  0.3549 -1.2959 -1.8485
 3595TP3      O22603   2.475   3.150   9.422 -0.2775 -0.0105  0.1256
 3595TP3     H122604   2.383   3.173   9.432 -0.9743 -2.8103  0.9639
 3595TP3     H222605   2.475   3.074   9.363  1.7635  1.3905 -1.8510
 3596TP3      O22606   4.244   0.929   7.736 -0.1117 -0.2855  0.1705
 3596TP3     H122607   4.340   0.922   7.732 -0.2355 -4.3702  0.2598
 3596TP3     H222608   4.215   0.916   7.646 -0.5833 -2.9233  0.6311
 3597TP3      O22609   3.085   3.227   9.829 -0.4074  0.7258  0.0078
 3597TP3     H122610   3.117   3.138   9.814 -1.4493  0.1154  1.2058
 3597TP3     H222611   3.159   3.283   9.807 -0.0104 -0.3690 -1.6563
 3598TP3      O22612   0.439   1.308   0.049  0.4413 -0.8923 -0.8878
 3598TP3     H122613   0.504   1.282   0.114  0.8895  0.8820 -0.5816
 3598TP3     H222614   0.489   1.359  -0.015 -0.7351  1.1329 -0.2576
 3599TP3      O22615   2.016   3.056   8.386 -0.3339  0.2869 -0.1668
 3599TP3     H122616   2.056   3.124   8.332  0.2014 -0.4951 -0.7855
 3599TP3     H222617   1.923   3.078   8.387 -0.2038  0.8822 -0.5578
 3600TP3      O22618   4.971   1.688   3.431 -0.2380  0.2285 -0.2759
 3600TP3     H122619   5.017   1.759   3.477  0.4125  0.2387 -0.9293
 3600TP3     H222620   5.026   1.611   3.445 -1.8204 -0.6015  1.9270
 3601TP3      O22621   4.808   2.801   8.773 -0.1647  0.0531  0.1451
 3601TP3     H122622   4.835   2.813   8.682  0.8479 -0.5132  0.3537
 3601TP3     H222623   4.857   2.725   8.802 -2.9900 -1.8924  0.1840
 3602TP3      O22624   0.971   3.337   0.465 -0.3313 -0.4323  0.1510
 3602TP3     H122625   0.919   3.259   0.481  0.7312 -1.1179  0.3639
 3602TP3     H222626   1.008   3.325   0.378 -0.1083 -0.2023  0.2107
 3603TP3      O22627   1.631   1.167   8.245  0.2805  0.0781  0.6449
 3603TP3     H122628   1.597   1.215   8.321 -1.3444 -1.3911  0.9300
 3603TP3     H222629   1.718   1.203   8.230 -0.1032  1.7064  2.0353
 3604TP3      O22630   1.520   0.351   7.171 -0.3430  0.2571 -0.9834
 3604TP3     H122631   1.438   0.366   7.219  0.2514 -0.8059  0.4438
 3604TP3     H222632   1.540   0.258   7.187  2.3815  1.0267  0.7466
 3605TP3      O22633   0.029   4.235   1.304  0.0593  0.2865 -0.3608
 3605TP3     H122634  -0.056   4.214   1.341  0.0557 -0.0761 -0.5639
 3605TP3     H222635   0.075   4.282   1.373 -0.4798  0.9104 -0.4210
 3606TP3      O22636   1.548   4.332   9.574 -0.7147  0.2607  0.0824
 3606TP3     H122637   1.576   4.283   9.496 -0.1670  0.3304  0.2280
 3606TP3     H222638   1.544   4.267   9.643 -0.1555  0.3859  0.2369
 3607TP3      O22639   2.142   4.032   0.927 -0.1331  0.4606 -0.1294
 3607TP3     H122640   2.184   4.046   1.012  0.5740 -0.5606 -0.2980
 3607TP3     H222641   2.207   4.057   0.862  0.3257 -1.2648 -0.3937
 3608TP3      O22642   3.006   1.390   1.610 -0.3740  0.9086  0.4303
 3608TP3     H122643   3.022   1.450   1.682 -1.3103  0.6246  0.8902
 3608TP3     H222644   3.090   1.345   1.598 -0.5329  0.0385  2.2123
 3609TP3      O22645   4.675   0.712   7.726 -0.0911 -0.3782  0.0045
 3609TP3     H122646   4.602   0.715   7.664 -0.4560  0.5662  0.4471
 3609TP3     H222647   4.750   0.682   7.674 -0.7685 -1.2991 -0.4737
 3610TP3      O22648   4.108   2.841   9.911 -0.2936  0.7050 -0.7066
 3610TP3     H122649   4.035   2.812   9.966 -0.3998  1.9922 -0.1223
 3610TP3     H222650   4.100   2.789   9.831  0.2315 -1.6478  0.6974
 3611TP3      O22651   1.498   2.644   1.912  0.3200 -0.1501  0.3125
 3611TP3     H122652   1.427   2.660   1.849  1.4126 -0.0334 -0.9387
 3611TP3     H222653   1.485   2.710   1.980 -1.6115 -1.0702  0.8962
 3612TP3      O22654   2.211   0.874   8.394  0.3866  0.0225 -0.5571
 3612TP3     H122655   2.243   0.910   8.477 -0.4621 -0.6011  0.0585
 3612TP3     H222656   2.116   0.869   8.405  0.3019 -0.4691 -1.4076
 3613TP3      O22657   3.864   1.230   2.150 -0.2575 -0.3862 -0.0896
 3613TP3     H122658   3.933   1.288   2.115 -0.9238  1.2113  1.1107
 3613TP3     H222659   3.790   1.243   2.090 -0.6967  0.7348  0.6553
 3614TP3      O22660   3.097   2.696   0.243 -0.4962 -0.2572  0.1048
 3614TP3     H122661   3.007   2.707   0.212 -0.3737 -1.5527 -0.8043
 3614TP3     H222662   3.150   2.705   0.163  0.2995  1.5824  0.7881
 3615TP3      O22663   5.106   3.512   0.179 -0.1988 -0.5021 -0.1233
 3615TP3     H122664   5.099   3.568   0.257 -2.7980 -1.1292  0.1855
 3615TP3     H222665   5.148   3.432   0.211  1.1272  0.2227  0.0159
 3616TP3      O22666   3.613   1.004   9.399 -0.1610 -0.0335 -0.3836
 3616TP3     H122667   3.572   1.057   9.330  0.8219  0.2274 -0.7910
 3616TP3     H222668   3.690   0.966   9.356 -1.2383 -2.4509 -0.3428
 3617TP3      O22669   4.375   5.011   0.394 -0.0598 -0.0659  0.0109
 3617TP3     H122670   4.384   5.050   0.480 -2.3945 -0.8573  0.6969
 3617TP3     H222671   4.395   4.918   0.407  0.7674  0.0208 -0.5780
 3618TP3      O22672   4.694   1.555   2.877  0.3390  0.0030 -0.1407
 3618TP3     H122673   4.711   1.617   2.807  0.3818  1.4941  1.1226
 3618TP3     H222674   4.780   1.538   2.916  0.4783 -1.6772 -1.0933
 3619TP3      O22675   4.656   0.133   1.944 -0.2452 -0.6994  0.8125
 3619TP3     H122676   4.694   0.118   1.858  0.6992  0.5476  0.9693
 3619TP3     H222677   4.703   0.074   2.003 -1.5199 -2.2159  0.3709
 3620TP3      O22678   4.095   1.080   1.788 -0.3089 -0.4388 -0.6196
 3620TP3     H122679   4.128   1.062   1.876  0.7838 -0.7075 -1.0721
 3620TP3     H222680   4.074   1.174   1.789 -2.9077 -0.9510  0.7347
 3621TP3      O22681   0.951   4.393   7.016  0.0359 -0.3163 -0.2543
 3621TP3     H122682   0.955   4.435   6.930  0.8536 -1.3740 -0.7568
 3621TP3     H222683   0.859   4.369   7.026 -0.0530 -0.2620 -0.8764
 3622TP3      O22684   2.212   4.811   8.628 -0.7060 -0.0560  0.0219
 3622TP3     H122685   2.176   4.885   8.578 -0.5909  0.2335  0.3600
 3622TP3     H222686   2.135   4.761   8.656 -0.7609 -0.3112 -0.5851
 3623TP3      O22687   2.461   0.358   0.758 -0.1095  0.1385 -0.7056
 3623TP3     H122688   2.445   0.371   0.665  0.9549  0.6136 -0.8406
 3623TP3     H222689   2.485   0.266   0.766 -1.7157 -0.2941 -0.6590
 3624TP3      O22690   2.709   2.228   9.666 -0.5352 -0.7181 -0.1446
 3624TP3     H122691   2.717   2.191   9.754 -1.3861 -0.3373  0.0911
 3624TP3     H222692   2.616   2.246   9.655 -0.0945  2.1610  0.0706
 3625TP3      O22693   1.844   4.313   9.641 -0.2645  0.1888 -0.6018
 3625TP3     H122694   1.890   4.397   9.640  0.7070 -0.1670  2.3335
 3625TP3     H222695   1.765   4.331   9.693 -1.1990 -0.2610 -1.8178
 3626TP3      O22696   4.198   3.914   0.551  0.8511 -0.3132 -0.0691
 3626TP3     H122697   4.177   3.859   0.475 -1.9007 -0.6194  0.8229
 3626TP3     H222698   4.236   3.993   0.513  1.2153 -1.1736 -1.6199
 3627TP3      O22699   1.732   2.400   9.594 -0.3914  0.7176 -0.3239
 3627TP3     H122700   1.666   2.333   9.611  0.4205 -0.1561 -0.5090
 3627TP3     H222701   1.731   2.412   9.499  0.3103  0.0523 -0.4266
 3628TP3      O22702   5.188   0.844   9.516 -0.0276 -0.2915  0.2566
 3628TP3     H122703   5.205   0.928   9.473 -2.6359 -0.3036 -1.0437
 3628TP3     H222704   5.193   0.864   9.610 -0.8175  1.4309 -0.0143
 3629TP3      O22705   2.056   3.551   7.673 -0.1287 -0.2089  0.1183
 3629TP3     H122706   2.010   3.625   7.633 -0.7919 -0.5757  0.1880
 3629TP3     H222707   2.149   3.573   7.663 -0.2680 -0.2073 -1.4741
 3630TP3      O22708   3.167   1.414   2.598 -0.5958 -0.1759 -0.7198
 3630TP3     H122709   3.098   1.369   2.647  0.6959 -1.6405 -0.1811
 3630TP3     H222710   3.230   1.345   2.576  1.5233  1.3551  0.2232
 3631TP3      O22711   5.221   0.100   0.041  0.3040 -0.3400 -0.5443
 3631TP3     H122712   5.186   0.017   0.007  0.6243 -0.5388 -0.3961
 3631TP3     H222713   5.147   0.161   0.035  0.1846 -0.5260 -1.0357
 3632TP3      O22714   1.252   2.545   2.363  0.4238 -0.7782 -0.3870
 3632TP3     H122715   1.244   2.515   2.272 -0.4844  3.2954 -1.8927
 3632TP3     H222716   1.338   2.585   2.368  0.1458 -0.2464  0.2971
 3633TP3      O22717   3.620   1.860   9.714  0.0581  0.3096  0.6395
 3633TP3     H122718   3.597   1.774   9.679 -2.3962  0.4498  1.6688
 3633TP3     H222719   3.604   1.921   9.642 -0.1079  0.0879  0.4886
 3634TP3      O22720   3.400   5.222   1.605  0.3074 -0.4460 -0.0394
 3634TP3     H122721   3.379   5.281   1.533 -0.4786  1.9573  1.9910
 3634TP3     H222722   3.464   5.161   1.569 -0.1901  0.5128 -2.7761
 3635TP3      O22723   4.700   5.075   1.257  0.0671 -0.3143  0.2728
 3635TP3     H122724   4.708   5.086   1.162  1.6954  0.9052  0.5028
 3635TP3     H222725   4.720   4.982   1.271  0.3053 -0.4029 -0.5469
 3636TP3      O22726   2.807   0.228   8.803  0.1815 -0.2690  0.2033
 3636TP3     H122727   2.869   0.248   8.874 -0.3291  0.1079  0.5455
 3636TP3     H222728   2.721   0.228   8.845 -0.2641  1.1929 -0.6298
 3637TP3      O22729   4.189   2.593   1.109  0.3445  0.4393 -0.3551
 3637TP3     H122730   4.281   2.591   1.136 -0.1110  0.1998  1.3148
 3637TP3     H222731   4.175   2.509   1.066  1.1280  0.8631 -1.4785
 3638TP3      O22732   4.969   3.605   2.990  0.2580 -0.3973  0.3572
 3638TP3     H122733   5.016   3.530   3.027  0.1075 -1.2652 -1.1206
 3638TP3     H222734   4.958   3.665   3.064  0.0277 -1.9995  1.6946
 3639TP3      O22735   1.909   1.454   7.063  0.2182  0.2431 -0.0109
 3639TP3     H122736   1.907   1.522   6.995  2.6258  1.3241  0.8594
 3639TP3     H222737   1.936   1.375   7.016 -1.5887  0.0804 -0.8606
 3640TP3      O22738   1.056   3.526   7.047  0.6191  0.4336 -0.3679
 3640TP3     H122739   1.150   3.512   7.038  0.2665 -1.1057 -2.4973
 3640TP3     H222740   1.031   3.576   6.969 -0.3400  0.7319  0.1117
 3641TP3      O22741   1.870   4.120   9.869 -0.6950  0.4527 -0.1190
 3641TP3     H122742   1.958   4.143   9.837 -0.1765 -1.7084 -0.3966
 3641TP3     H222743   1.878   4.121   9.964 -0.2537 -0.0720 -0.1434
 3642TP3      O22744   3.439   2.489   0.371  0.0593  0.2094 -0.2063
 3642TP3     H122745   3.481   2.474   0.286 -1.1226 -0.7205 -0.6505
 3642TP3     H222746   3.465   2.414   0.424 -1.6878 -0.8461 -0.7672
 3643TP3      O22747   1.507   3.915   9.645 -0.5637  0.4808  0.1010
 3643TP3     H122748   1.451   3.927   9.722  0.3156 -0.8149  0.9809
 3643TP3     H222749   1.576   3.981   9.655 -1.1175  1.1244 -0.2345
 3644TP3      O22750   1.675   4.803   7.762  0.1964 -0.3916  0.5546
 3644TP3     H122751   1.591   4.841   7.735  1.5696  2.1709 -0.5079
 3644TP3     H222752   1.689   4.836   7.851  1.8107  2.7107 -0.6855
 3645TP3      O22753   3.510   0.204   2.814  0.2265  0.5711  0.3266
 3645TP3     H122754   3.480   0.162   2.894 -1.1788 -1.0951 -1.0058
 3645TP3     H222755   3.576   0.144   2.778  1.0121  1.4165  0.3018
 3646TP3      O22756   3.998   4.923   7.960 -0.1657 -0.2546  0.1038
 3646TP3     H122757   3.944   4.862   7.910  1.2835 -0.5983 -1.1186
 3646TP3     H222758   4.025   4.874   8.037  1.2343 -1.3326 -1.0183
 3647TP3      O22759   0.957   3.509   7.378  0.5900  0.2817 -0.3385
 3647TP3     H122760   1.039   3.496   7.424  1.0324 -0.4118 -1.2990
 3647TP3     H222761   0.978   3.496   7.286 -0.6717 -0.2898 -0.5698
 3648TP3      O22762   2.063   3.845   8.414  0.1342 -0.3012  0.2768
 3648TP3     H122763   2.137   3.792   8.383  0.4994 -0.3841  1.2444
 3648TP3     H222764   1.992   3.782   8.427 -0.1397 -0.2122 -0.7149
 3649TP3      O22765   1.879   4.138   0.987 -0.1473  0.4738 -0.3687
 3649TP3     H122766   1.906   4.193   1.060 -0.1779 -0.2936  0.2335
 3649TP3     H222767   1.957   4.086   0.966 -0.0870  0.8082 -1.0006
 3650TP3      O22768   1.505   2.508   2.709  0.0985  0.1354 -0.1859
 3650TP3     H122769   1.442   2.469   2.649 -1.3976  0.4274  1.1275
 3650TP3     H222770   1.557   2.568   2.655 -1.7202  0.9908 -1.0496
 3651TP3      O22771   1.206   0.937   2.761  0.6776  0.2119  0.8311
 3651TP3     H122772   1.286   0.980   2.789  1.0672 -0.8467  1.3885
 3651TP3     H222773   1.174   0.990   2.688  0.3442  2.2893  2.4067
 3652TP3      O22774   1.837   4.178   8.251  0.3857  0.3895 -0.7707
 3652TP3     H122775   1.899   4.175   8.323  3.2014  2.4385 -2.8834
 3652TP3     H222776   1.759   4.218   8.288  1.2793  0.2934  1.3706
 3653TP3      O22777   5.199   2.323   3.231  0.1003  0.5303 -0.3887
 3653TP3     H122778   5.110   2.350   3.211  0.2355  1.3184  0.0662
 3653TP3     H222779   5.235   2.296   3.146 -0.0073  1.8788 -0.8936
 3654TP3      O22780   2.689   0.633   9.120 -1.0667  0.1068  0.0525
 3654TP3     H122781   2.746   0.695   9.165 -1.7271  0.5475  0.2913
 3654TP3     H222782   2.735   0.549   9.126 -0.4976  0.4354  0.3307
 3655TP3      O22783   0.785   2.556   8.094  0.4417 -0.2059 -0.0851
 3655TP3     H122784   0.781   2.632   8.037  0.8955 -0.7117 -0.8165
 3655TP3     H222785   0.843   2.583   8.165  1.5165 -0.2112 -0.9194
 3656TP3      O22786   0.745   4.087   9.068  0.7154 -0.3273 -0.1988
 3656TP3     H122787   0.800   4.164   9.054  1.2246 -0.0814  2.5026
 3656TP3     H222788   0.662   4.123   9.099  0.5030 -0.8351 -0.1705
 3657TP3      O22789   0.739   0.404   1.190  0.0862 -0.0020  0.0490
 3657TP3     H122790   0.648   0.433   1.199  0.0505  0.5283 -1.7347
 3657TP3     H222791   0.779   0.426   1.275 -1.1450  0.8603  0.4346
 3658TP3      O22792   1.735   5.281   9.013 -0.0776 -0.1270 -0.1516
 3658TP3     H122793   1.823   5.317   9.023  0.4005 -1.4791  0.9213
 3658TP3     H222794   1.691   5.341   8.954  1.6633  0.4204 -0.9666
 3659TP3      O22795   0.288   2.693   0.500 -0.1778  0.8514 -0.0807
 3659TP3     H122796   0.216   2.632   0.485 -0.7759  1.8274 -1.3191
 3659TP3     H222797   0.366   2.638   0.504 -1.0057 -0.3199  2.0138
 3660TP3      O22798   3.641   3.391   7.144 -0.2709 -0.1350  0.0476
 3660TP3     H122799   3.725   3.350   7.125  0.0516  0.5388 -0.0090
 3660TP3     H222800   3.664   3.474   7.186 -0.9197 -0.4119  0.9947
 3661TP3      O22801   3.126   1.083   9.749 -0.1159  0.0176  0.7240
 3661TP3     H122802   3.169   1.110   9.668 -1.2884  2.0773  0.7305
 3661TP3     H222803   3.091   0.996   9.730 -1.0130  0.7665 -1.2450
 3662TP3      O22804   3.286   1.655   9.765 -0.2817  0.0504  0.2751
 3662TP3     H122805   3.212   1.710   9.737  1.1780  1.0259 -1.9450
 3662TP3     H222806   3.272   1.571   9.721  0.3671  0.5336 -0.8801
 3663TP3      O22807   4.806   4.163   8.820 -0.2890 -0.0566 -0.7139
 3663TP3     H122808   4.815   4.103   8.745  1.4969  0.6161 -1.0812
 3663TP3     H222809   4.753   4.235   8.785 -3.6950 -1.9532  0.1324
 3664TP3      O22810   2.495   1.346   0.005  0.2517  0.1695 -0.3607
 3664TP3     H122811   2.568   1.325   0.064  1.0355  1.6292 -0.7624
 3664TP3     H222812   2.530   1.414  -0.052 -0.3523 -1.4615 -2.8286
 3665TP3      O22813   4.182   1.608   0.323  0.0508 -0.5387  0.1540
 3665TP3     H122814   4.147   1.684   0.278  0.2126 -0.8971 -0.5930
 3665TP3     H222815   4.196   1.543   0.254  1.1584 -0.7810  0.5726
 3666TP3      O22816   2.159   1.153   8.623  0.0935 -0.1793 -0.2188
 3666TP3     H122817   2.083   1.107   8.659 -0.7510  2.1241  1.2195
 3666TP3     H222818   2.122   1.210   8.556  0.6804  0.2626 -0.1691
 3667TP3      O22819   0.941   2.944   7.683 -0.2889  0.0316  0.4022
 3667TP3     H122820   0.948   2.910   7.593  0.0715 -0.2968  0.5534
 3667TP3     H222821   0.903   3.031   7.672 -1.1144 -0.3637  0.0005
 3668TP3      O22822   1.437   4.171   1.339 -0.1015 -0.3412  0.1104
 3668TP3     H122823   1.415   4.211   1.423  1.2062 -0.1659  0.3844
 3668TP3     H222824   1.352   4.143   1.303 -1.2857  3.5560 -0.5989
 3669TP3      O22825   4.134   4.472   1.787 -0.2352 -0.2393 -0.7608
 3669TP3     H122826   4.126   4.564   1.760  0.2145 -0.4282 -1.5608
 3669TP3     H222827   4.090   4.469   1.872  1.9322  1.2570  0.5020
 3670TP3      O22828   4.970   4.233   9.088  0.1200  0.1206  0.1441
 3670TP3     H122829   4.904   4.252   9.021  1.7267  0.2698 -1.4730
 3670TP3     H222830   5.016   4.315   9.100  0.1907 -0.0477  1.0619
 3671TP3      O22831   0.296   3.693   7.142 -0.0842  0.2282  0.4499
 3671TP3     H122832   0.264   3.782   7.128 -2.5306 -0.6442 -0.0191
 3671TP3     H222833   0.352   3.675   7.067  0.1644  1.2457  0.3808
 3672TP3      O22834   0.779   4.020   9.918  0.1409 -0.0544 -0.1649
 3672TP3     H122835   0.758   3.935   9.877  1.7919 -0.9989  0.8221
 3672TP3     H222836   0.763   4.007  10.011  0.4268  0.7245  0.0009
 3673TP3      O22837   4.137   3.447   0.118  0.2036 -0.0005  0.1470
 3673TP3     H122838   4.196   3.408   0.182 -0.1833  0.0365  0.5296
 3673TP3     H222839   4.178   3.429   0.034  1.9166  1.9663  0.4868
 3674TP3      O22840   1.775   1.640   1.711  0.3974  0.4527  0.0597
 3674TP3     H122841   1.774   1.695   1.633  0.0547  0.7900  0.2981
 3674TP3     H222842   1.683   1.634   1.738  0.5587  0.7575  0.7217
 3675TP3      O22843   3.138   0.630   8.497  0.6363 -0.2162  0.1317
 3675TP3     H122844   3.061   0.596   8.452  0.4860  0.3625 -0.0556
 3675TP3     H222845   3.210   0.575   8.466  0.2182 -1.1695  0.7841
 3676TP3      O22846   1.387   5.262   1.829 -0.7935 -0.3567  0.4091
 3676TP3     H122847   1.437   5.294   1.754 -3.2676  1.1311 -0.7104
 3676TP3     H222848   1.303   5.235   1.792 -2.5619  1.5310  2.7384
 3677TP3      O22849   5.218   5.248   1.147 -0.6070 -0.1814 -0.6791
 3677TP3     H122850   5.293   5.276   1.200  0.0491 -2.2981 -0.4208
 3677TP3     H222851   5.254   5.242   1.058 -0.2449 -1.8336 -0.4518
 3678TP3      O22852   3.332   5.226   0.901 -0.0209  0.1087 -0.3552
 3678TP3     H122853   3.342   5.321   0.894  0.8313  0.0241 -0.3834
 3678TP3     H222854   3.382   5.202   0.979 -0.4882 -0.2796 -0.1700
 3679TP3      O22855   2.257   4.460   2.040  0.0284 -0.1306  0.1756
 3679TP3     H122856   2.163   4.479   2.034 -0.2193 -1.1344  0.5303
 3679TP3     H222857   2.287   4.460   1.949 -0.7260 -1.5822 -0.1205
 3680TP3      O22858   5.203   3.930   9.742 -0.2442 -0.4833  0.4451
 3680TP3     H122859   5.257   3.918   9.820  1.7815 -1.2088 -0.9969
 3680TP3     H222860   5.250   3.994   9.689 -2.8826  2.0363  0.8523
 3681TP3      O22861   3.859   2.424   0.903 -0.1125 -0.5766  0.3795
 3681TP3     H122862   3.877   2.480   0.978  0.4215 -0.7920  0.4191
 3681TP3     H222863   3.825   2.343   0.941 -1.2501 -0.1584  0.3033
 3682TP3      O22864   0.186   2.238   7.953  0.4421 -0.6055  0.1600
 3682TP3     H122865   0.273   2.229   7.914  0.8971  2.1681  0.3648
 3682TP3     H222866   0.166   2.331   7.948 -2.1597 -1.0292  0.9535
 3683TP3      O22867   5.004   4.516   0.080  0.4232 -0.4251 -0.4092
 3683TP3     H122868   4.963   4.539  -0.003 -1.0981 -0.6737  0.2529
 3683TP3     H222869   5.008   4.420   0.079 -1.7387 -0.5940  0.7361
 3684TP3      O22870   3.568   3.927   9.199 -0.1303  0.4063 -0.1401
 3684TP3     H122871   3.474   3.908   9.193  0.0056 -0.4151  0.1873
 3684TP3     H222872   3.574   4.000   9.260 -0.5045 -0.0957  0.5141
 3685TP3      O22873   1.151   2.234   9.349 -0.1008 -0.2789  0.3176
 3685TP3     H122874   1.142   2.297   9.277  1.9980  0.3788  0.5912
 3685TP3     H222875   1.221   2.175   9.321 -2.3076 -2.9056 -0.1490
 3686TP3      O22876   1.995   5.213   6.620 -0.2297  0.1426 -0.6531
 3686TP3     H122877   1.973   5.240   6.710  1.1512 -0.1903 -0.2016
 3686TP3     H222878   1.914   5.228   6.571 -0.0999  3.4693 -0.0740
 3687TP3      O22879   1.194   1.908   7.337 -0.0448  0.4415  0.6462
 3687TP3     H122880   1.257   1.958   7.388  0.5605  0.9724 -0.5848
 3687TP3     H222881   1.247   1.845   7.289 -0.6047 -0.0573  0.6685
 3688TP3      O22882   2.587   1.552   2.667  0.0986  0.1638 -0.5081
 3688TP3     H122883   2.542   1.579   2.747 -0.5651 -1.5521 -0.2716
 3688TP3     H222884   2.529   1.488   2.626  1.8112 -1.3323 -0.7360
 3689TP3      O22885   3.893   1.284   7.395  0.3659  0.0964  0.1284
 3689TP3     H122886   3.821   1.240   7.440 -0.9747  1.4804 -0.5608
 3689TP3     H222887   3.931   1.341   7.462  2.2860 -2.1538  1.1030
 3690TP3      O22888   1.783   5.073   0.754  0.3715  0.1170  0.4293
 3690TP3     H122889   1.732   5.090   0.833 -0.2805 -0.6746  0.1817
 3690TP3     H222890   1.775   4.979   0.739  2.3389 -0.1513  0.6802
 3691TP3      O22891   3.655   2.959   6.694  0.0874 -0.0405  0.2408
 3691TP3     H122892   3.640   3.042   6.648 -1.6063 -0.4822 -0.0649
 3691TP3     H222893   3.589   2.900   6.659  1.2260 -1.5282  0.5060
 3692TP3      O22894   1.431   4.623   0.891  0.5434  0.4500 -0.7120
 3692TP3     H122895   1.422   4.691   0.958  1.2625 -0.2533  0.1069
 3692TP3     H222896   1.359   4.562   0.909  0.4627  0.4961 -0.8717
 3693TP3      O22897   3.456   1.534   9.502  0.5704 -0.4298 -0.0691
 3693TP3     H122898   3.522   1.476   9.542  0.4559  1.2793  2.8929
 3693TP3     H222899   3.373   1.506   9.541  0.1484  0.1278 -0.5532
 3694TP3      O22900   3.818   0.469   8.177 -0.1015 -0.2044 -0.6192
 3694TP3     H122901   3.742   0.439   8.226  1.0873 -0.7615  0.9406
 3694TP3     H222902   3.876   0.392   8.171  1.1403  0.6606 -0.1919
 3695TP3      O22903   3.221   3.207   1.101 -0.3135 -0.2916 -0.1375
 3695TP3     H122904   3.281   3.258   1.155 -0.3936 -0.1003 -0.2260
 3695TP3     H222905   3.252   3.117   1.108  0.8340 -0.0097 -1.3145
 3696TP3      O22906   1.469   3.238   2.421  0.0130 -0.1685  0.3886
 3696TP3     H122907   1.482   3.167   2.483  0.1689  0.6897  1.3562
 3696TP3     H222908   1.524   3.309   2.453  1.7677 -0.3734 -1.8934
 3697TP3      O22909   0.647   1.959   7.244  0.3014  0.4314 -0.0521
 3697TP3     H122910   0.615   1.868   7.237  0.5944  0.2737  0.6292
 3697TP3     H222911   0.728   1.952   7.294 -0.3013  1.2099  1.0693
 3698TP3      O22912   0.457   2.611   7.442  0.1722  0.2110  0.2960
 3698TP3     H122913   0.472   2.525   7.402  0.1606 -0.2780  1.3209
 3698TP3     H222914   0.468   2.673   7.369 -0.3496 -0.6822 -0.5738
 3699TP3      O22915   4.303   3.106   8.298  0.0322 -0.1148  0.7361
 3699TP3     H122916   4.248   3.030   8.319 -0.0430  0.3451  2.3799
 3699TP3     H222917   4.381   3.094   8.351  1.0386 -0.1552 -0.6986
 3700TP3      O22918   1.473   1.282   9.474  0.1706 -0.2377 -0.0781
 3700TP3     H122919   1.459   1.192   9.503  1.3194 -0.5626 -0.4745
 3700TP3     H222920   1.395   1.303   9.423  0.1725 -1.2406 -0.5215
 3701TP3      O22921   1.900   4.327   0.534 -0.7535  0.9609  0.8159
 3701TP3     H122922   1.963   4.318   0.606 -2.6676  0.8205  2.5660
 3701TP3     H222923   1.944   4.385   0.472  1.0670  0.9377  1.9907
 3702TP3      O22924   2.159   2.219   1.017 -0.1621  0.8244 -0.0058
 3702TP3     H122925   2.148   2.267   1.099 -0.5425  0.0121  0.4308
 3702TP3     H222926   2.184   2.131   1.044 -1.0398  0.3338 -0.7349
 3703TP3      O22927   2.809   1.139   9.850  0.2580 -0.0361  0.2263
 3703TP3     H122928   2.808   1.231   9.875  0.3492 -0.6262  2.5498
 3703TP3     H222929   2.859   1.095   9.919 -0.2433 -1.9139 -0.5357
 3704TP3      O22930   2.611   2.616   1.816  0.2989 -0.0928 -0.5134
 3704TP3     H122931   2.625   2.645   1.906 -2.7996 -1.3992  0.5101
 3704TP3     H222932   2.695   2.580   1.789  1.5095  1.0089  1.5669
 3705TP3      O22933   1.331   1.782   0.635  0.2565  0.3268 -0.4580
 3705TP3     H122934   1.391   1.848   0.670 -0.3454  1.2890 -1.1739
 3705TP3     H222935   1.293   1.741   0.712  0.4557  0.9982  0.0135
 3706TP3      O22936   2.402   2.662   0.990  0.3126  0.4610  0.5306
 3706TP3     H122937   2.313   2.678   1.021 -0.0072 -0.7377  0.2757
 3706TP3     H222938   2.414   2.724   0.918 -0.3228  0.6216  0.5557
 3707TP3      O22939   4.434   0.995   1.842 -0.4935 -0.3298 -0.3957
 3707TP3     H122940   4.506   0.938   1.869  0.4423  0.7187 -0.5888
 3707TP3     H222941   4.402   0.956   1.761  0.4923 -0.3046 -0.8162
 3708TP3      O22942   1.201   1.629   0.830 -0.4789  0.3001  0.0761
 3708TP3     H122943   1.256   1.603   0.904 -1.3481 -0.0554  0.6087
 3708TP3     H222944   1.167   1.547   0.795 -0.2980  0.4847 -0.5651
 3709TP3      O22945   3.379   4.269   0.711  0.2422 -0.1177  0.1094
 3709TP3     H122946   3.374   4.293   0.804  1.8319  0.7002  0.0261
 3709TP3     H222947   3.436   4.192   0.709  0.1029 -0.2139 -0.1731
 3710TP3      O22948   2.027   1.493   1.987 -0.1760 -0.5677 -0.2105
 3710TP3     H122949   1.981   1.465   1.907 -1.4352 -1.3811  0.7607
 3710TP3     H222950   1.999   1.430   2.053  0.5982  0.2857  0.9560
 3711TP3      O22951   0.883   4.161   1.060 -0.1965 -0.1037 -0.3812
 3711TP3     H122952   0.917   4.165   1.149 -1.4580 -2.7167  0.3230
 3711TP3     H222953   0.803   4.214   1.062 -1.3382 -1.7567  0.6948
 3712TP3      O22954   0.269   5.091   9.671  0.1232  0.3228  0.0126
 3712TP3     H122955   0.264   5.115   9.579  0.2490  0.0271 -0.0707
 3712TP3     H222956   0.336   5.150   9.707  0.7506 -0.1847 -0.2875
 3713TP3      O22957   1.220   4.369   0.709  0.1516  0.0968 -0.3873
 3713TP3     H122958   1.235   4.320   0.790 -0.7852 -1.4200 -1.0780
 3713TP3     H222959   1.298   4.353   0.656 -0.1704 -0.7299 -0.6292
 3714TP3      O22960   4.140   1.978   8.134  0.1066 -0.0537  0.0399
 3714TP3     H122961   4.046   1.964   8.138  0.2505 -1.5256 -0.7691
 3714TP3     H222962   4.171   1.958   8.222 -0.5716  2.9293  1.0360
 3715TP3      O22963   0.919   1.550   2.320  0.4642 -0.0519  0.1785
 3715TP3     H122964   0.919   1.635   2.275 -0.9653 -0.6681 -1.0640
 3715TP3     H222965   0.896   1.571   2.411  0.5155  0.9265 -0.0201
 3716TP3      O22966   2.220   3.853   2.883  0.5206 -0.0540  0.0404
 3716TP3     H122967   2.279   3.847   2.808 -0.6223  1.0414 -0.9996
 3716TP3     H222968   2.231   3.943   2.915 -0.5919  0.2047 -0.2295
 3717TP3      O22969   0.662   5.056   0.803  0.1241 -0.3282 -0.2515
 3717TP3     H122970   0.713   5.026   0.878  0.4974  0.3405 -0.2353
 3717TP3     H222971   0.685   4.995   0.733  2.8338  1.3117 -0.9449
 3718TP3      O22972   3.473   1.165   6.755  0.8979  0.3874 -0.5500
 3718TP3     H122973   3.563   1.184   6.780 -0.0347  1.6132  2.2926
 3718TP3     H222974   3.457   1.078   6.791  0.7602  0.4288 -0.5115
 3719TP3      O22975   1.101   0.206   8.494  0.5317 -0.3967 -0.1160
 3719TP3     H122976   1.075   0.151   8.420 -1.5434  0.3586 -0.0095
 3719TP3     H222977   1.031   0.195   8.558  0.1427  2.1949 -0.0201
 3720TP3      O22978   0.664   3.644   6.223 -0.8500  0.9893 -0.0296
 3720TP3     H122979   0.736   3.581   6.214 -1.1110  0.8031 -1.0223
 3720TP3     H222980   0.699   3.726   6.189 -0.6782  1.2608  0.7766
 3721TP3      O22981   2.857   1.025   9.578 -0.7906 -0.0120  0.6038
 3721TP3     H122982   2.851   1.066   9.664  0.1182  0.6868  0.3620
 3721TP3     H222983   2.856   1.099   9.516  0.2716 -0.3780  0.1247
 3722TP3      O22984   0.685   5.188   1.115 -0.3295 -0.6023  0.4148
 3722TP3     H122985   0.643   5.102   1.116 -1.2042 -0.1855  1.4068
 3722TP3     H222986   0.770   5.174   1.157  0.2514 -1.3026 -0.9377
 3723TP3      O22987   2.104   1.119   6.673 -0.1131  0.7368 -0.1670
 3723TP3     H122988   2.185   1.169   6.671 -0.4084  1.3811  1.7606
 3723TP3     H222989   2.116   1.056   6.744 -1.1799  0.6613 -0.0270
 3724TP3      O22990   5.057   1.753   3.033 -0.1576  0.2112  0.2535
 3724TP3     H122991   5.100   1.793   2.958  1.2539  1.3577  1.6095
 3724TP3     H222992   5.039   1.826   3.092 -0.3472 -0.7658  1.4466
 3725TP3      O22993   1.843   0.213   7.244 -0.4029 -0.5207 -0.0616
 3725TP3     H122994   1.749   0.206   7.228 -0.2022 -1.9288 -0.8282
 3725TP3     H222995   1.860   0.152   7.316  0.1438 -1.4687 -0.9714
 3726TP3      O22996   0.930   2.285   1.987 -0.1967 -0.5128  0.3252
 3726TP3     H122997   0.958   2.231   1.913  2.2840 -0.9238  1.4257
 3726TP3     H222998   1.001   2.349   1.998 -0.5190 -0.4220  2.2676
 3727TP3      O22999   3.252   0.455   8.845  0.9953 -0.1317  0.0332
 3727TP3     H123000   3.324   0.502   8.803 -0.0037 -0.7994 -2.6623
 3727TP3     H223001   3.242   0.375   8.794 -0.9283 -0.5854  1.0127
 3728TP3      O23002   1.343   1.680   2.259  0.1217  0.3440 -0.3057
 3728TP3     H123003   1.391   1.740   2.201  2.4385  0.6359  1.7718
 3728TP3     H223004   1.343   1.723   2.344 -1.4455 -0.9671  0.4140
 3729TP3      O23005   0.032   1.157   0.750  0.4465 -0.5233 -0.8222
 3729TP3     H123006   0.067   1.194   0.831  1.8694 -1.2798 -1.0623
 3729TP3     H223007   0.053   1.221   0.682 -1.8740  0.7264 -0.4617
 3730TP3      O23008   1.416   4.571   8.805  0.2318 -0.0458  0.3612
 3730TP3     H123009   1.510   4.555   8.795  0.6977  3.0013 -1.4531
 3730TP3     H223010   1.407   4.610   8.892  0.8567  0.7444  0.0813
 3731TP3      O23011   2.880   4.311   2.291 -0.0411  0.0319  0.2441
 3731TP3     H123012   2.929   4.370   2.348  1.0476 -0.7806  0.1782
 3731TP3     H223013   2.885   4.226   2.335 -1.0456 -0.1548  0.0186
 3732TP3      O23014   2.901   4.799   1.815  0.0368 -0.0943  0.6244
 3732TP3     H123015   2.944   4.818   1.899 -0.9053 -2.5929  1.7601
 3732TP3     H223016   2.933   4.868   1.757  1.5012  1.1705  2.7485
 3733TP3      O23017   1.568   0.056   1.649  0.0515 -0.2337 -0.5254
 3733TP3     H123018   1.612   0.129   1.695 -2.2115  1.4020 -0.8001
 3733TP3     H223019   1.564   0.084   1.558  0.1065 -1.2242 -0.8424
 3734TP3      O23020   2.734   2.495   7.527  0.2517  0.5040  0.0931
 3734TP3     H123021   2.671   2.502   7.599  2.2560 -0.6049  2.0752
 3734TP3     H223022   2.681   2.471   7.451 -1.7320 -0.2984  1.6454
 3735TP3      O23023   3.042   1.710   9.611  0.0805 -0.0519 -0.0771
 3735TP3     H123024   3.003   1.643   9.556 -1.8924 -0.5044  1.7550
 3735TP3     H223025   3.044   1.788   9.555 -0.3488 -0.8761 -1.2825
 3736TP3      O23026   3.810   1.797   3.106  0.5071 -0.6671 -0.3265
 3736TP3     H123027   3.891   1.828   3.066  0.8504 -1.2956 -0.1231
 3736TP3     H223028   3.822   1.703   3.116 -0.1819 -0.7405 -0.1394
 3737TP3      O23029   3.917   3.191   8.981  0.1436 -0.0475  0.0658
 3737TP3     H123030   3.915   3.096   8.984 -1.3809 -0.0517  0.0534
 3737TP3     H223031   3.825   3.216   8.964  0.2453  1.4575  1.5106
 3738TP3      O23032   5.247   2.509   8.454 -0.0366  0.5436  0.4280
 3738TP3     H123033   5.259   2.476   8.365 -0.6699 -0.4395  0.6867
 3738TP3     H223034   5.152   2.507   8.468 -0.0849  2.3493  0.5283
 3739TP3      O23035   1.306   1.609   1.888  0.4207  0.6315 -0.5767
 3739TP3     H123036   1.262   1.575   1.810  0.9994  1.1701 -1.1466
 3739TP3     H223037   1.235   1.635   1.947 -0.0574 -1.8452  0.0399
 3740TP3      O23038   3.474   1.888   9.930 -0.4809  0.0736 -0.2612
 3740TP3     H123039   3.549   1.905   9.873 -0.7538  0.6769 -0.4527
 3740TP3     H223040   3.418   1.965   9.918 -2.2184 -1.3495 -1.8446
 3741TP3      O23041   0.507   5.236   2.333 -0.5106 -0.5946 -0.1057
 3741TP3     H123042   0.588   5.255   2.286  0.4325 -0.6406  1.4560
 3741TP3     H223043   0.452   5.313   2.318  0.4032  0.1070  0.0588
 3742TP3      O23044   1.976   2.898   7.116  0.2079 -0.0149  0.2081
 3742TP3     H123045   1.937   2.841   7.049 -1.6819  1.2558  0.1534
 3742TP3     H223046   2.057   2.928   7.076 -1.0644  1.0541 -1.7826
 3743TP3      O23047   2.292   2.496   1.725  0.0639  0.1272  0.4602
 3743TP3     H123048   2.234   2.433   1.681 -0.5670  1.6467 -0.9842
 3743TP3     H223049   2.307   2.457   1.811 -1.2781 -1.4166  0.0650
 3744TP3      O23050   1.403   4.459   9.960  0.0955  0.0477 -0.2321
 3744TP3     H123051   1.343   4.503  10.020 -1.5166 -2.0559 -0.2203
 3744TP3     H223052   1.444   4.390  10.013 -0.6187 -1.2057 -1.2484
 3745TP3      O23053   4.583   2.503   8.261 -0.3016  0.0305 -0.1328
 3745TP3     H123054   4.540   2.504   8.176 -2.7760 -3.2006  0.8896
 3745TP3     H223055   4.649   2.434   8.254  2.9781  2.9533 -0.7391
 3746TP3      O23056   2.117   1.113   2.634  0.0955 -0.2001 -0.0969
 3746TP3     H123057   2.140   1.027   2.602  2.1017  0.1114  0.3731
 3746TP3     H223058   2.083   1.098   2.723  1.1660 -0.4549  0.2771
 3747TP3      O23059   2.340   1.367   0.830 -0.4292 -0.1643  0.1261
 3747TP3     H123060   2.288   1.339   0.756 -1.1730 -0.5771  0.7931
 3747TP3     H223061   2.422   1.317   0.822 -0.7130 -0.5910 -0.1196
 3748TP3      O23062   2.996   2.345   1.059 -0.0748  0.0985 -0.0915
 3748TP3     H123063   2.904   2.318   1.057  0.2120 -1.0893  1.0606
 3748TP3     H223064   2.994   2.439   1.073 -1.1293 -0.1163  1.4231
 3749TP3      O23065   3.114   3.317   9.353  0.2239  0.1825  0.7546
 3749TP3     H123066   3.149   3.405   9.368 -0.1344  0.7132 -1.2615
 3749TP3     H223067   3.123   3.303   9.259 -2.9369 -0.5332  0.4634
 3750TP3      O23068   4.741   4.064   9.059 -0.1502 -0.4131  0.3787
 3750TP3     H123069   4.824   4.078   9.105 -0.7778 -2.3401  2.2702
 3750TP3     H223070   4.757   4.097   8.970  1.7563  1.6912  1.3908
 3751TP3      O23071   2.771   1.722   0.888 -0.0395 -1.2754 -0.0583
 3751TP3     H123072   2.774   1.629   0.907 -1.9378 -1.2445  0.6431
 3751TP3     H223073   2.692   1.734   0.835  0.1558 -0.0718 -0.1220
 3752TP3      O23074   0.716   0.291   2.367  0.2500  0.0375 -0.2837
 3752TP3     H123075   0.673   0.239   2.300  1.2489  0.4650 -1.2702
 3752TP3     H223076   0.709   0.238   2.447  0.5148 -1.2160 -1.0761
 3753TP3      O23077   2.600   2.507   0.311 -0.0523 -0.3771 -0.1186
 3753TP3     H123078   2.532   2.573   0.328 -0.1067 -0.3760 -0.3280
 3753TP3     H223079   2.673   2.533   0.367 -0.4473 -0.7372  0.5787
 3754TP3      O23080   4.639   1.734   0.916  0.7336 -0.0423  0.2159
 3754TP3     H123081   4.569   1.758   0.977 -0.0860  0.3031 -0.8277
 3754TP3     H223082   4.689   1.667   0.962  0.6637  0.8047  1.6107
 3755TP3      O23083   2.219   1.199   1.016  0.1658  0.7089  0.4266
 3755TP3     H123084   2.263   1.253   0.950  2.0072 -0.8247  0.3399
 3755TP3     H223085   2.133   1.182   0.979  1.7185 -1.6101 -2.5429
 3756TP3      O23086   4.591   3.653   8.549  0.2593 -0.0232  0.1834
 3756TP3     H123087   4.539   3.629   8.472 -1.2042 -0.0601  1.1544
 3756TP3     H223088   4.573   3.745   8.562  1.0637  0.1598  0.0988
 3757TP3      O23089   4.677   2.563   6.734  0.4054 -0.2587 -0.1497
 3757TP3     H123090   4.690   2.487   6.791 -0.1680 -0.4745 -0.2971
 3757TP3     H223091   4.607   2.536   6.674 -0.4605  0.7153  0.3914
 3758TP3      O23092   2.496   1.220   2.411  0.3236  0.8314 -0.0583
 3758TP3     H123093   2.440   1.226   2.333 -1.4091  1.3092  1.1380
 3758TP3     H223094   2.551   1.299   2.407 -0.1948  1.1811 -0.4884
 3759TP3      O23095   3.183   4.242   0.499 -0.4075 -0.2511  0.0093
 3759TP3     H123096   3.222   4.164   0.460  1.2006  0.6716 -0.3313
 3759TP3     H223097   3.222   4.248   0.586  1.6250  1.5765 -0.9237
 3760TP3      O23098   1.362   0.689   1.712 -0.4485  0.4375  0.7420
 3760TP3     H123099   1.405   0.764   1.671  1.1570 -0.3486  0.8827
 3760TP3     H223100   1.352   0.625   1.642  1.7190 -0.6602  1.3185
 3761TP3      O23101   1.541   3.359   7.944 -0.3059  0.1017  0.5441
 3761TP3     H123102   1.479   3.419   7.901  0.2681 -0.5982 -1.3689
 3761TP3     H223103   1.486   3.288   7.976 -0.6601  0.1966  0.1614
 3762TP3      O23104   1.762   2.506   0.633 -0.0404 -0.4209  0.0342
 3762TP3     H123105   1.830   2.566   0.602  0.5694 -1.1032  0.0387
 3762TP3     H223106   1.759   2.436   0.568 -0.3796 -0.6671  0.3062
 3763TP3      O23107   3.772   4.397   7.601  0.1971 -0.0934  0.0817
 3763TP3     H123108   3.744   4.465   7.540 -2.6167 -1.3629 -0.1829
 3763TP3     H223109   3.744   4.315   7.561  2.2566 -1.3520  1.0398
 3764TP3      O23110   1.859   3.525   7.370  0.3362  0.5781  0.3504
 3764TP3     H123111   1.912   3.445   7.377  0.7547  0.6690 -1.4257
 3764TP3     H223112   1.902   3.577   7.302 -2.0671  0.5832 -1.3091
 3765TP3      O23113   3.041   0.842   1.905 -0.2927  0.2244 -0.2279
 3765TP3     H123114   3.105   0.797   1.850  0.4260  1.1202 -0.1423
 3765TP3     H223115   3.022   0.780   1.976 -0.6800 -0.6447 -1.0708
 3766TP3      O23116   5.076   1.512   7.718 -0.1506 -0.3218 -0.6836
 3766TP3     H123117   5.155   1.487   7.671 -0.4985 -1.9740 -0.4301
 3766TP3     H223118   5.030   1.570   7.658  1.7003  1.5342 -0.4383
 3767TP3      O23119   3.246   0.885   9.493 -0.2435  0.5180 -0.1926
 3767TP3     H123120   3.272   0.975   9.473  0.9625  0.3079  0.3873
 3767TP3     H223121   3.325   0.844   9.528 -0.7363 -0.8234 -0.6142
 3768TP3      O23122   4.340   3.610   7.971 -0.5380 -0.0222  0.3635
 3768TP3     H123123   4.362   3.669   8.043 -2.1520  0.6127  0.3725
 3768TP3     H223124   4.288   3.664   7.911 -1.8431 -1.3595  0.2392
 3769TP3      O23125   2.597   0.757   2.114  1.1736 -0.2968 -0.2389
 3769TP3     H123126   2.507   0.739   2.143  1.0591 -0.4105 -0.6651
 3769TP3     H223127   2.636   0.802   2.188  1.2692 -1.7095  0.6212
 3770TP3      O23128   1.307   3.836   1.941 -1.1233  0.5341 -0.6017
 3770TP3     H123129   1.314   3.909   1.880  1.8203  0.4672 -0.5232
 3770TP3     H223130   1.311   3.877   2.027 -1.3208  0.3866 -0.5225
 3771TP3      O23131   1.090   1.792   0.471  0.2001  0.0468  0.6030
 3771TP3     H123132   1.178   1.777   0.505  0.3917  1.3127  0.7338
 3771TP3     H223133   1.051   1.852   0.534 -0.6541 -0.2680  0.3821
 3772TP3      O23134   4.914   3.000   0.136 -0.0918  0.7313  0.2460
 3772TP3     H123135   4.899   2.908   0.115  0.4962  0.8624 -0.8150
 3772TP3     H223136   4.830   3.030   0.171 -0.5091 -0.0254 -0.0760
 3773TP3      O23137   1.291   1.266   1.488  0.0443  0.0759 -0.5213
 3773TP3     H123138   1.252   1.183   1.516 -0.4421  0.6837  0.7047
 3773TP3     H223139   1.218   1.328   1.491  0.4056  0.5608 -1.4012
 3774TP3      O23140   0.773   0.373   1.884 -0.0527 -0.2183 -0.2863
 3774TP3     H123141   0.811   0.302   1.833 -0.0349 -0.7194  0.4108
 3774TP3     H223142   0.839   0.443   1.880  0.5060 -0.7171  0.0964
 3775TP3      O23143   1.022   3.522   8.351 -0.4897 -0.3399  0.1416
 3775TP3     H123144   1.090   3.463   8.320 -0.0693 -0.2522  0.8623
 3775TP3     H223145   0.946   3.465   8.368 -0.5452 -0.4614 -0.5025
 3776TP3      O23146   0.031   4.745   0.595  0.2146 -0.8701 -0.1932
 3776TP3     H123147  -0.004   4.810   0.534  0.1081 -0.1553  0.6037
 3776TP3     H223148   0.118   4.724   0.561 -0.4160 -1.6151 -1.4169
 3777TP3      O23149   5.152   0.920   0.040  0.7489 -0.0919  0.2808
 3777TP3     H123150   5.228   0.958  -0.004  0.5164  0.5698  0.4341
 3777TP3     H223151   5.154   0.828   0.016  0.8158  0.1824 -0.8354
 3778TP3      O23152   3.733   0.647   1.678  0.0146 -0.4502 -0.0101
 3778TP3     H123153   3.719   0.553   1.677  0.6638 -0.5597  0.6540
 3778TP3     H223154   3.728   0.673   1.586  0.5612 -1.2473 -0.2746
 3779TP3      O23155   3.054   4.996   8.664  0.6754 -0.2765  0.1873
 3779TP3     H123156   3.143   4.961   8.661  0.8491  0.1604  0.2782
 3779TP3     H223157   2.998   4.919   8.648  1.0876 -0.4099 -0.7118
 3780TP3      O23158   4.842   1.733   7.754  0.4350 -0.2709 -0.3331
 3780TP3     H123159   4.854   1.751   7.847  3.2394 -0.4754 -0.5717
 3780TP3     H223160   4.821   1.819   7.716 -1.2369 -0.2686  0.4885
 3781TP3      O23161   2.522   2.000   2.056 -0.2758 -0.2337  0.4616
 3781TP3     H123162   2.520   1.913   2.014  0.3645 -0.0863  0.1194
 3781TP3     H223163   2.611   2.009   2.090 -0.5486  0.0004  1.1227
 3782TP3      O23164   2.125   0.306   9.146  0.1613  0.4018 -0.0780
 3782TP3     H123165   2.190   0.365   9.108  0.3696  0.4890  0.4073
 3782TP3     H223166   2.078   0.359   9.210 -1.4125  0.7575 -1.4742
 3783TP3      O23167   5.207   0.299   8.703  0.1061  0.3520  0.3285
 3783TP3     H123168   5.255   0.343   8.773 -1.4934 -1.0491  2.4164
 3783TP3     H223169   5.115   0.312   8.725 -0.4314 -1.5168 -0.5927
 3784TP3      O23170   3.010   0.133   9.265  0.2029 -0.2525 -0.0443
 3784TP3     H123171   3.091   0.113   9.313 -1.3798 -1.8555  2.2355
 3784TP3     H223172   2.968   0.202   9.316  0.6593  1.5546 -1.9671
 3785TP3      O23173   2.581   1.722   9.617  0.8728 -0.5248  0.0677
 3785TP3     H123174   2.544   1.688   9.535  2.6591 -1.1297 -0.5255
 3785TP3     H223175   2.533   1.803   9.633  0.3099 -0.5274 -1.4466
 3786TP3      O23176   0.518   1.584   9.804  0.1475 -0.4470 -0.3915
 3786TP3     H123177   0.485   1.585   9.714 -0.6985  0.2931 -0.0905
 3786TP3     H223178   0.461   1.645   9.851  0.0197 -1.4845  0.8446
 3787TP3      O23179   3.747   4.357   9.354 -0.0467  0.3270 -0.2892
 3787TP3     H123180   3.780   4.338   9.266 -0.7697  0.9467 -0.7029
 3787TP3     H223181   3.780   4.444   9.374  1.3988 -0.4043  0.7007
 3788TP3      O23182   4.692   4.788   2.825  0.3046 -0.0785  0.6906
 3788TP3     H123183   4.753   4.822   2.761 -0.0199 -1.6363 -0.5066
 3788TP3     H223184   4.610   4.777   2.777 -1.2821  2.8430  2.4683
 3789TP3      O23185   1.541   0.970   8.077 -0.1109  0.1216  0.0704
 3789TP3     H123186   1.447   0.951   8.077 -0.0599 -0.1555  0.6086
 3789TP3     H223187   1.553   1.031   8.151  0.7569 -3.2420  2.9809
 3790TP3      O23188   4.583   2.531   7.889 -0.6719 -0.6795 -0.2755
 3790TP3     H123189   4.499   2.486   7.879 -1.5243  0.7550  0.1957
 3790TP3     H223190   4.647   2.470   7.852 -1.7760 -2.2475  0.2944
 3791TP3      O23191   4.557   3.589   8.820  0.3450  0.5240  0.0308
 3791TP3     H123192   4.570   3.583   8.726 -2.3180  1.0454 -0.4603
 3791TP3     H223193   4.574   3.681   8.841  1.0031  0.3936  0.0818
 3792TP3      O23194   4.392   4.241   7.542 -0.6474 -0.1849  0.5651
 3792TP3     H123195   4.399   4.230   7.447  0.8834 -2.9252  0.9038
 3792TP3     H223196   4.331   4.172   7.569  1.2143 -1.4039  1.8376
 3793TP3      O23197   4.836   3.902   3.028 -0.1652 -0.1397  0.3522
 3793TP3     H123198   4.754   3.939   3.059 -1.8032  0.2152 -3.7777
 3793TP3     H223199   4.865   3.846   3.099 -0.3417  4.6597  4.7675
 3794TP3      O23200   4.864   1.395   1.637  0.1522  0.7671 -0.1474
 3794TP3     H123201   4.812   1.460   1.685 -0.9176  0.1960 -0.5237
 3794TP3     H223202   4.820   1.386   1.553  0.4291 -0.2844 -0.1888
 3795TP3      O23203   1.633   3.190   1.335  0.4347 -0.5263 -0.0055
 3795TP3     H123204   1.610   3.211   1.245 -0.7614  0.1572  0.4323
 3795TP3     H223205   1.628   3.274   1.381 -0.0798 -1.0374  0.9146
 3796TP3      O23206   1.865   3.409   8.432  0.4894  0.2308  0.2101
 3796TP3     H123207   1.799   3.351   8.392  0.8884 -0.4164  0.4663
 3796TP3     H223208   1.944   3.393   8.381  0.2029  1.8101 -0.7929
 3797TP3      O23209   3.547   4.194   8.008 -0.1709 -0.2385  0.0255
 3797TP3     H123210   3.619   4.153   7.960 -0.4177 -1.7996  0.9320
 3797TP3     H223211   3.590   4.248   8.074  0.1610 -0.1795 -0.2350
 3798TP3      O23212   3.885   3.053   0.347 -0.0931 -0.1621  0.2204
 3798TP3     H123213   3.843   2.980   0.302  0.0588 -0.0835 -0.0540
 3798TP3     H223214   3.894   3.023   0.438 -0.7120 -0.1866  0.2744
 3799TP3      O23215   0.306   2.172   2.126 -0.3915  0.3827  1.0056
 3799TP3     H123216   0.326   2.139   2.039 -2.8858 -2.3378  1.2974
 3799TP3     H223217   0.343   2.260   2.128  2.2707 -0.5030 -1.7323
 3800TP3      O23218   0.781   3.782   8.492 -0.2748  0.3829  0.3903
 3800TP3     H123219   0.728   3.703   8.500 -0.3573  0.2325 -1.1858
 3800TP3     H223220   0.871   3.751   8.496 -0.3083  0.2234 -0.0246
 3801TP3      O23221   3.942   3.249   7.358  0.8101  0.2934  0.0983
 3801TP3     H123222   3.952   3.181   7.291  1.0775  2.8064 -2.6165
 3801TP3     H223223   3.853   3.237   7.391 -0.1809  0.2562 -2.3569
 3802TP3      O23224   1.270   0.612   9.848 -0.2424 -0.1910 -0.1374
 3802TP3     H123225   1.196   0.621   9.907 -0.1659 -2.0322  0.2982
 3802TP3     H223226   1.255   0.529   9.802  0.9100  0.0214 -0.9472
 3803TP3      O23227   1.388   2.395   8.818 -0.3603  0.3382 -0.4449
 3803TP3     H123228   1.336   2.470   8.845 -0.4301  0.5391 -1.1277
 3803TP3     H223229   1.452   2.384   8.888 -0.4486  0.9365 -0.2649
 3804TP3      O23230   0.667   2.697   9.990 -0.0544  0.3069 -0.3182
 3804TP3     H123231   0.715   2.771  10.028  1.1623  0.3560 -1.8687
 3804TP3     H223232   0.712   2.619  10.022 -0.8962  0.2185  0.7292
 3805TP3      O23233   0.050   2.927   7.759  0.2035 -0.0669  0.5481
 3805TP3     H123234   0.098   2.857   7.714 -0.7420 -0.1513 -0.3683
 3805TP3     H223235  -0.040   2.896   7.761  0.2373 -0.1319  2.7097
 3806TP3      O23236   2.262   3.612   8.071 -0.6601 -0.0586 -0.7470
 3806TP3     H123237   2.222   3.529   8.046  1.5766 -1.2672 -0.6538
 3806TP3     H223238   2.337   3.622   8.012 -0.5485  1.6169 -0.3850
 3807TP3      O23239   2.536   3.806   8.318 -0.0355 -0.1216  0.1988
 3807TP3     H123240   2.555   3.729   8.371  0.7287  0.6100  1.0352
 3807TP3     H223241   2.542   3.880   8.379 -1.8864  0.5215 -0.3367
 3808TP3      O23242   2.751   2.538   8.018 -0.0189  0.2240  0.0359
 3808TP3     H123243   2.792   2.473   8.076  1.9629  0.3969 -1.0847
 3808TP3     H223244   2.769   2.505   7.930  0.0227  1.7181 -0.5353
 3809TP3      O23245   0.430   3.813   7.508 -0.3301  0.1312 -0.0790
 3809TP3     H123246   0.435   3.861   7.426  0.6018  0.1793 -0.0043
 3809TP3     H223247   0.413   3.879   7.574 -1.4034  0.0538 -0.2605
 3810TP3      O23248   2.614   3.933   2.236  0.1086  0.6502 -0.4509
 3810TP3     H123249   2.657   4.000   2.289 -0.5838  0.4595  0.3685
 3810TP3     H223250   2.526   3.967   2.222 -0.2721 -0.1208  0.0382
 3811TP3      O23251   3.327   1.170   0.115  0.3620 -0.7813 -0.8230
 3811TP3     H123252   3.242   1.177   0.158  0.5935 -0.7729 -0.3608
 3811TP3     H223253   3.307   1.138   0.027 -0.0356 -1.8738 -0.3602
 3812TP3      O23254   2.201   0.328   2.112 -0.2591 -0.2373 -0.5648
 3812TP3     H123255   2.178   0.240   2.141  0.5362 -0.3120 -0.1391
 3812TP3     H223256   2.277   0.351   2.164 -2.4968  2.1334  2.0060
 3813TP3      O23257   3.851   1.150   9.900 -0.0493  0.3671 -0.2040
 3813TP3     H123258   3.808   1.086   9.957 -3.5156  1.7292 -1.0159
 3813TP3     H223259   3.944   1.142   9.920 -0.6478 -2.6264  2.0121
 3814TP3      O23260   2.959   3.765   9.857  0.0704 -0.1455  0.0885
 3814TP3     H123261   3.051   3.786   9.875 -0.3656  0.0924  2.3882
 3814TP3     H223262   2.960   3.723   9.772  2.3854 -0.5873  0.2727
 3815TP3      O23263   3.604   4.811   0.616  0.0744  0.0784  0.3518
 3815TP3     H123264   3.563   4.738   0.661 -1.1760  2.0520  2.6545
 3815TP3     H223265   3.654   4.856   0.684  0.4650  1.6031 -0.8791
 3816TP3      O23266   1.323   1.268   0.041  0.1385  0.0875 -1.0892
 3816TP3     H123267   1.237   1.230   0.021 -1.9412  3.1497  1.0993
 3816TP3     H223268   1.350   1.223   0.121 -0.2908  0.3191 -0.8098
 3817TP3      O23269   1.142   3.165   7.814 -0.1143  0.4726 -0.5401
 3817TP3     H123270   1.224   3.155   7.862 -0.7412 -0.1300  0.4698
 3817TP3     H223271   1.116   3.256   7.829 -0.4838  0.1983  0.6180
 3818TP3      O23272   3.543   2.247   1.163 -0.0284  0.4722 -0.1115
 3818TP3     H123273   3.481   2.174   1.164  2.1306 -1.4753  1.2968
 3818TP3     H223274   3.594   2.234   1.083  0.4220  0.3421  0.1896
 3819TP3      O23275   2.251   1.525   3.006 -0.2059 -0.3025  0.1170
 3819TP3     H123276   2.186   1.587   2.971 -0.2121  0.2453  1.0465
 3819TP3     H223277   2.200   1.464   3.059  0.1101  0.9079  1.9417
 3820TP3      O23278   0.596   4.759   0.373 -0.0519 -0.1459  0.6189
 3820TP3     H123279   0.635   4.847   0.369 -1.7205  0.7001  1.5979
 3820TP3     H223280   0.530   4.766   0.442 -1.5569 -1.6231 -0.5817
 3821TP3      O23281   0.964   0.116   9.884 -0.6719 -0.4066  0.0500
 3821TP3     H123282   0.961   0.031   9.840 -0.3277 -0.8731  0.8980
 3821TP3     H223283   0.902   0.107   9.957 -1.7975  0.6030 -0.7466
 3822TP3      O23284   1.363   2.413   9.450  0.1680  0.4024  0.0372
 3822TP3     H123285   1.421   2.338   9.461  1.0097  1.0542  0.0866
 3822TP3     H223286   1.281   2.375   9.419  0.5012 -0.5639  0.2988
 3823TP3      O23287   3.106   2.551   8.618  0.6710 -0.1309  0.0721
 3823TP3     H123288   3.108   2.647   8.625  1.5690 -0.1381  0.0315
 3823TP3     H223289   3.016   2.528   8.638  0.3286  0.7593 -0.3670
 3824TP3      O23290   3.330   4.081   9.430 -0.7642  0.0048 -0.0921
 3824TP3     H123291   3.419   4.112   9.417 -0.9300  0.6947  0.3812
 3824TP3     H223292   3.339   3.986   9.438  0.1077  0.1829  1.3535
 3825TP3      O23293   5.110   0.879   9.766  0.3625  0.0776  0.0134
 3825TP3     H123294   5.038   0.833   9.723  1.8276 -1.4886 -0.8946
 3825TP3     H223295   5.086   0.972   9.760 -1.6211 -0.4033 -0.1033
 3826TP3      O23296   2.478   3.109   0.657  0.0995  0.2451 -0.2817
 3826TP3     H123297   2.489   3.071   0.570 -0.3917  1.3906 -0.8507
 3826TP3     H223298   2.541   3.180   0.661 -1.3450  1.5798 -0.5226
 3827TP3      O23299   0.682   2.874   1.843 -0.1841 -0.0022 -0.2230
 3827TP3     H123300   0.644   2.802   1.792  1.4067 -0.6249 -0.5692
 3827TP3     H223301   0.737   2.921   1.781  2.8597 -1.5510  1.0776
 3828TP3      O23302   1.571   4.810   8.992 -0.2478 -0.6695  0.0439
 3828TP3     H123303   1.487   4.856   8.999 -0.7191 -1.3320 -0.9311
 3828TP3     H223304   1.626   4.850   9.059 -1.0151  0.4844  0.0159
 3829TP3      O23305   0.747   0.326   9.574  0.1884 -0.4956  0.3809
 3829TP3     H123306   0.695   0.245   9.579 -1.4505  0.4502 -0.5660
 3829TP3     H223307   0.748   0.348   9.481  0.7722  0.4768  0.6040
 3830TP3      O23308   3.821   4.727   8.519 -0.0761 -0.4748 -0.1831
 3830TP3     H123309   3.792   4.639   8.495  0.3407 -0.7714  0.3665
 3830TP3     H223310   3.741   4.778   8.525 -0.2975 -0.7492 -0.7794
 3831TP3      O23311   0.261   4.439   9.995  0.2188 -0.6654  0.1519
 3831TP3     H123312   0.242   4.358   9.948 -0.2674 -0.6318  0.2864
 3831TP3     H223313   0.175   4.479  10.010  0.4767  0.0347 -0.1936
 3832TP3      O23314   1.710   1.667   7.634 -0.3854  0.0491  0.7193
 3832TP3     H123315   1.728   1.758   7.657 -1.6387  0.7471 -0.8728
 3832TP3     H223316   1.746   1.657   7.546  0.6241 -1.3325  1.2291
 3833TP3      O23317   0.633   4.460   2.743  0.0649  0.2521 -0.3548
 3833TP3     H123318   0.602   4.447   2.832  0.0187  0.2217 -0.3751
 3833TP3     H223319   0.628   4.374   2.703  2.3233 -0.2679  0.3090
 3834TP3      O23320   0.628   4.242   1.739  0.2084 -0.0101  0.0173
 3834TP3     H123321   0.684   4.191   1.679 -1.4721  1.7604 -3.3622
 3834TP3     H223322   0.555   4.183   1.759 -0.2796  0.0353 -1.5023
 3835TP3      O23323   0.550   1.044   8.142 -0.0654  0.3188 -0.0436
 3835TP3     H123324   0.476   0.988   8.118 -0.7011  0.9876  0.3434
 3835TP3     H223325   0.545   1.051   8.238  0.7294  0.0584  0.0281
 3836TP3      O23326   1.411   0.863   9.879  0.9604  0.3487 -0.0155
 3836TP3     H123327   1.397   0.769   9.867  0.1307  0.6381 -1.5258
 3836TP3     H223328   1.400   0.877   9.973  1.1113 -1.0616  0.2234
 3837TP3      O23329   1.733   4.565   1.711  0.0452 -0.6066  0.2104
 3837TP3     H123330   1.647   4.565   1.754 -0.6915  0.8088 -1.1673
 3837TP3     H223331   1.760   4.656   1.712  0.7556 -0.7908 -0.8567
 3838TP3      O23332   1.392   3.393   0.524  0.3660 -0.0709 -0.4006
 3838TP3     H123333   1.445   3.472   0.529  2.2251 -1.3012  3.7857
 3838TP3     H223334   1.329   3.402   0.595  0.9446 -2.4286  0.5058
 3839TP3      O23335   1.842   2.996   7.742  0.0768  0.0110 -0.1721
 3839TP3     H123336   1.903   2.973   7.671 -1.1209 -2.1640 -0.5721
 3839TP3     H223337   1.768   3.036   7.697 -0.2080 -0.3654 -0.0349
 3840TP3      O23338   3.911   1.776   8.308  0.5585 -0.4147 -0.0437
 3840TP3     H123339   3.824   1.744   8.333  0.7319 -0.4257  0.5504
 3840TP3     H223340   3.916   1.758   8.214 -0.7334  1.0654 -0.4463
 3841TP3      O23341   5.065   4.242   0.062  0.4310  0.0189  0.2162
 3841TP3     H123342   5.143   4.244   0.007  0.2472 -2.3252 -0.2586
 3841TP3     H223343   5.081   4.171   0.124 -1.7590 -1.3569 -0.6530
 3842TP3      O23344   4.221   4.140   8.597 -0.3985  0.0353 -0.0368
 3842TP3     H123345   4.188   4.051   8.608  1.7801 -0.9079 -0.5931
 3842TP3     H223346   4.197   4.163   8.507 -0.4825 -0.2247 -0.0827
 3843TP3      O23347   3.653   1.069   9.710 -0.3320  0.0223 -0.8272
 3843TP3     H123348   3.738   1.083   9.752 -0.2747 -0.9889 -0.5811
 3843TP3     H223349   3.675   1.053   9.618 -0.4243  1.7976 -1.1770
 3844TP3      O23350   2.957   4.051   2.179 -0.2130  0.6240  0.1222
 3844TP3     H123351   3.031   4.083   2.230  0.1652 -0.8639  0.5703
 3844TP3     H223352   2.948   3.959   2.206 -2.7122  0.9735  0.6410
 3845TP3      O23353   1.725   4.009   2.028  0.1970 -0.1179  0.4429
 3845TP3     H123354   1.710   3.980   2.118 -0.5349 -1.7288 -0.1509
 3845TP3     H223355   1.637   4.030   1.995  0.2876 -0.7825 -0.2633
 3846TP3      O23356   0.758   0.795   1.711 -0.2954  0.3862 -0.0615
 3846TP3     H123357   0.686   0.733   1.697 -0.3632  0.2295  0.9328
 3846TP3     H223358   0.748   0.859   1.639 -0.0305 -0.8944 -1.2764
 3847TP3      O23359   3.166   5.217   2.548 -0.1149  0.4693  0.1182
 3847TP3     H123360   3.121   5.301   2.558  0.0065  0.6893 -0.9885
 3847TP3     H223361   3.097   5.156   2.523  0.0703  0.6680 -0.9439
 3848TP3      O23362   2.128   0.044   8.129 -0.4309  0.2745 -0.4326
 3848TP3     H123363   2.132   0.032   8.224  0.8231  2.5022 -0.1497
 3848TP3     H223364   2.182  -0.027   8.094 -0.3758 -0.1855  0.5466
 3849TP3      O23365   1.168   0.635   2.769 -0.0390  0.1417  0.7742
 3849TP3     H123366   1.170   0.728   2.747 -0.8634 -0.2552 -1.2390
 3849TP3     H223367   1.084   0.623   2.814  0.1045  0.3880  1.1074
 3850TP3      O23368   0.815   4.998   8.889 -0.4636  0.1304 -0.7130
 3850TP3     H123369   0.856   4.950   8.817 -0.0749  1.1975 -1.2232
 3850TP3     H223370   0.857   5.084   8.887 -1.5416  0.6854 -0.1875
 3851TP3      O23371   4.845   3.304   2.874  0.2475  0.3865 -0.7164
 3851TP3     H123372   4.805   3.296   2.961  1.0539  0.4253 -0.3390
 3851TP3     H223373   4.849   3.214   2.842 -1.4581  0.5009 -1.3754
 3852TP3      O23374   0.585   1.806   2.216  0.1365  0.5021 -0.2709
 3852TP3     H123375   0.534   1.749   2.274  3.1124  0.0838  2.2215
 3852TP3     H223376   0.575   1.768   2.129  0.5519 -2.8381  0.9952
 3853TP3      O23377   0.384   4.195   7.302  0.0937 -0.2435 -0.4122
 3853TP3     H123378   0.466   4.222   7.344 -0.8576 -1.7666  2.8074
 3853TP3     H223379   0.404   4.109   7.264  0.5662  0.4796 -1.8747
 3854TP3      O23380   3.485   4.906   9.895 -0.3029 -0.3747 -0.4188
 3854TP3     H123381   3.547   4.854   9.947 -1.3644 -1.3630 -0.1039
 3854TP3     H223382   3.411   4.919   9.954  0.7007  3.2605  0.2464
 3855TP3      O23383   5.218   1.827   0.045 -0.2204 -0.5140  0.9866
 3855TP3     H123384   5.254   1.753   0.095 -0.6077 -1.7445 -0.4804
 3855TP3     H223385   5.293   1.862  -0.003 -0.2714 -0.7930  0.6957
 3856TP3      O23386   1.790   1.031   0.316 -0.3198  0.0943  0.1693
 3856TP3     H123387   1.825   1.119   0.302 -0.0904 -0.1822 -1.0623
 3856TP3     H223388   1.739   1.039   0.397 -0.8016  1.5149 -0.2312
 3857TP3      O23389   2.572   3.618   7.491 -0.0169 -0.3403 -0.1439
 3857TP3     H123390   2.633   3.561   7.537  2.2829  2.4587  0.6506
 3857TP3     H223391   2.583   3.595   7.399 -0.3263 -2.1289  0.2300
 3858TP3      O23392   3.246   4.644   8.320  0.4885 -0.6158  0.5197
 3858TP3     H123393   3.269   4.570   8.375 -1.0048  1.3105  4.0160
 3858TP3     H223394   3.151   4.652   8.328  0.4184  0.8012 -1.0225
 3859TP3      O23395   2.788   5.003   8.432  0.2912 -0.1372 -0.2160
 3859TP3     H123396   2.784   4.966   8.344  0.2817 -0.6662  0.0025
 3859TP3     H223397   2.865   4.962   8.472 -0.0979 -0.4261  0.2486
 3860TP3      O23398   2.452   1.772   2.331 -0.3822  0.3373 -0.1111
 3860TP3     H123399   2.407   1.798   2.251 -0.2633  0.5432 -0.1131
 3860TP3     H223400   2.392   1.712   2.375 -0.5481  0.4119 -0.2390
 3861TP3      O23401   4.214   1.957   2.350  0.5818 -0.2203 -0.0464
 3861TP3     H123402   4.261   2.018   2.407  0.4986  0.2948 -0.5143
 3861TP3     H223403   4.276   1.937   2.280 -0.4996  2.0915 -1.8255
 3862TP3      O23404   5.211   4.208   1.680 -0.3252  0.1561  0.4039
 3862TP3     H123405   5.268   4.284   1.689  2.1276 -1.3200 -1.2420
 3862TP3     H223406   5.263   4.135   1.715  0.0946 -1.7085 -3.5117
 3863TP3      O23407   5.236   2.112   9.020  0.2196  0.3663 -0.3972
 3863TP3     H123408   5.303   2.073   9.075  0.0420  0.2423 -0.2678
 3863TP3     H223409   5.283   2.141   8.942  0.3422 -0.1876 -0.5353
 3864TP3      O23410   2.510   2.951   9.249 -0.1533  0.1575 -0.2650
 3864TP3     H123411   2.438   2.953   9.186 -2.8095  0.5628  2.5328
 3864TP3     H223412   2.515   2.860   9.279  0.2227  0.2130 -0.1434
 3865TP3      O23413   4.210   0.453   7.971 -0.0890 -0.1646  0.3257
 3865TP3     H123414   4.255   0.509   7.908 -0.8632 -1.0715 -1.0734
 3865TP3     H223415   4.260   0.464   8.052  0.9588  0.9910 -0.4419
 3866TP3      O23416   4.575   2.466   1.466 -0.3171  0.1904 -0.0251
 3866TP3     H123417   4.503   2.515   1.506 -1.7668 -0.2679 -1.9146
 3866TP3     H223418   4.583   2.503   1.378  0.8982 -0.6497 -0.2968
 3867TP3      O23419   5.117   2.550   9.794  0.0643 -0.4615 -0.1547
 3867TP3     H123420   5.096   2.517   9.881  0.5110  0.5321  0.3474
 3867TP3     H223421   5.048   2.614   9.775  0.4128 -0.0953 -0.1886
 3868TP3      O23422   1.999   0.264   3.678 -0.2107 -0.2259  0.2652
 3868TP3     H123423   2.025   0.176   3.704 -0.5291 -0.3232  0.2499
 3868TP3     H223424   2.078   0.301   3.639 -0.0665 -0.4923  0.3033
 3869TP3      O23425   4.702   1.332   8.502  0.3469  0.5715  0.0351
 3869TP3     H123426   4.610   1.311   8.487  0.4631  0.0527  0.0294
 3869TP3     H223427   4.747   1.247   8.500  0.5569  0.5774  2.1141
 3870TP3      O23428   0.102   0.443   7.128 -0.0180  0.7530 -0.3582
 3870TP3     H123429   0.006   0.448   7.120 -0.1940 -0.6339  0.4800
 3870TP3     H223430   0.131   0.410   7.044 -0.2349  1.5329 -0.7466
 3871TP3      O23431   0.009   5.083   1.475  0.8663  0.5142  0.7178
 3871TP3     H123432  -0.061   5.136   1.513 -0.5125  1.7876 -3.0966
 3871TP3     H223433   0.083   5.143   1.468  0.4651  0.9112 -0.3276
 3872TP3      O23434   2.143   4.425   9.317 -0.2382 -0.1799 -0.4355
 3872TP3     H123435   2.093   4.370   9.257  0.1813  0.9606 -1.8785
 3872TP3     H223436   2.221   4.373   9.337 -0.0557 -0.3234 -1.4376
 3873TP3      O23437   3.898   0.101   1.984  0.0824  0.1901  0.2425
 3873TP3     H123438   3.813   0.060   2.000 -0.0396  0.6157  0.7100
 3873TP3     H223439   3.883   0.194   2.002 -0.0842  0.7538 -2.3652
 3874TP3      O23440   2.873   5.166   7.748 -0.0174  0.0225 -0.7512
 3874TP3     H123441   2.907   5.137   7.663  1.4721  0.9484 -0.5120
 3874TP3     H223442   2.844   5.256   7.733  2.1605  0.9343  0.1355
 3875TP3      O23443   4.958   1.367   2.049  0.2604  0.1686  0.0489
 3875TP3     H123444   4.947   1.372   2.144  0.0590  0.4392  0.0133
 3875TP3     H223445   4.950   1.458   2.020  0.8504  0.1555 -0.1707
 3876TP3      O23446   5.079   0.169   7.210  0.3813 -0.0137  0.0040
 3876TP3     H123447   5.081   0.264   7.212 -0.6132  0.0234 -0.4317
 3876TP3     H223448   4.988   0.146   7.229  0.6839 -0.8907  0.4711
 3877TP3      O23449   4.948   1.075  10.019  0.1891 -0.4396 -0.3032
 3877TP3     H123450   4.870   1.021  10.003 -0.2985  0.4122 -0.8886
 3877TP3     H223451   5.006   1.019  10.071 -0.9884 -0.9439  0.5118
 3878TP3      O23452   1.936   3.909   9.199 -0.5769  0.3246  0.2345
 3878TP3     H123453   1.996   3.836   9.215  0.5873  1.5975  2.0519
 3878TP3     H223454   1.933   3.917   9.104  1.7205 -0.1713  0.0636
 3879TP3      O23455   4.762   3.930   2.279 -0.3613  0.1079 -0.3669
 3879TP3     H123456   4.830   3.954   2.216  0.4809  0.4955  0.6546
 3879TP3     H223457   4.796   3.853   2.323 -0.1582  0.8117  0.7587
 3880TP3      O23458   3.105   1.174   1.106 -0.8069  0.8314  0.1541
 3880TP3     H123459   3.017   1.174   1.145 -0.6493  0.8004  0.5114
 3880TP3     H223460   3.089   1.166   1.012 -1.1502 -0.3599  0.2916
 3881TP3      O23461   1.432   0.026   7.418 -0.1538  0.4707  0.7017
 3881TP3     H123462   1.402   0.019   7.327 -2.0602  0.2069  1.3160
 3881TP3     H223463   1.429   0.120   7.437  0.6250  0.5687  0.4000
 3882TP3      O23464   4.652   2.069   7.856 -0.2755  0.1141 -0.3613
 3882TP3     H123465   4.577   2.023   7.818  0.0876 -1.3698  0.5864
 3882TP3     H223466   4.727   2.037   7.807 -0.0279 -0.2516  0.2392
 3883TP3      O23467   1.849   3.675   8.448 -0.0611  0.2761  0.5991
 3883TP3     H123468   1.859   3.579   8.449 -2.6924 -0.1083 -0.1515
 3883TP3     H223469   1.805   3.694   8.531 -0.5328  0.6650  0.2657
 3884TP3      O23470   0.668   1.997   6.913  0.5215  0.0620 -0.3325
 3884TP3     H123471   0.586   1.957   6.883  1.0821 -1.1341 -0.3225
 3884TP3     H223472   0.672   1.976   7.006  0.8139  0.1720 -0.3199
 3885TP3      O23473   3.579   4.699   9.308  0.3370  0.5215  0.0213
 3885TP3     H123474   3.519   4.625   9.295  1.4406 -0.2256 -1.0326
 3885TP3     H223475   3.549   4.764   9.245 -1.2206  1.3926  1.5972
 3886TP3      O23476   2.767   0.753   9.760  0.1996 -0.0180 -0.5753
 3886TP3     H123477   2.795   0.725   9.848 -0.0800 -0.2341 -0.5556
 3886TP3     H223478   2.816   0.834   9.745 -0.8259  0.8177  0.3881
 3887TP3      O23479   2.004   4.166   9.464 -0.2765  0.0545  0.2036
 3887TP3     H123480   1.950   4.234   9.504 -0.7825 -0.2515  0.0454
 3887TP3     H223481   1.963   4.149   9.379 -0.7959 -1.2169  0.6883
 3888TP3      O23482   0.094   1.227   1.037  0.1518 -0.1188 -0.3163
 3888TP3     H123483   0.040   1.164   1.084  0.5289 -0.5513 -0.4615
 3888TP3     H223484   0.121   1.290   1.104 -0.3677 -0.0039 -0.2078
 3889TP3      O23485   3.446   1.734   0.865  0.1309  0.2472 -0.0620
 3889TP3     H123486   3.485   1.808   0.911  1.2213  0.4686 -1.2797
 3889TP3     H223487   3.406   1.773   0.787  1.1453 -0.4696 -0.9741
 3890TP3      O23488   2.462   2.334   0.487  0.0169  0.2491  0.1465
 3890TP3     H123489   2.482   2.413   0.437  0.0610  1.0851  1.4295
 3890TP3     H223490   2.513   2.265   0.445  0.8931  1.1409 -0.2932
 3891TP3      O23491   0.537   4.449  10.042  0.0781 -0.5263 -0.2000
 3891TP3     H123492   0.522   4.460  10.136  0.1354 -1.6040 -0.0501
 3891TP3     H223493   0.449   4.441  10.005  0.0575 -0.1501 -0.2392
 3892TP3      O23494   2.656   3.634   8.717  0.1617 -0.2899 -0.3432
 3892TP3     H123495   2.696   3.715   8.751  1.6694 -1.4117  0.6697
 3892TP3     H223496   2.566   3.637   8.749  0.2287  0.9269 -0.2062
 3893TP3      O23497   0.729   0.045   8.922 -0.0741  0.2048 -0.2475
 3893TP3     H123498   0.773  -0.009   8.856  0.7114  2.8324 -2.0686
 3893TP3     H223499   0.785   0.038   9.000  1.9487  1.0357 -1.5451
 3894TP3      O23500   1.121   0.431   8.790 -0.0257 -0.1549  0.5384
 3894TP3     H123501   1.050   0.376   8.757  0.0473  0.8269 -1.4007
 3894TP3     H223502   1.177   0.371   8.839 -0.7428 -1.4876 -0.2133
 3895TP3      O23503   2.304   3.679   7.715  0.0067  0.0212 -0.0198
 3895TP3     H123504   2.256   3.746   7.763 -0.3024  0.9116 -1.5039
 3895TP3     H223505   2.370   3.648   7.777  1.1672  2.7793  0.2878
 3896TP3      O23506   0.039   0.113   1.655 -0.0750 -0.1639  0.7045
 3896TP3     H123507  -0.029   0.050   1.677 -0.8498  0.4205  0.0408
 3896TP3     H223508   0.088   0.072   1.583 -0.3043 -0.2001  0.5683
 3897TP3      O23509   3.391   2.038   7.598 -0.1703  0.6254  0.1463
 3897TP3     H123510   3.296   2.029   7.604 -0.0305 -0.5016  0.8253
 3897TP3     H223511   3.419   1.965   7.544  0.4458  0.1427  1.1038
 3898TP3      O23512   0.727   2.592   0.849 -0.3808  0.2188  0.5049
 3898TP3     H123513   0.790   2.568   0.781 -0.2230 -0.2616  0.8107
 3898TP3     H223514   0.711   2.510   0.896 -1.6170  0.2212  0.1146
 3899TP3      O23515   4.300   4.665   8.485 -0.2591  0.1921 -0.1252
 3899TP3     H123516   4.272   4.575   8.502  3.9072 -0.8648  2.5728
 3899TP3     H223517   4.262   4.716   8.555  2.1892 -0.7894  2.0877
 3900TP3      O23518   0.487   4.317   7.619 -0.0437  0.1498  0.6450
 3900TP3     H123519   0.413   4.335   7.677 -1.2723  1.6407 -1.2313
 3900TP3     H223520   0.502   4.223   7.627 -3.2431 -0.5272 -0.0825
 3901TP3      O23521   4.637   5.005   7.682  0.2915  0.1852 -0.6252
 3901TP3     H123522   4.621   4.975   7.771 -0.8459  1.9126 -0.2002
 3901TP3     H223523   4.658   5.098   7.692  1.3034  0.1418 -2.0704
 3902TP3      O23524   2.132   5.144   0.467 -0.0229 -0.0933  0.5426
 3902TP3     H123525   2.179   5.084   0.526  1.4354 -0.9804 -1.4018
 3902TP3     H223526   2.201   5.184   0.415 -1.1071  2.3129  0.8587
 3903TP3      O23527   4.391   0.785   8.312 -0.6454 -0.0144 -0.2329
 3903TP3     H123528   4.316   0.826   8.356 -1.3326 -1.0343 -0.4175
 3903TP3     H223529   4.373   0.796   8.219 -0.6846 -0.4602 -0.2802
 3904TP3      O23530   2.091   1.777   9.415  0.1205  0.1901  0.0098
 3904TP3     H123531   2.113   1.816   9.330  0.0648  2.9222  1.1301
 3904TP3     H223532   1.996   1.771   9.414  0.1247  0.1331 -0.1575
 3905TP3      O23533   4.953   5.283   0.868 -0.1528 -0.4257 -0.3933
 3905TP3     H123534   4.969   5.335   0.789  1.1438 -0.1393  0.0363
 3905TP3     H223535   5.018   5.314   0.931  0.1181 -1.9915  0.1537
 3906TP3      O23536   0.260   4.689   2.163 -0.2907 -0.0607  0.2065
 3906TP3     H123537   0.276   4.728   2.249  0.0381  0.5648 -0.1304
 3906TP3     H223538   0.174   4.647   2.171  0.4526 -1.4336  1.3249
 3907TP3      O23539   2.400   3.044   8.050  0.0503  0.2830 -0.4115
 3907TP3     H123540   2.317   3.067   8.007  0.4578  1.5556 -0.5665
 3907TP3     H223541   2.444   3.128   8.062  1.3045 -0.3772 -0.2908
 3908TP3      O23542   0.431   2.351   8.558  0.1013 -0.0123  0.3997
 3908TP3     H123543   0.385   2.324   8.479 -0.2898  0.7303  0.3659
 3908TP3     H223544   0.519   2.374   8.529  0.4586 -1.2661  0.4352
 3909TP3      O23545   3.385   3.986   8.292 -0.0778 -0.6117 -0.3019
 3909TP3     H123546   3.349   4.071   8.267 -0.4948 -0.6399  0.1829
 3909TP3     H223547   3.421   3.950   8.211 -0.8553 -0.4356 -0.7295
 3910TP3      O23548   1.017   0.268   9.538 -0.6432 -0.1842  0.2520
 3910TP3     H123549   1.089   0.222   9.495 -0.2828 -1.2784  1.9511
 3910TP3     H223550   0.948   0.202   9.546 -0.9540  0.1993  0.7473
 3911TP3      O23551   1.037   3.910   1.467  0.3552 -0.1536  0.7082
 3911TP3     H123552   1.088   3.830   1.480  0.3639 -0.2691 -0.0010
 3911TP3     H223553   1.093   3.980   1.502  0.2290 -0.4775  1.5919
 3912TP3      O23554   2.433   0.474   8.074 -0.2336 -0.0081 -0.3891
 3912TP3     H123555   2.389   0.539   8.128 -1.8758 -1.1379 -0.2741
 3912TP3     H223556   2.375   0.397   8.078  2.5438 -2.2345  1.1623
 3913TP3      O23557   3.619   0.999   8.705 -0.1674  0.6555  0.0426
 3913TP3     H123558   3.698   1.054   8.706  0.8277 -0.7222  0.7340
 3913TP3     H223559   3.578   1.018   8.621 -0.1386  2.8046  0.4454
 3914TP3      O23560   1.599   2.567   1.211  0.7660 -0.3870  0.1550
 3914TP3     H123561   1.617   2.608   1.127  0.3736 -0.7459 -0.1080
 3914TP3     H223562   1.620   2.634   1.276 -1.2825  0.7875 -0.3128
 3915TP3      O23563   1.257   1.832   2.502  0.3563 -0.1032 -0.1366
 3915TP3     H123564   1.189   1.781   2.547  0.1125  0.7344  0.4927
 3915TP3     H223565   1.213   1.915   2.480  0.5783 -0.3602 -1.6272
 3916TP3      O23566   0.835   4.962   1.019 -0.0008 -0.2553  0.3343
 3916TP3     H123567   0.858   4.987   1.108  2.1621 -2.3629  0.4617
 3916TP3     H223568   0.902   5.002   0.964  1.1315 -2.2736  0.1480
 3917TP3      O23569   3.654   3.396   8.267  0.1282  0.0190 -0.8118
 3917TP3     H123570   3.723   3.375   8.329 -0.9054  0.1545  0.4175
 3917TP3     H223571   3.674   3.485   8.238 -0.0888  0.4713  0.3576
 3918TP3      O23572   4.039   0.785   9.052 -0.3562 -0.1158 -0.2469
 3918TP3     H123573   3.944   0.773   9.059 -0.2849 -0.1779  0.7222
 3918TP3     H223574   4.072   0.770   9.141  0.3925  1.4946 -0.2298
 3919TP3      O23575   0.335   0.590   7.177 -0.5425 -0.4847 -0.5748
 3919TP3     H123576   0.409   0.541   7.215 -1.1598 -1.9648 -1.2180
 3919TP3     H223577   0.267   0.525   7.165 -1.2294  0.4421 -1.9497
 3920TP3      O23578   4.969   5.261   1.245 -0.1490 -0.5202  0.0340
 3920TP3     H123579   5.062   5.250   1.226 -0.1877 -0.4350 -0.2119
 3920TP3     H223580   4.925   5.209   1.177 -0.2672 -1.0023  0.4781
 3921TP3      O23581   3.412   0.470   2.911 -0.2697 -0.3336  0.4844
 3921TP3     H123582   3.427   0.391   2.859 -0.3073 -0.2939  0.4112
 3921TP3     H223583   3.326   0.457   2.951 -0.3582 -0.2504  0.3232
 3922TP3      O23584   3.925   1.804   1.809  0.2123  0.0958  0.0910
 3922TP3     H123585   3.878   1.883   1.784 -0.2871 -0.4907 -0.8584
 3922TP3     H223586   4.000   1.801   1.750  0.1144 -0.2539 -0.0164
 3923TP3      O23587   3.520   2.552   2.910  0.0640 -0.1726 -0.3890
 3923TP3     H123588   3.572   2.541   2.830 -0.3511 -0.2729 -0.6456
 3923TP3     H223589   3.475   2.636   2.897  1.0672  0.5092  0.3500
 3924TP3      O23590   4.012   2.881   8.672 -0.5006  0.3612  0.6119
 3924TP3     H123591   4.030   2.803   8.621  0.2091  0.3246  0.8963
 3924TP3     H223592   4.009   2.850   8.763  2.4281  0.9832  1.0415
 3925TP3      O23593   0.464   0.944   1.276 -0.2914  0.2350 -0.9720
 3925TP3     H123594   0.547   0.940   1.229 -1.0159 -0.9967 -2.2015
 3925TP3     H223595   0.402   0.897   1.220 -1.1537 -1.5049  1.2826
 3926TP3      O23596   5.110   3.987   7.120 -0.3277 -0.4281  0.0385
 3926TP3     H123597   5.161   4.068   7.115 -0.6394 -0.1315  1.2611
 3926TP3     H223598   5.161   3.929   7.176 -0.2674 -0.9682 -0.5632
 3927TP3      O23599   2.000   0.282   0.833  0.2819 -0.4066 -0.4342
 3927TP3     H123600   2.085   0.275   0.790 -0.6299 -1.9114 -2.1543
 3927TP3     H223601   1.945   0.328   0.769  0.0824  1.8032  1.2100
 3928TP3      O23602   2.951   0.804   2.948 -0.3573  0.1574 -0.8153
 3928TP3     H123603   2.967   0.877   3.007  0.7096  0.0991 -1.0083
 3928TP3     H223604   2.936   0.845   2.863 -0.0491  0.1651 -0.8663
 3929TP3      O23605   1.215   4.927   8.424 -0.0463 -0.3634 -0.1690
 3929TP3     H123606   1.218   4.878   8.342 -0.6734  2.3054 -1.9008
 3929TP3     H223607   1.270   4.876   8.484  1.3616 -1.8423 -2.5446
 3930TP3      O23608   4.163   5.225   1.490  0.0424  0.2801  0.0592
 3930TP3     H123609   4.235   5.275   1.451  1.5957 -0.6576  1.6331
 3930TP3     H223610   4.131   5.281   1.561 -0.3644  0.4031 -0.2147
 3931TP3      O23611   2.940   0.017   3.314 -0.0316  0.4622  0.1024
 3931TP3     H123612   2.977  -0.025   3.392 -0.5041 -1.3552 -0.6070
 3931TP3     H223613   2.845   0.010   3.326 -0.1210 -1.0589 -1.2279
 3932TP3      O23614   5.225   4.781   8.619  0.2872  0.1985  0.7641
 3932TP3     H123615   5.164   4.710   8.599 -0.3302  0.9619 -0.1496
 3932TP3     H223616   5.299   4.738   8.660 -0.2352 -0.9315  0.5577
 3933TP3      O23617   2.990   3.265   8.075  0.5804 -0.0518 -0.5572
 3933TP3     H123618   2.922   3.208   8.040 -0.9166  1.6160 -0.4623
 3933TP3     H223619   2.998   3.336   8.011 -1.0617  2.1877  1.5759
 3934TP3      O23620   2.595   2.597   3.138  0.1369  0.2606 -0.3977
 3934TP3     H123621   2.595   2.529   3.070  0.5902  1.8968 -2.1054
 3934TP3     H223622   2.670   2.575   3.194 -1.3150 -2.1599  0.7574
 3935TP3      O23623   0.111   1.037   1.907  0.3252  0.2779  0.0265
 3935TP3     H123624   0.158   0.956   1.930 -0.1152  0.3457  1.2433
 3935TP3     H223625   0.069   1.064   1.989 -1.6238  0.3651 -0.9388
 3936TP3      O23626   2.229   2.474   3.303  0.4823  0.1515 -0.0664
 3936TP3     H123627   2.161   2.527   3.345  0.6626 -0.5720  1.1766
 3936TP3     H223628   2.246   2.519   3.221 -0.1421  1.4163  0.4637
 3937TP3      O23629   4.735   1.259   1.427  0.2396  0.4247 -0.1493
 3937TP3     H123630   4.668   1.196   1.453  0.0573  0.9984  0.7979
 3937TP3     H223631   4.700   1.300   1.348 -0.0104 -0.0718 -0.2977
 3938TP3      O23632   1.433   4.893   7.632 -0.0549 -0.4566 -0.1937
 3938TP3     H123633   1.478   4.959   7.580 -0.0353 -0.0140  0.3756
 3938TP3     H223634   1.350   4.878   7.587  0.3689 -0.7877 -0.8780
 3939TP3      O23635   5.119   3.193   8.782 -0.1366 -0.3612 -0.0433
 3939TP3     H123636   5.148   3.107   8.751  0.1320 -0.7125  1.1214
 3939TP3     H223637   5.032   3.177   8.818 -0.3888  0.0138 -0.4679
 3940TP3      O23638   1.027   0.904   2.331  0.0863 -0.0517 -0.5671
 3940TP3     H123639   1.092   0.919   2.262  0.9071  1.2489  0.4356
 3940TP3     H223640   1.079   0.875   2.407 -0.5031  0.8942  0.2172
 3941TP3      O23641   2.370   2.700   6.586 -0.2128 -0.2120 -0.2513
 3941TP3     H123642   2.433   2.629   6.570 -0.6412 -0.0597 -3.2452
 3941TP3     H223643   2.285   2.661   6.567 -0.5602  0.7623 -0.7602
 3942TP3      O23644   5.165   0.181   2.599 -0.5716  0.4110 -0.2644
 3942TP3     H123645   5.246   0.164   2.646 -1.6250 -0.6830  1.2288
 3942TP3     H223646   5.097   0.183   2.666 -1.7699  1.6209 -1.4366
 3943TP3      O23647   1.491   3.985   8.128 -0.6074 -0.6294 -0.1451
 3943TP3     H123648   1.402   3.990   8.162 -0.7531 -0.0792 -0.5894
 3943TP3     H223649   1.496   3.900   8.084 -1.7358  0.3618 -2.3303
 3944TP3      O23650   0.156   2.597   6.830 -0.8177 -0.2713 -0.1462
 3944TP3     H123651   0.109   2.528   6.783 -0.8500  0.6468 -1.5315
 3944TP3     H223652   0.099   2.620   6.902 -0.5781 -2.0192  0.6708
 3945TP3      O23653   0.409   3.068   8.791  0.0676 -0.5834  0.0141
 3945TP3     H123654   0.401   3.149   8.842 -0.9020 -0.4211 -0.3830
 3945TP3     H223655   0.357   3.004   8.839 -2.0913 -0.0560 -1.5093
 3946TP3      O23656   0.980   4.963   0.569 -0.5322  0.0413 -0.2026
 3946TP3     H123657   0.928   4.950   0.489 -0.7424 -0.9651  0.0838
 3946TP3     H223658   1.063   4.918   0.551 -1.0852 -1.3745  0.6267
 3947TP3      O23659   1.272   4.195   7.558 -0.0328 -0.0740 -0.1238
 3947TP3     H123660   1.358   4.168   7.525  0.7570  1.3199  0.7160
 3947TP3     H223661   1.285   4.205   7.652 -1.1186  0.1995  0.0081
 3948TP3      O23662   4.503   0.194   3.175 -0.2719  0.7783  0.0746
 3948TP3     H123663   4.506   0.155   3.087 -0.6404 -0.3693  0.5573
 3948TP3     H223664   4.562   0.269   3.170  0.9224 -0.1849 -0.7197
 3949TP3      O23665   0.516   4.485   1.772  0.3331  0.2884  0.6225
 3949TP3     H123666   0.552   4.396   1.772  0.3560  0.2549  2.4801
 3949TP3     H223667   0.564   4.530   1.842 -1.0960  1.1358  1.1039
 3950TP3      O23668   1.230   4.864   7.446  0.0444 -0.1485 -0.5782
 3950TP3     H123669   1.156   4.919   7.471  0.6257  0.1164  0.6319
 3950TP3     H223670   1.253   4.893   7.358 -2.3494 -1.3971 -1.7041
 3951TP3      O23671   2.410   1.341   7.996  0.2103  0.7717  0.3630
 3951TP3     H123672   2.351   1.269   7.975 -0.0660  1.2527 -0.5631
 3951TP3     H223673   2.486   1.298   8.037  1.2768 -0.4204 -2.5424
 3952TP3      O23674   4.758   3.916   0.654 -0.5358  0.0687  0.3296
 3952TP3     H123675   4.705   3.887   0.580 -1.0147  0.4081  0.5340
 3952TP3     H223676   4.845   3.929   0.617 -0.8994  0.7934 -0.3064
 3953TP3      O23677   1.475   1.740   7.889 -0.0673 -0.0462 -0.2944
 3953TP3     H123678   1.451   1.698   7.806 -1.3312  0.3675 -0.1562
 3953TP3     H223679   1.486   1.668   7.951  1.4552 -0.4050 -0.9304
 3954TP3      O23680   1.094   4.205   7.315 -0.6703 -0.2556 -0.0840
 3954TP3     H123681   1.117   4.259   7.239 -1.6189  0.2170 -0.0507
 3954TP3     H223682   1.176   4.195   7.363 -0.3862  0.7870 -0.3308
 3955TP3      O23683   1.937   5.013   1.230  0.1965  0.7560 -1.1047
 3955TP3     H123684   2.025   5.011   1.267  0.1038  0.7744 -0.8793
 3955TP3     H223685   1.912   5.105   1.231 -0.5705  0.5699  0.6394
 3956TP3      O23686   1.884   2.597   7.156  0.1243  0.3403 -0.3728
 3956TP3     H123687   1.921   2.669   7.207  1.9471  0.4039 -1.6921
 3956TP3     H223688   1.855   2.638   7.075 -1.1425 -0.0458 -0.1408
 3957TP3      O23689   3.665   4.922   7.350  0.1613  0.1457  0.0048
 3957TP3     H123690   3.601   4.863   7.309  0.6070  0.0034 -0.4938
 3957TP3     H223691   3.747   4.873   7.349  0.8353  1.2047 -1.5610
 3958TP3      O23692   5.075   3.362   2.097  0.3177 -0.5796 -0.2360
 3958TP3     H123693   5.052   3.279   2.055  2.3460 -1.2252 -0.1537
 3958TP3     H223694   5.122   3.336   2.176  0.3811  0.6610  0.1493
 3959TP3      O23695   3.408   2.366  10.043  0.3460 -0.0135  0.6304
 3959TP3     H123696   3.427   2.330   9.956  0.9132  0.6234  0.4815
 3959TP3     H223697   3.432   2.459  10.036  1.9271 -0.2700  1.9061
 3960TP3      O23698   1.010   1.155   0.874 -0.1863  0.3886  0.1931
 3960TP3     H123699   1.042   1.090   0.937 -0.7808 -0.5433 -0.4328
 3960TP3     H223700   0.917   1.163   0.893  0.0414  1.7221  0.8207
 3961TP3      O23701   1.188   3.181   1.315  0.0670  0.4600  0.4637
 3961TP3     H123702   1.244   3.122   1.364  0.2159 -0.6470 -0.9754
 3961TP3     H223703   1.125   3.214   1.380  1.3604  0.4892  1.7583
 3962TP3      O23704   0.642   1.763   8.793 -0.2042  0.4738  0.6853
 3962TP3     H123705   0.639   1.784   8.699  1.8108  0.4480  0.5697
 3962TP3     H223706   0.618   1.844   8.837  0.2495  0.9103  0.1437
 3963TP3      O23707   5.268   2.571   0.704 -0.0498  0.3700  0.2176
 3963TP3     H123708   5.204   2.636   0.735  1.1203  1.3565  0.6154
 3963TP3     H223709   5.346   2.586   0.757  1.0664  0.2389 -1.3191
 3964TP3      O23710   4.987   2.660   8.149  0.1911  0.4074 -0.1767
 3964TP3     H123711   4.901   2.684   8.114 -1.3346 -0.9888  2.3232
 3964TP3     H223712   5.027   2.744   8.174 -1.3601  0.9522  0.5819
 3965TP3      O23713   0.437   1.844   6.844 -0.1375  0.0703 -0.1647
 3965TP3     H123714   0.420   1.829   6.751 -1.9233 -0.9106  0.2753
 3965TP3     H223715   0.462   1.759   6.878 -1.7250 -0.0937  0.6687
 3966TP3      O23716   3.070   1.015   1.480  0.1267  0.0161 -0.5916
 3966TP3     H123717   3.098   1.054   1.398 -0.0087  1.1036 -0.1344
 3966TP3     H223718   2.993   0.963   1.457 -1.1376  1.9176 -0.8546
 3967TP3      O23719   4.426   1.780   2.753 -0.7095  0.5723  0.0249
 3967TP3     H123720   4.342   1.824   2.765  0.2981  2.7153 -0.3184
 3967TP3     H223721   4.405   1.687   2.762 -2.8027  1.1123  1.7487
 3968TP3      O23722   4.848   3.517   1.193 -0.4176 -0.5727 -0.2494
 3968TP3     H123723   4.775   3.524   1.254 -0.1157 -1.2663  0.1987
 3968TP3     H223724   4.806   3.512   1.107 -0.7970  1.8957 -0.2580
 3969TP3      O23725   0.677   1.663   9.514  0.7507 -0.0955 -0.2153
 3969TP3     H123726   0.738   1.691   9.447  1.9062  0.0284  0.8632
 3969TP3     H223727   0.715   1.582   9.549 -0.0337 -0.3665  0.0363
 3970TP3      O23728   2.966   2.829   0.753  0.4472  0.3118 -0.0509
 3970TP3     H123729   2.875   2.845   0.780  0.9911  1.4216  1.1947
 3970TP3     H223730   2.977   2.885   0.676  0.4811  1.2761  0.6365
 3971TP3      O23731   1.121   1.343   9.107 -0.5175  0.5660  0.0134
 3971TP3     H123732   1.187   1.358   9.039  0.5371 -0.9443  0.6622
 3971TP3     H223733   1.052   1.406   9.087 -0.2509  0.1750 -2.4641
 3972TP3      O23734   1.380   3.922   7.346 -0.2833  0.2261  0.1593
 3972TP3     H123735   1.299   3.910   7.394 -0.0459 -0.9964  0.2868
 3972TP3     H223736   1.410   4.009   7.371 -1.8192  0.9257 -0.3157
 3973TP3      O23737   1.551   1.633   1.880 -0.7549  0.0711  0.0495
 3973TP3     H123738   1.568   1.717   1.923  0.2624 -1.3788  2.7498
 3973TP3     H223739   1.456   1.623   1.886 -0.9039  1.0455 -0.4036
 3974TP3      O23740   3.559   5.277   1.114  0.0540 -0.7410 -0.0210
 3974TP3     H123741   3.622   5.242   1.052 -1.3170 -1.9428 -0.7976
 3974TP3     H223742   3.612   5.317   1.183  1.6109 -0.3809 -1.3911
 3975TP3      O23743   0.841   4.522   9.345  0.1534 -0.0211 -0.4522
 3975TP3     H123744   0.757   4.566   9.329 -0.4630 -0.8279  0.4245
 3975TP3     H223745   0.819   4.449   9.403  1.3647 -0.6604 -0.7613
 3976TP3      O23746   2.273   3.487   9.907 -0.0441 -0.1542  0.1346
 3976TP3     H123747   2.281   3.563   9.965 -0.8283 -0.6815  0.9724
 3976TP3     H223748   2.310   3.516   9.823 -1.2274  1.4843  0.1339
 3977TP3      O23749   2.110   5.272   8.387 -0.0543 -0.5256  0.1766
 3977TP3     H123750   2.171   5.209   8.425 -0.8183 -0.0822  2.2431
 3977TP3     H223751   2.094   5.336   8.456  1.8696  2.9441 -2.2982
 3978TP3      O23752   0.138   0.913   2.368  0.1718  0.2246 -0.7937
 3978TP3     H123753   0.078   0.977   2.406  0.3356  0.0511 -0.2325
 3978TP3     H223754   0.095   0.829   2.381  0.5151  0.1056 -0.4397
 3979TP3      O23755   2.703   3.378   2.308  0.1598  0.2549 -0.0540
 3979TP3     H123756   2.796   3.382   2.288  0.2346 -0.6683  0.0722
 3979TP3     H223757   2.675   3.469   2.309  1.6162  0.7626  2.5957
 3980TP3      O23758   3.475   2.789   8.757 -0.0278 -0.6553  0.0081
 3980TP3     H123759   3.379   2.791   8.748 -0.1053 -0.2878  0.8237
 3980TP3     H223760   3.492   2.832   8.840  0.9047 -0.1154 -0.4520
 3981TP3      O23761   2.449   4.807  10.010  0.4065 -0.5785  0.2239
 3981TP3     H123762   2.357   4.779  10.016  0.6103 -0.9314  2.2690
 3981TP3     H223763   2.492   4.734   9.965  0.1988 -1.8775  1.9955
 3982TP3      O23764   0.905   1.729   8.867  0.5688 -0.1084 -0.3723
 3982TP3     H123765   0.818   1.734   8.826  0.2617  0.9380  0.3618
 3982TP3     H223766   0.919   1.816   8.904  1.4743 -0.5863  0.4562
 3983TP3      O23767   1.065   4.674   2.170  1.1505 -0.4459 -0.2546
 3983TP3     H123768   0.986   4.699   2.121  1.3295 -0.7373 -0.6915
 3983TP3     H223769   1.137   4.695   2.112  1.4577  0.5843  0.4636
 3984TP3      O23770   1.819   2.438   2.172  0.5601  0.2922 -0.2159
 3984TP3     H123771   1.902   2.425   2.218 -0.7931 -0.9063  2.1182
 3984TP3     H223772   1.794   2.350   2.144 -0.4429  0.4486  0.1441
 3985TP3      O23773   3.975   1.340   8.533 -0.5716  0.1519 -0.2466
 3985TP3     H123774   4.042   1.401   8.564  2.2137 -1.8744 -1.8078
 3985TP3     H223775   3.919   1.393   8.476  0.3053  1.7363  0.3105
 3986TP3      O23776   5.237   4.967   1.057 -0.1133  0.0223  0.5611
 3986TP3     H123777   5.324   5.005   1.055  0.3460 -0.9903  0.6039
 3986TP3     H223778   5.186   5.025   1.115  0.0398  1.5702 -0.7853
 3987TP3      O23779   1.387   1.118   1.272 -0.6932 -0.5593  0.1290
 3987TP3     H123780   1.305   1.106   1.224 -2.2012 -0.5668  2.5423
 3987TP3     H223781   1.370   1.190   1.332  1.5590  0.3353 -0.2159
 3988TP3      O23782   1.960   5.276   9.640 -0.0098 -0.6155  0.2479
 3988TP3     H123783   1.988   5.205   9.698 -0.0720 -1.1468 -0.3664
 3988TP3     H223784   2.041   5.321   9.616 -0.1434  1.0605  2.5433
 3989TP3      O23785   2.237   4.823   0.402  0.1317  0.1565  0.2666
 3989TP3     H123786   2.296   4.748   0.400  0.4426  0.4089 -1.2591
 3989TP3     H223787   2.162   4.793   0.453  0.6721 -0.8725  0.4867
 3990TP3      O23788   0.035   4.000   3.158  0.1308 -0.3359  0.0155
 3990TP3     H123789  -0.006   3.992   3.072  1.0036 -1.4333 -0.3293
 3990TP3     H223790  -0.005   3.932   3.211 -0.0305 -0.0022  0.3274
 3991TP3      O23791   1.421   3.019   0.778  0.1386  0.1963 -0.8673
 3991TP3     H123792   1.328   2.995   0.778  0.3378 -0.5955 -0.7505
 3991TP3     H223793   1.423   3.103   0.824 -0.5022  0.1580 -0.7478
 3992TP3      O23794   3.741   1.979   7.144  0.5395 -0.7809 -0.1686
 3992TP3     H123795   3.649   1.961   7.164  0.6473  0.1710  1.3479
 3992TP3     H223796   3.788   1.901   7.171  0.3210 -0.7373  0.3429
 3993TP3      O23797   3.556   1.568   0.021 -0.8238  0.2799  0.2789
 3993TP3     H123798   3.608   1.490   0.001 -0.3145  0.9142 -0.9164
 3993TP3     H223799   3.552   1.570   0.117  0.9210 -0.0671  0.3855
 3994TP3      O23800   0.862   1.699   9.313 -0.0474 -0.1484  0.1230
 3994TP3     H123801   0.842   1.625   9.256  1.6360 -0.1334 -0.5433
 3994TP3     H223802   0.877   1.772   9.253 -2.2707  0.9447  0.7872
 3995TP3      O23803   0.038   0.055   0.533 -0.4077 -0.0591  0.5111
 3995TP3     H123804  -0.043   0.054   0.584  0.8817  0.0735  2.7099
 3995TP3     H223805   0.107   0.051   0.599  1.3922  0.3038 -1.2607
 3996TP3      O23806   4.604   2.817  10.097 -0.1492  0.0054 -0.9029
 3996TP3     H123807   4.579   2.785  10.183  0.1953  0.8297 -0.4794
 3996TP3     H223808   4.523   2.854  10.061 -0.0716  0.6009 -0.4881
 3997TP3      O23809   0.973   2.832   2.292  0.5978 -0.4776  0.1058
 3997TP3     H123810   0.992   2.760   2.232 -0.5274 -0.9037  0.2371
 3997TP3     H223811   0.878   2.833   2.299  0.6496  0.3725  0.9089
 3998TP3      O23812   3.229   3.503   1.667  0.3466  0.3770  0.5660
 3998TP3     H123813   3.148   3.496   1.617  0.4626  1.7600  0.1531
 3998TP3     H223814   3.282   3.429   1.638 -0.8043 -0.6331  0.9484
 3999TP3      O23815   5.024   2.996   2.852 -0.3945 -0.1322 -0.2611
 3999TP3     H123816   5.109   2.952   2.846 -0.2118  0.2523 -0.5385
 3999TP3     H223817   5.002   3.017   2.761 -0.1051  1.0675 -0.0640
 4000TP3      O23818   4.276   0.926   0.933  0.1940 -0.7061 -0.0591
 4000TP3     H123819   4.191   0.922   0.891 -0.3705  0.3167  0.9196
 4000TP3     H223820   4.321   0.846   0.907 -0.7199 -0.8212 -1.3161
 4001TP3      O23821   5.185   4.477   9.376 -0.5965 -0.2012  0.7237
 4001TP3     H123822   5.234   4.471   9.294 -2.3446 -0.6466 -0.3496
 4001TP3     H223823   5.187   4.388   9.411 -2.3838 -0.7484 -0.4377
 4002TP3      O23824   2.173   1.587   1.376 -0.3909  0.0308  0.0555
 4002TP3     H123825   2.238   1.538   1.325 -0.9630  0.9437 -1.6376
 4002TP3     H223826   2.198   1.572   1.467  2.4875  0.6859 -0.4974
 4003TP3      O23827   3.055   1.884   1.151  0.5204 -0.6377 -0.7768
 4003TP3     H123828   3.099   1.847   1.228 -2.5297 -0.5253  1.1623
 4003TP3     H223829   3.054   1.978   1.167 -0.8103 -0.6808 -0.5136
 4004TP3      O23830   4.137   0.681   0.594  0.1600 -0.0662  0.1592
 4004TP3     H123831   4.113   0.618   0.526 -0.4579 -0.3542  0.6463
 4004TP3     H223832   4.217   0.723   0.560  0.0092 -0.3978 -0.6185
 4005TP3      O23833   1.838   0.362  10.106 -0.0200 -0.5319 -0.0606
 4005TP3     H123834   1.762   0.376  10.050 -0.8263 -1.1826  0.8376
 4005TP3     H223835   1.813   0.288  10.162 -0.0212  1.2401  2.4542
 4006TP3      O23836   0.126   2.396   3.387  0.2962 -0.1645 -0.2894
 4006TP3     H123837   0.076   2.361   3.314 -1.1199 -0.0879  0.6224
 4006TP3     H223838   0.201   2.337   3.396 -0.6749 -1.4387 -0.4227
 4007TP3      O23839   3.796   2.267   2.407 -0.1933  0.0914 -0.5963
 4007TP3     H123840   3.742   2.189   2.419  0.2216 -0.1120 -0.0232
 4007TP3     H223841   3.876   2.235   2.367 -0.0325  0.2272 -0.3837
 4008TP3      O23842   2.224   0.853   2.556 -0.9032  0.0174  0.3150
 4008TP3     H123843   2.311   0.819   2.575 -0.0058  1.4425 -0.9779
 4008TP3     H223844   2.167   0.776   2.554  0.2087 -0.8876  1.6741
 4009TP3      O23845   0.623   5.194   0.489 -0.0800 -0.3967 -0.5054
 4009TP3     H123846   0.542   5.169   0.532 -0.5895  1.5216 -0.2570
 4009TP3     H223847   0.662   5.260   0.546  2.4212 -2.2655  0.1029
 4010TP3      O23848   4.879   2.708   2.655 -0.1803  0.5308 -0.4169
 4010TP3     H123849   4.872   2.630   2.600 -0.2864  0.6678 -0.5964
 4010TP3     H223850   4.852   2.780   2.599  2.0891  1.0121 -0.9805
 4011TP3      O23851   1.672   3.724   1.241 -0.6447 -0.5578  0.0728
 4011TP3     H123852   1.667   3.699   1.149  1.2088 -1.6342  0.1991
 4011TP3     H223853   1.759   3.695   1.269 -0.0929  2.1047  1.4803
 4012TP3      O23854   0.624   1.793   1.577  0.0060 -0.3207  0.1257
 4012TP3     H123855   0.568   1.815   1.502 -0.6711 -1.1019  0.3914
 4012TP3     H223856   0.591   1.709   1.608 -0.8757  0.7867  2.4053
 4013TP3      O23857   3.318   3.613   8.318  0.2384 -0.3942 -0.2598
 4013TP3     H123858   3.327   3.670   8.394  1.1531  0.1086 -0.7288
 4013TP3     H223859   3.246   3.554   8.341 -1.4159  1.5719 -0.1450
 4014TP3      O23860   4.035   1.387   7.588  0.4057  0.4159 -0.3812
 4014TP3     H123861   4.077   1.312   7.630 -0.0973 -0.8367 -2.0078
 4014TP3     H223862   4.088   1.462   7.614  0.6607 -0.4077  1.6584
 4015TP3      O23863   1.777   2.546   0.188 -0.4038  0.1465 -0.1780
 4015TP3     H123864   1.784   2.623   0.245 -2.0394  1.1212 -1.2086
 4015TP3     H223865   1.767   2.582   0.100  0.4070 -1.3051 -0.9060
 4016TP3      O23866   3.573   3.201   6.544  0.4805 -0.1702 -0.5646
 4016TP3     H123867   3.633   3.264   6.504  0.7818 -0.3277 -0.3612
 4016TP3     H223868   3.490   3.248   6.551  1.0573  0.6957  0.8774
 4017TP3      O23869   1.701   2.865   2.998 -0.4611  0.6108 -0.5407
 4017TP3     H123870   1.618   2.907   3.018 -0.8415  0.9764 -2.6591
 4017TP3     H223871   1.746   2.926   2.940  1.2943  0.3929  0.4931
 4018TP3      O23872   2.613   2.990   1.534  0.2783 -0.3350  0.1306
 4018TP3     H123873   2.657   3.012   1.452 -0.2642 -2.5489 -0.8371
 4018TP3     H223874   2.674   2.933   1.580  0.3003  0.3444  0.9658
 4019TP3      O23875   2.191   1.860   9.154  0.3096  0.5872 -0.1888
 4019TP3     H123876   2.280   1.894   9.162 -0.1453  1.4912  2.0501
 4019TP3     H223877   2.163   1.884   9.066  1.8371  1.4529 -0.4641
 4020TP3      O23878   4.373   3.928   1.448 -0.1270  0.0572 -0.6339
 4020TP3     H123879   4.299   3.970   1.404 -0.8233 -1.5524 -1.0802
 4020TP3     H223880   4.336   3.896   1.531  0.4726  0.6134 -0.1468
 4021TP3      O23881   1.392   2.171   3.056 -0.4498  0.1315  0.2205
 4021TP3     H123882   1.394   2.170   2.961  1.5781 -2.9575  0.1779
 4021TP3     H223883   1.467   2.224   3.082  0.4655 -1.0341  0.0231
 4022TP3      O23884   4.779   4.296   0.083 -0.6592  0.7656  0.2356
 4022TP3     H123885   4.760   4.350   0.006 -0.4811  0.5276  0.0224
 4022TP3     H223886   4.871   4.273   0.074 -1.3996 -2.1076 -1.3171
 4023TP3      O23887   3.335   5.027   1.189 -0.3979  0.3841  0.4467
 4023TP3     H123888   3.267   4.984   1.137  0.0576 -0.7061  0.7164
 4023TP3     H223889   3.305   5.117   1.198  0.5999  1.3775 -3.7539
 4024TP3      O23890   2.587   3.798   1.762  0.5844 -0.2699  0.7772
 4024TP3     H123891   2.597   3.864   1.831  0.3996  0.7462 -0.1310
 4024TP3     H223892   2.555   3.720   1.807  0.6750  0.3018  1.8640
 4025TP3      O23893   1.366   2.584   7.613  0.3518 -0.1058  0.0436
 4025TP3     H123894   1.380   2.607   7.705  0.2602  0.2248 -0.0237
 4025TP3     H223895   1.365   2.668   7.568  1.2690 -0.3128 -0.3886
 4026TP3      O23896   1.676   0.406   1.072  0.4513  0.2632 -0.3447
 4026TP3     H123897   1.600   0.381   1.019 -0.6824  0.3513  1.1756
 4026TP3     H223898   1.723   0.470   1.018 -1.0728  0.9277 -0.9347
 4027TP3      O23899   1.952   5.022   0.267 -0.2296 -0.0242 -0.5672
 4027TP3     H123900   2.001   5.062   0.338 -1.2684  1.2514 -0.5301
 4027TP3     H223901   1.882   4.972   0.311 -0.3503  0.0538 -0.6686
 4028TP3      O23902   0.808   2.760   3.080  0.5060  0.4991 -0.0795
 4028TP3     H123903   0.875   2.828   3.066  0.6900  0.2603 -0.3725
 4028TP3     H223904   0.779   2.774   3.170  0.8286  0.7154 -0.0050
 4029TP3      O23905   4.357   0.303   0.742  0.0110 -0.3855 -0.1916
 4029TP3     H123906   4.324   0.279   0.655 -0.7933 -1.2315  0.3294
 4029TP3     H223907   4.305   0.379   0.767  0.5318  0.1166 -0.6196
 4030TP3      O23908   3.883   1.485   1.908 -0.4481  0.3846  0.1168
 4030TP3     H123909   3.865   1.545   1.835  1.2947  0.7648 -0.0340
 4030TP3     H223910   3.959   1.435   1.881 -1.3022 -1.2759  0.6489
 4031TP3      O23911   4.627   1.374   8.969  0.4019 -0.2936  0.3529
 4031TP3     H123912   4.539   1.403   8.990 -0.3524 -0.8554 -1.7802
 4031TP3     H223913   4.620   1.279   8.958  1.0393 -0.2430 -0.7283
 4032TP3      O23914   1.557   2.738   9.678 -0.2089  0.5615  0.4088
 4032TP3     H123915   1.620   2.690   9.732 -0.4726 -0.8454 -0.4986
 4032TP3     H223916   1.590   2.729   9.589 -0.0072  2.5052  0.2293
 4033TP3      O23917   1.177   0.383   2.652  0.0561 -0.0714  0.3712
 4033TP3     H123918   1.176   0.465   2.702 -2.7777 -0.5956  1.3206
 4033TP3     H223919   1.191   0.411   2.561  0.2446  1.3405  0.8071
 4034TP3      O23920   4.712   3.489   0.956 -0.5005  0.4045 -0.3525
 4034TP3     H123921   4.751   3.444   0.881  0.7443 -1.1542  1.1493
 4034TP3     H223922   4.627   3.519   0.924  0.2847  0.4644 -2.5858
 4035TP3      O23923   0.244   2.843   3.305 -0.4407 -0.5988  0.3554
 4035TP3     H123924   0.192   2.877   3.378  1.3786  1.0279  1.0072
 4035TP3     H223925   0.321   2.900   3.303  0.2393 -1.4948 -1.9651
 4036TP3      O23926   2.355   4.382   7.475 -0.0582 -0.3541 -0.0874
 4036TP3     H123927   2.427   4.406   7.533 -1.5435  0.5744  1.4803
 4036TP3     H223928   2.350   4.286   7.481 -0.5000 -0.2453  1.7832
 4037TP3      O23929   3.703   4.628   2.529 -0.5288  0.4201  0.0969
 4037TP3     H123930   3.694   4.645   2.623  1.5433  0.6392  0.2999
 4037TP3     H223931   3.695   4.714   2.488  0.4420  0.5937  0.2572
 4038TP3      O23932   3.089   0.798   8.171 -0.6106 -0.0707 -0.1691
 4038TP3     H123933   3.166   0.741   8.181 -0.7570 -0.3175 -0.4535
 4038TP3     H223934   3.124   0.886   8.185  0.0927 -0.0046 -2.0604
 4039TP3      O23935   2.828   5.101   2.563 -0.6536  0.1527 -0.4524
 4039TP3     H123936   2.854   5.027   2.618 -0.6335 -0.1674 -0.8892
 4039TP3     H223937   2.857   5.178   2.612  0.8756 -0.1799 -0.7873
 4040TP3      O23938   1.692   1.349   8.911 -0.6253  0.3125 -0.2430
 4040TP3     H123939   1.648   1.297   8.844  0.3730 -0.8369 -0.0428
 4040TP3     H223940   1.714   1.286   8.980 -0.1197  1.1528  0.3860
 4041TP3      O23941   1.120   4.255   6.775 -0.5507  0.5409  0.2382
 4041TP3     H123942   1.196   4.282   6.827  0.4930  1.6420 -1.7011
 4041TP3     H223943   1.066   4.334   6.770  0.0153  0.8769 -1.3339
 4042TP3      O23944   2.665   4.641   8.862  0.1775  0.3262  1.3840
 4042TP3     H123945   2.632   4.717   8.815 -2.6127 -1.9356 -0.7161
 4042TP3     H223946   2.748   4.620   8.819 -0.7631  0.2072 -0.4739
 4043TP3      O23947   2.764   2.915   0.331 -0.1579  0.3110  0.0501
 4043TP3     H123948   2.777   2.976   0.258  1.3963  2.1676  1.7742
 4043TP3     H223949   2.780   2.829   0.293 -0.8845  1.0636 -2.1140
 4044TP3      O23950   1.597   3.045   7.356  0.1242 -0.5830  0.0323
 4044TP3     H123951   1.636   3.115   7.303  1.1186 -1.1972 -0.0727
 4044TP3     H223952   1.606   2.967   7.303 -1.0883 -0.7831  0.1031
 4045TP3      O23953   4.024   3.969   9.009 -0.2391 -0.4195 -0.3118
 4045TP3     H123954   4.038   4.040   8.946  2.8078  0.1202  0.8138
 4045TP3     H223955   4.080   3.898   8.978 -1.3438 -1.4300 -0.0464
 4046TP3      O23956   4.911   1.722   8.247  0.4109 -0.6083 -0.2585
 4046TP3     H123957   4.926   1.675   8.329  2.2210 -0.2255 -0.3413
 4046TP3     H223958   4.994   1.763   8.227 -0.5221  0.8435 -1.3441
 4047TP3      O23959   3.085   3.170   8.649 -0.2719 -0.3237  0.1569
 4047TP3     H123960   3.025   3.109   8.692  0.9043 -0.8245  1.1168
 4047TP3     H223961   3.169   3.156   8.692  0.6966 -0.0520 -1.5745
 4048TP3      O23962   0.359   1.941   2.644  0.3479  0.6902  0.1133
 4048TP3     H123963   0.424   2.011   2.646  1.2498 -0.1139  0.2719
 4048TP3     H223964   0.354   1.909   2.734  0.6740 -0.0609 -0.1176
 4049TP3      O23965   3.537   0.491   9.083 -1.1067  0.1418  0.5781
 4049TP3     H123966   3.548   0.397   9.075 -1.2570  0.2300 -0.7809
 4049TP3     H223967   3.524   0.522   8.994 -2.6054  1.2636  1.1315
 4050TP3      O23968   4.455   1.487   8.762 -0.0637 -0.2941 -1.0603
 4050TP3     H123969   4.432   1.580   8.757  1.1844  0.0842 -0.2653
 4050TP3     H223970   4.551   1.487   8.763 -0.0532 -1.4839  0.6800
 4051TP3      O23971   0.695   1.361   9.274  0.3108  0.5989  0.2273
 4051TP3     H123972   0.768   1.310   9.308  0.3491  1.3705  1.3343
 4051TP3     H223973   0.621   1.339   9.331 -0.4087 -0.3324 -1.0032
 4052TP3      O23974   1.979   2.027   2.259 -0.2417 -0.6192 -0.5564
 4052TP3     H123975   1.926   1.952   2.283 -0.0511 -0.1071  1.7100
 4052TP3     H223976   2.061   1.990   2.228  0.5679 -1.4392  2.2540
 4053TP3      O23977   2.582   1.637   1.365 -0.0231  0.6578  0.2300
 4053TP3     H123978   2.654   1.590   1.408  0.0192  0.0459 -0.5030
 4053TP3     H223979   2.624   1.685   1.294 -0.4040 -0.0642 -0.4872
 4054TP3      O23980   3.079   2.145   1.234  0.1067 -0.1516  0.0851
 4054TP3     H123981   3.070   2.224   1.181  0.1780  0.6365  1.2151
 4054TP3     H223982   3.134   2.172   1.307 -0.1344 -1.1688  0.6511
 4055TP3      O23983   2.034   2.380   7.329 -0.5129 -0.8260 -0.6024
 4055TP3     H123984   2.038   2.349   7.419 -1.4806 -2.0527 -0.9591
 4055TP3     H223985   1.942   2.372   7.305 -0.2210 -0.7783 -1.7941
 4056TP3      O23986   3.576   4.908   3.666  0.3648 -1.0376 -0.1633
 4056TP3     H123987   3.609   4.963   3.595  0.5900 -2.0123 -0.8435
 4056TP3     H223988   3.640   4.918   3.736  0.7325 -0.9156 -0.5110
 4057TP3      O23989   1.331   2.148   1.657  0.1466 -0.5320  0.1607
 4057TP3     H123990   1.341   2.235   1.618  1.1630 -1.0743 -0.8428
 4057TP3     H223991   1.302   2.093   1.585  1.7519 -1.4945  0.1981
 4058TP3      O23992   3.791   1.637   1.347 -0.1793 -0.2462  0.1934
 4058TP3     H123993   3.833   1.655   1.263 -0.6057  0.3863  0.1125
 4058TP3     H223994   3.717   1.580   1.324 -1.9849  2.1455 -0.2650
 4059TP3      O23995   4.711   5.221   9.182 -0.3316 -0.4301  0.6220
 4059TP3     H123996   4.700   5.255   9.094  0.0709  0.2445  0.8218
 4059TP3     H223997   4.710   5.299   9.238 -1.2606 -0.8966  1.2865
 4060TP3      O23998   1.378   2.489   8.388  0.3698  0.3117 -0.2532
 4060TP3     H123999   1.427   2.424   8.338  0.9791  0.3121  0.3261
 4060TP3     H224000   1.396   2.572   8.344 -0.7419  0.0490 -1.2407
 4061TP3      O24001   4.327   4.666   0.663 -0.6199 -0.5243  0.2939
 4061TP3     H124002   4.250   4.637   0.712 -1.1350  0.3450  0.0284
 4061TP3     H224003   4.338   4.758   0.688  0.9091 -0.8841  1.0482
 4062TP3      O24004   1.616   3.890   7.639  0.2149 -0.2071 -0.4968
 4062TP3     H124005   1.672   3.877   7.716  0.8604 -1.4270 -1.1432
 4062TP3     H224006   1.536   3.843   7.660  0.1590 -0.0402 -0.3319
 4063TP3      O24007   0.763   2.496   1.676 -0.0913 -0.5976 -0.0481
 4063TP3     H124008   0.717   2.579   1.665 -0.4808 -0.8274 -0.2076
 4063TP3     H224009   0.739   2.445   1.598  2.2189  0.0839 -1.3058
 4064TP3      O24010   4.333   4.727   1.884  0.0893  0.3088  0.0086
 4064TP3     H124011   4.411   4.764   1.925  0.2728 -0.5001  0.4195
 4064TP3     H224012   4.331   4.637   1.916 -2.6018  1.0737  2.3440
 4065TP3      O24013   1.483   0.356   0.214 -0.3038 -0.2565 -0.0693
 4065TP3     H124014   1.559   0.304   0.191  2.6180  3.1240  1.1235
 4065TP3     H224015   1.446   0.383   0.130  1.1003 -0.2117 -0.6827
 4066TP3      O24016   5.090   4.481   9.042 -0.2699  1.1069  0.2624
 4066TP3     H124017   5.090   4.555   8.981  1.0392 -0.3314 -1.6038
 4066TP3     H224018   5.177   4.483   9.082  0.3265 -0.2137 -0.8929
 4067TP3      O24019   2.665   5.256   2.391  0.4608 -0.3165  0.0276
 4067TP3     H124020   2.643   5.192   2.323  0.7678 -0.9113  0.4896
 4067TP3     H224021   2.712   5.206   2.458 -0.2882  0.1583  0.9306
 4068TP3      O24022   2.572   4.953   1.482 -0.2169  0.1647 -0.2885
 4068TP3     H124023   2.603   4.953   1.572  0.3801 -3.3881 -0.3575
 4068TP3     H224024   2.478   4.972   1.488 -0.1411  0.1501  1.0688
 4069TP3      O24025   2.540   4.449   7.678  0.3849 -0.0364 -0.2405
 4069TP3     H124026   2.512   4.460   7.769  0.7383 -0.6410 -0.0547
 4069TP3     H224027   2.538   4.355   7.663  1.8467 -0.0734 -0.3607
 4070TP3      O24028   2.002   1.137   3.250 -0.1415  0.0284 -0.2519
 4070TP3     H124029   2.040   1.058   3.210 -0.8239 -0.8725  0.8303
 4070TP3     H224030   1.917   1.147   3.208  0.1175  0.4494 -0.6904
 4071TP3      O24031   1.854   3.749   6.797  0.0909  0.1167 -0.1478
 4071TP3     H124032   1.864   3.693   6.720  0.4006  0.4704 -0.3667
 4071TP3     H224033   1.795   3.818   6.767  0.2576  0.2856 -0.0856
 4072TP3      O24034   2.208   1.955   1.044  0.3895  0.4691 -0.4203
 4072TP3     H124035   2.183   1.906   0.965  1.0091  0.9548 -0.9330
 4072TP3     H224036   2.176   1.902   1.116 -0.9716  0.4458 -1.0187
 4073TP3      O24037   3.785   1.921   1.145 -0.0560 -0.2902 -0.5786
 4073TP3     H124038   3.842   1.845   1.155 -0.9132 -0.9094 -0.3415
 4073TP3     H224039   3.780   1.960   1.232 -0.3863 -0.5312 -0.4852
 4074TP3      O24040   0.689   5.066   9.734 -0.5654  0.0614  0.3187
 4074TP3     H124041   0.640   5.036   9.657 -1.3704  0.1183  0.7944
 4074TP3     H224042   0.693   4.989   9.791  1.5051 -0.4848 -0.4697
 4075TP3      O24043   0.010   0.886   0.731 -0.1508 -0.3879 -0.1054
 4075TP3     H124044  -0.021   0.874   0.642  1.0565 -1.2419 -0.4442
 4075TP3     H224045  -0.007   0.978   0.751 -1.4286 -0.4596 -0.8115
 4076TP3      O24046   4.996   4.487   1.821 -0.3657  0.1530  0.7922
 4076TP3     H124047   5.036   4.518   1.740 -0.2441 -1.2661  0.2839
 4076TP3     H224048   4.906   4.522   1.818 -0.7661 -0.9223 -0.5794
 4077TP3      O24049   0.079   1.614   2.249 -0.4600 -0.1327  0.0826
 4077TP3     H124050   0.122   1.670   2.313  0.9951 -0.9333 -0.1611
 4077TP3     H224051   0.087   1.660   2.166  0.6265 -0.6082 -0.0951
 4078TP3      O24052   0.169   3.345   2.262  0.1332  0.0489  0.0323
 4078TP3     H124053   0.221   3.275   2.221  0.5588  0.3333  0.0755
 4078TP3     H224054   0.203   3.426   2.222  2.0322  0.5567  2.4178
 4079TP3      O24055   0.417   2.990   0.010  0.4262 -0.3219 -0.6782
 4079TP3     H124056   0.328   3.024   0.009  0.1290 -1.0928 -0.7953
 4079TP3     H224057   0.408   2.897   0.031  1.2497 -0.2812 -0.0778
 4080TP3      O24058   4.891   4.018   8.599  0.0832  0.2905 -0.1234
 4080TP3     H124059   4.866   3.937   8.553  1.4224  0.2798 -0.9225
 4080TP3     H224060   4.954   3.989   8.665 -0.0659  0.5834  0.1470
 4081TP3      O24061   0.686   2.528   3.312 -0.2311  0.1939  0.0156
 4081TP3     H124062   0.671   2.496   3.224  0.4693  2.3292 -0.9489
 4081TP3     H224063   0.674   2.623   3.306  0.4204  0.4682  2.0790
 4082TP3      O24064   4.030   0.874   1.552  0.2275 -0.0172 -0.2714
 4082TP3     H124065   3.966   0.918   1.608 -0.4215 -0.3573 -0.7383
 4082TP3     H224066   3.988   0.792   1.528  1.5804 -1.1100  0.9143
 4083TP3      O24067   2.677   4.803   0.854  0.1668 -0.3850 -0.3161
 4083TP3     H124068   2.688   4.739   0.925  0.1673  1.0874  1.0717
 4083TP3     H224069   2.659   4.885   0.899 -0.0640  0.5619 -2.0599
 4084TP3      O24070   4.316   4.935   9.000 -0.2749 -0.5877 -0.7060
 4084TP3     H124071   4.230   4.894   8.994 -0.0824 -1.0125 -0.6130
 4084TP3     H224072   4.325   4.984   8.919 -0.1214 -1.4970 -1.2489
 4085TP3      O24073   4.028   1.567   2.436  0.1218  0.3565  0.3929
 4085TP3     H124074   4.043   1.602   2.348  2.3272  0.5651  0.7993
 4085TP3     H224075   3.951   1.510   2.426  0.6794 -0.1059 -1.7984
 4086TP3      O24076   0.094   2.664   9.469 -0.1095 -0.3140  0.8596
 4086TP3     H124077   0.076   2.594   9.532 -1.4532  0.6296  1.5861
 4086TP3     H224078   0.187   2.684   9.482  1.0585 -3.6433 -1.1889
 4087TP3      O24079   2.041   5.024   0.961  0.3857 -0.5727 -0.4082
 4087TP3     H124080   2.036   5.085   0.887 -0.9279  0.7833  0.7287
 4087TP3     H224081   1.955   5.032   1.004  0.7163 -2.1552  0.6221
 4088TP3      O24082   3.467   0.473   8.176  0.5630 -0.1415 -0.3170
 4088TP3     H124083   3.513   0.557   8.177  1.0734 -0.1750 -4.4183
 4088TP3     H224084   3.531   0.411   8.209  0.9522  0.7403  0.6584
 4089TP3      O24085   2.371   3.830   8.957 -0.2642  0.6253 -0.3244
 4089TP3     H124086   2.366   3.736   8.977 -0.3857  0.3306 -1.6475
 4089TP3     H224087   2.337   3.837   8.868 -1.2941  2.0846  0.1440
 4090TP3      O24088   0.639   0.455   8.462 -0.5750 -0.5792 -0.0155
 4090TP3     H124089   0.678   0.394   8.399 -1.3019 -0.7973 -0.2686
 4090TP3     H224090   0.545   0.453   8.442 -0.7436 -0.2126  0.7012
 4091TP3      O24091   3.401   3.790   1.163 -0.8821  0.9821  0.0098
 4091TP3     H124092   3.465   3.861   1.173  0.6897 -0.4517  0.7749
 4091TP3     H224093   3.420   3.753   1.077 -1.0138  0.8429  0.0423
 4092TP3      O24094   1.048   3.034   6.672  0.0901  0.0838  0.2565
 4092TP3     H124095   1.065   3.105   6.610 -1.0787 -0.7816 -1.1247
 4092TP3     H224096   0.958   3.048   6.700 -0.4125 -1.2555 -0.6159
 4093TP3      O24097   3.852   5.090   0.251 -0.1159 -0.6678 -0.3333
 4093TP3     H124098   3.819   5.143   0.179 -0.0795  0.3595  0.3802
 4093TP3     H224099   3.945   5.113   0.257 -0.2834 -0.1722  0.5134
 4094TP3      O24100   0.181   3.120  10.099 -0.1826  0.0918 -0.2029
 4094TP3     H124101   0.117   3.151  10.162  0.3636  1.5420 -0.3162
 4094TP3     H224102   0.129   3.076  10.031 -1.0968  1.4531 -0.4202
 4095TP3      O24103   2.065   0.982   1.757 -0.1291  0.0738 -0.2894
 4095TP3     H124104   2.082   1.072   1.786  0.7855 -0.3111  0.3706
 4095TP3     H224105   2.151   0.943   1.746 -0.5010 -0.5192 -1.2869
 4096TP3      O24106   5.222   0.880   1.341 -0.1697  0.1639  0.4738
 4096TP3     H124107   5.207   0.788   1.364  0.7679 -0.2281 -0.3685
 4096TP3     H224108   5.315   0.894   1.360 -0.1135  0.6915 -0.1611
 4097TP3      O24109   3.626   4.039  10.025 -0.3119  0.0080 -0.2732
 4097TP3     H124110   3.697   4.103  10.032  0.5752 -0.9722  0.0428
 4097TP3     H224111   3.666   3.964   9.979 -0.3090 -1.6529  2.2496
 4098TP3      O24112   4.033   4.743   1.783  0.6148  0.1737 -0.0703
 4098TP3     H124113   3.940   4.738   1.762  0.9172 -0.5090 -1.3336
 4098TP3     H224114   4.041   4.706   1.870 -0.0867 -1.3371 -0.6267
 4099TP3      O24115   4.174   1.612   7.650 -0.4525 -0.3412 -0.2923
 4099TP3     H124116   4.252   1.570   7.615 -0.6005 -0.4257 -0.5176
 4099TP3     H224117   4.204   1.699   7.677 -0.3043 -0.3319 -0.4851
 4100TP3      O24118   2.229   4.912   1.332  0.5310 -0.3387 -0.5342
 4100TP3     H124119   2.223   4.884   1.424  0.6863 -1.5758 -0.8835
 4100TP3     H224120   2.254   4.833   1.285  0.9703  0.4064 -1.5839
 4101TP3      O24121   0.693   0.379   8.006  0.3739 -0.4917 -0.3569
 4101TP3     H124122   0.646   0.457   8.036 -0.8132 -1.2264 -0.2285
 4101TP3     H224123   0.779   0.411   7.979 -0.0167  0.8197 -0.0959
 4102TP3      O24124   4.322   1.629  10.048  0.1021  0.4116 -0.5874
 4102TP3     H124125   4.405   1.603  10.009  0.3277  1.1137 -0.5968
 4102TP3     H224126   4.275   1.673   9.977 -0.1536  0.2797 -0.5005
 4103TP3      O24127   2.939   4.634   1.425 -0.3714 -0.5538 -0.0649
 4103TP3     H124128   2.955   4.540   1.431  2.9941  0.0053  1.3959
 4103TP3     H224129   2.910   4.660   1.512  1.6659  0.1719  0.4411
 4104TP3      O24130   2.439   0.202   1.512  0.1640  0.0310  0.3667
 4104TP3     H124131   2.371   0.143   1.481 -0.0052  0.6171 -0.4170
 4104TP3     H224132   2.393   0.282   1.537  0.4756  0.1571  0.5514
 4105TP3      O24133   2.607   0.800   3.548 -0.4046  0.0867 -0.0525
 4105TP3     H124134   2.689   0.831   3.585  0.1355 -0.1452 -1.0349
 4105TP3     H224135   2.584   0.865   3.482 -1.5823  0.7207  0.9441
 4106TP3      O24136   3.450   4.700   7.826  0.5389 -0.3654  0.0865
 4106TP3     H124137   3.389   4.759   7.871  2.6669  2.6466 -0.6291
 4106TP3     H224138   3.494   4.653   7.897  0.3709  0.6383  0.8822
 4107TP3      O24139   2.679   4.166   0.722 -0.1339  0.0831  0.2477
 4107TP3     H124140   2.607   4.123   0.768  0.3155 -0.7564  0.1744
 4107TP3     H224141   2.675   4.257   0.752 -0.6144 -0.1784  1.0015
 4108TP3      O24142   1.166   4.977   1.938  0.1149 -0.2272  0.2077
 4108TP3     H124143   1.217   4.907   1.978  0.0334  0.0944  0.8883
 4108TP3     H224144   1.198   4.982   1.848  1.2849 -0.0259  0.6212
 4109TP3      O24145   4.568   4.614  10.087  0.2801 -1.0534 -0.3807
 4109TP3     H124146   4.591   4.594   9.996 -2.1525 -0.4097 -1.2119
 4109TP3     H224147   4.481   4.575  10.099  0.0258 -0.0665  1.2615
 4110TP3      O24148   3.206   1.736   9.311 -0.3270  0.5416 -0.1374
 4110TP3     H124149   3.297   1.726   9.283  0.2450  0.3969  1.6850
 4110TP3     H224150   3.164   1.654   9.284  1.1182 -1.2550  2.6591
 4111TP3      O24151   2.187   2.392   1.229 -1.0113  0.0626 -0.5448
 4111TP3     H124152   2.235   2.433   1.300 -1.5315  2.0085 -1.2520
 4111TP3     H224153   2.110   2.354   1.271 -0.8820  0.4477  0.0487
 4112TP3      O24154   0.194   4.155   3.381 -1.1770 -0.8339 -0.0724
 4112TP3     H124155   0.154   4.110   3.307 -1.5468 -1.3218  0.4161
 4112TP3     H224156   0.259   4.093   3.414 -1.4586 -0.8803  0.4012
 4113TP3      O24157   4.038   2.414   8.723  0.3366  0.4476 -0.0481
 4113TP3     H124158   3.974   2.372   8.665  1.6750 -0.8960 -0.6120
 4113TP3     H224159   4.063   2.494   8.678 -1.2737  1.2616  0.4153
 4114TP3      O24160   4.654   2.961   0.597  0.3904  1.3514  0.1957
 4114TP3     H124161   4.566   2.972   0.634  0.5806  0.3379  0.9926
 4114TP3     H224162   4.648   2.999   0.509 -1.0669  0.5836 -0.0700
 4115TP3      O24163   2.077   0.651   7.576  0.0364  0.1980 -0.3596
 4115TP3     H124164   2.087   0.572   7.629 -0.7364  1.3705  1.6110
 4115TP3     H224165   2.069   0.618   7.486  0.5604 -1.8971  0.3095
 4116TP3      O24166   2.475   3.886   7.455 -0.3737  0.1225 -0.1836
 4116TP3     H124167   2.473   3.809   7.511  0.0761 -0.9996 -1.6226
 4116TP3     H224168   2.569   3.901   7.438 -0.4957  0.4477 -0.6110
 4117TP3      O24169   1.813   1.819   9.112  0.2256 -0.2361 -0.2656
 4117TP3     H124170   1.812   1.781   9.199 -1.9083  0.4957  0.0731
 4117TP3     H224171   1.796   1.745   9.053  0.8825 -0.5900 -0.0238
 4118TP3      O24172   1.336   1.179   2.382 -0.2707  0.2014 -0.5186
 4118TP3     H124173   1.431   1.178   2.393 -0.5093 -1.0266  2.9098
 4118TP3     H224174   1.304   1.224   2.460 -2.5179  0.0905 -1.3170
 4119TP3      O24175   4.509   1.758   3.507 -0.0725 -0.1537  0.1552
 4119TP3     H124176   4.584   1.810   3.476 -1.4775  0.7149 -2.0607
 4119TP3     H224177   4.461   1.818   3.564  0.1727 -0.2318  0.4455
 4120TP3      O24178   1.846   3.324   2.203 -0.1536 -0.2968  0.8364
 4120TP3     H124179   1.930   3.304   2.162 -0.1011  1.0096  0.2805
 4120TP3     H224180   1.795   3.243   2.194  1.1956 -1.2704  1.6212
 4121TP3      O24181   2.248   2.533   8.773 -0.1802  0.0306  0.3910
 4121TP3     H124182   2.189   2.524   8.698 -1.8539 -0.2614  1.6864
 4121TP3     H224183   2.254   2.628   8.787 -2.1970  0.0231  1.6057
 4122TP3      O24184   0.822   3.131   2.607 -0.6808  0.0679 -0.1893
 4122TP3     H124185   0.795   3.049   2.567  0.5940 -0.9867  1.0188
 4122TP3     H224186   0.858   3.106   2.692 -0.3734  1.8912  0.2697
 4123TP3      O24187   1.974   4.267   8.661 -0.3904 -0.0100 -0.6435
 4123TP3     H124188   1.934   4.354   8.670 -0.3797  0.0373 -1.0417
 4123TP3     H224189   2.009   4.266   8.572  1.1565  0.2229 -0.0655
 4124TP3      O24190   2.413   3.006   0.348  0.2542 -0.0261  0.0636
 4124TP3     H124191   2.374   3.078   0.300 -3.6120 -2.7561 -1.3546
 4124TP3     H224192   2.476   2.967   0.287 -1.8414 -1.1545 -1.5165
 4125TP3      O24193   0.798   2.326   0.565  0.2404  0.1943 -0.1830
 4125TP3     H124194   0.704   2.308   0.567  0.2032 -0.2626 -2.9877
 4125TP3     H224195   0.835   2.258   0.508  2.1529  0.9360  0.0911
 4126TP3      O24196   4.579   4.465   0.810 -0.4847 -0.4489  0.0925
 4126TP3     H124197   4.592   4.408   0.886 -0.0675  0.8667  1.0575
 4126TP3     H224198   4.649   4.440   0.750  0.6188  0.0237  1.1368
 4127TP3      O24199   1.183   3.627   9.147  0.2346 -0.1084  0.3677
 4127TP3     H124200   1.169   3.708   9.099 -0.1419  0.0532  0.7438
 4127TP3     H224201   1.272   3.601   9.124 -0.1247 -0.3386 -0.8611
 4128TP3      O24202   4.094   3.708   1.906  0.0599  0.0763  0.4518
 4128TP3     H124203   4.000   3.692   1.906 -0.3806  2.3147 -0.6169
 4128TP3     H224204   4.109   3.769   1.977  0.8979 -0.9961  1.2383
 4129TP3      O24205   0.384   2.899   0.329 -0.4544  0.1201 -0.2749
 4129TP3     H124206   0.353   2.834   0.392  0.0463  1.2782  1.2034
 4129TP3     H224207   0.436   2.848   0.267 -0.3573 -0.9467  0.6453
 4130TP3      O24208   0.878   3.281   2.079  0.1711  0.3322 -0.3290
 4130TP3     H124209   0.929   3.340   2.133  0.2539 -0.2773  0.2712
 4130TP3     H224210   0.799   3.263   2.130 -0.4141  0.8578 -1.0230
 4131TP3      O24211   0.482   3.030   1.975  0.4614 -0.4759 -0.3068
 4131TP3     H124212   0.493   2.977   1.896  0.3553 -0.8866 -0.0507
 4131TP3     H224213   0.551   2.999   2.034  0.9211  0.2421 -0.4555
 4132TP3      O24214   3.040   4.755   7.915  0.2274 -0.9229  0.7720
 4132TP3     H124215   2.959   4.725   7.873  0.4066 -1.1486  0.5880
 4132TP3     H224216   3.027   4.849   7.926 -0.0189 -0.9405  0.6487
 4133TP3      O24217   4.526   0.269   0.951  0.0016 -0.3911 -0.7634
 4133TP3     H124218   4.460   0.256   0.883 -2.1403  0.7923  0.9584
 4133TP3     H224219   4.476   0.291   1.029  2.3460 -1.6268  1.2418
 4134TP3      O24220   4.405   3.316   7.704  0.1413 -0.5513 -0.6988
 4134TP3     H124221   4.366   3.357   7.627 -2.2684 -3.7306 -1.4005
 4134TP3     H224222   4.332   3.302   7.764  1.7567  0.7327  1.7504
 4135TP3      O24223   3.854   0.899   3.048 -0.2326 -0.4260 -0.0764
 4135TP3     H124224   3.930   0.844   3.033 -1.0181 -1.3415 -0.7985
 4135TP3     H224225   3.867   0.975   2.992  0.0614 -0.6651 -0.3303
 4136TP3      O24226   4.136   2.270   9.120 -0.1027 -0.1509 -0.3697
 4136TP3     H124227   4.211   2.281   9.062  0.3744  1.6425  0.4973
 4136TP3     H224228   4.069   2.328   9.083 -0.8916 -1.3071 -0.8157
 4137TP3      O24229   0.875   4.656   1.410  0.4579  0.5783  0.5644
 4137TP3     H124230   0.923   4.665   1.327  1.8796  2.0538  1.4958
 4137TP3     H224231   0.920   4.585   1.456 -0.1945 -0.0913  0.1972
 4138TP3      O24232   2.898   0.167   2.013  0.1566  0.9051  0.4536
 4138TP3     H124233   2.985   0.205   2.029  0.6155  1.0952 -2.0650
 4138TP3     H224234   2.837   0.229   2.052  1.0214  2.7763 -1.0289
 4139TP3      O24235   2.906   1.127   2.088  0.1082  0.2442  0.3178
 4139TP3     H124236   2.996   1.131   2.121  0.2761 -1.5375  0.1569
 4139TP3     H224237   2.910   1.167   2.002  0.9276 -0.5025 -0.0099
 4140TP3      O24238   1.879   4.829   1.757 -0.1458  0.0378 -0.1416
 4140TP3     H124239   1.795   4.871   1.741 -1.2000 -1.3119  1.5491
 4140TP3     H224240   1.895   4.840   1.850 -0.4046 -3.0472  0.3911
 4141TP3      O24241   4.752   4.658   9.550  0.6782  0.0948  0.2622
 4141TP3     H124242   4.781   4.611   9.472 -0.6619 -1.6445  0.7477
 4141TP3     H224243   4.691   4.724   9.517  2.3341  1.3757 -0.3922
 4142TP3      O24244   4.090   4.378   0.213 -0.3881  0.1802  0.1456
 4142TP3     H124245   4.042   4.314   0.265  0.1436  1.1047  1.8295
 4142TP3     H224246   4.022   4.434   0.175 -0.7417  0.4922  1.1969
 4143TP3      O24247   2.808   1.835   8.469  0.2106 -0.8134  0.2571
 4143TP3     H124248   2.825   1.832   8.375  0.4677 -3.2487  0.3107
 4143TP3     H224249   2.734   1.776   8.482 -1.0595  0.9424  1.4002
 4144TP3      O24250   3.736   1.241   2.636 -0.1064  0.2251 -0.1745
 4144TP3     H124251   3.641   1.253   2.631 -0.1575  0.6781  1.3109
 4144TP3     H224252   3.769   1.327   2.661  0.4423 -0.4659  1.6453
 4145TP3      O24253   2.773   0.386   1.871 -0.2432 -0.4687 -0.3989
 4145TP3     H124254   2.714   0.413   1.801 -0.9964 -1.0823 -0.0149
 4145TP3     H224255   2.858   0.377   1.828 -0.1097  1.7205 -0.6958
 4146TP3      O24256   0.497   4.571   0.176 -0.3267 -0.1007 -0.7819
 4146TP3     H124257   0.410   4.543   0.206 -0.8825 -0.8922 -2.9267
 4146TP3     H224258   0.524   4.638   0.239 -1.9768 -0.6767  0.5997
 4147TP3      O24259   0.630   0.706   9.931 -1.2405 -0.0841 -0.5027
 4147TP3     H124260   0.625   0.697  10.026 -1.0303 -2.1451 -0.6329
 4147TP3     H224261   0.599   0.795   9.913 -1.7457  0.1756  1.4429
 4148TP3      O24262   4.301   3.366   7.458  0.0776  0.5445 -0.2337
 4148TP3     H124263   4.324   3.341   7.368 -0.6472 -0.4041 -0.1618
 4148TP3     H224264   4.226   3.425   7.448  0.0916  0.5582 -0.2584
 4149TP3      O24265   3.975   3.273   2.053 -1.2550  0.4737  0.4445
 4149TP3     H124266   4.069   3.291   2.051 -1.0430 -0.5946 -0.0375
 4149TP3     H224267   3.953   3.250   1.963 -1.9891  0.7358  0.5517
 4150TP3      O24268   0.405   3.501   7.757 -0.9309 -0.6790 -0.0444
 4150TP3     H124269   0.471   3.459   7.812  0.4947  1.7622  0.2451
 4150TP3     H224270   0.433   3.483   7.667 -0.6319 -0.7386  0.0618
 4151TP3      O24271   3.897   3.532   2.222  0.4629  0.0572  0.0956
 4151TP3     H124272   3.911   3.576   2.138 -0.5819 -0.1517 -0.2083
 4151TP3     H224273   3.819   3.478   2.208 -0.4522  0.9390  1.5583
 4152TP3      O24274   1.803   1.027   2.563  0.1924 -0.2948 -0.5221
 4152TP3     H124275   1.842   1.079   2.492 -0.3513  0.1506 -0.4975
 4152TP3     H224276   1.729   1.080   2.593  0.6981 -0.2572  0.6952
 4153TP3      O24277   4.847   2.252   1.771  0.1193 -0.7297  0.0489
 4153TP3     H124278   4.805   2.331   1.736 -2.1464 -1.8108  0.1432
 4153TP3     H224279   4.864   2.198   1.694  0.9229 -0.5187  0.0662
 4154TP3      O24280   5.284   1.145   2.117 -0.2488 -0.2589  0.1545
 4154TP3     H124281   5.244   1.065   2.149 -1.3251 -0.3215 -1.2684
 4154TP3     H224282   5.288   1.202   2.194 -5.2492  0.6459  0.0740
 4155TP3      O24283   2.633   4.508   0.051  0.0008  0.7534 -0.1024
 4155TP3     H124284   2.633   4.413   0.060  0.7945  0.8064  0.5419
 4155TP3     H224285   2.558   4.527  -0.006 -0.0552 -0.2648 -0.3792
 4156TP3      O24286   1.053   1.979   0.673  0.4100 -0.1761 -0.9343
 4156TP3     H124287   1.048   1.944   0.762 -1.3823  0.9478 -0.5369
 4156TP3     H224288   1.123   2.044   0.677  1.5075 -1.3326 -0.8256
 4157TP3      O24289   0.441   4.033   8.037  0.4376  0.4587 -0.3236
 4157TP3     H124290   0.459   4.041   8.131 -0.8319  1.0687 -0.0994
 4157TP3     H224291   0.365   3.975   8.033  0.7198  0.1350 -1.0089
 4158TP3      O24292   3.477   1.881   2.830  0.3907  0.6553 -0.0023
 4158TP3     H124293   3.509   1.896   2.918  1.9252  0.9222 -0.5805
 4158TP3     H224294   3.538   1.928   2.773  0.5018 -0.9526 -1.3171
 4159TP3      O24295   2.341   5.103   8.421  0.4761 -0.2205  0.4700
 4159TP3     H124296   2.425   5.147   8.411  1.5931 -1.7279  2.4475
 4159TP3     H224297   2.347   5.060   8.506 -2.2398 -0.5534  0.5707
 4160TP3      O24298   0.283   2.761   6.439 -0.7982  0.6048  0.3521
 4160TP3     H124299   0.218   2.775   6.370 -1.8802 -1.6960  0.7755
 4160TP3     H224300   0.250   2.810   6.514 -1.3823  0.4777  0.1813
 4161TP3      O24301   1.943   1.945   0.582  0.1763  0.3263 -0.4053
 4161TP3     H124302   1.997   2.012   0.542 -1.2048  1.3802 -0.5666
 4161TP3     H224303   1.881   1.920   0.514 -0.4638  0.1843  0.2158
 4162TP3      O24304   3.593   0.847   0.530  0.3509  0.5177 -0.2067
 4162TP3     H124305   3.606   0.921   0.589  0.0996 -0.0371  0.5507
 4162TP3     H224306   3.566   0.887   0.447  1.5627  1.3566 -0.2196
 4163TP3      O24307   4.433   3.133   1.687  0.2308 -0.4241  0.3325
 4163TP3     H124308   4.380   3.156   1.611 -0.5929  1.3445  1.3576
 4163TP3     H224309   4.521   3.162   1.665  0.0305 -0.0731 -0.0176
 4164TP3      O24310   4.938   5.202   9.894  0.8089 -0.3649  0.1210
 4164TP3     H124311   5.022   5.181   9.934  2.2659  0.6980 -2.1095
 4164TP3     H224312   4.960   5.220   9.802 -1.6245  1.4221 -0.2179
 4165TP3      O24313   1.634   2.002   9.790  0.6645 -0.4541  0.3504
 4165TP3     H124314   1.680   2.025   9.710 -0.7521  1.6534  0.0538
 4165TP3     H224315   1.702   1.968   9.848  1.7200 -2.0690 -1.6994
 4166TP3      O24316   1.034   1.831   9.763  0.5868 -0.0223 -0.1091
 4166TP3     H124317   1.029   1.918   9.803  0.5545 -0.2312  0.3425
 4166TP3     H224318   1.123   1.801   9.783 -0.2811 -1.2548  2.1814
 4167TP3      O24319   1.189   1.576   9.677  0.1847 -0.0771 -0.6616
 4167TP3     H124320   1.157   1.569   9.587  1.6083  0.1367 -1.2103
 4167TP3     H224321   1.142   1.509   9.725 -1.7194  0.7973 -1.2220
 4168TP3      O24322   2.433   4.710   0.732  0.3085 -0.6484 -0.4113
 4168TP3     H124323   2.357   4.687   0.785  1.2982 -1.1947  0.8173
 4168TP3     H224324   2.481   4.774   0.785  0.8983 -0.5877 -1.0044
 4169TP3      O24325   2.828   3.788   2.458  0.5024  0.3105  0.1044
 4169TP3     H124326   2.873   3.708   2.429 -2.2056 -1.2215 -0.2678
 4169TP3     H224327   2.786   3.763   2.540 -0.0413  1.5087  0.2122
 4170TP3      O24328   1.655   2.975   0.999 -0.1395 -0.6037 -0.1320
 4170TP3     H124329   1.644   2.881   0.989  1.5701 -0.7381 -1.1227
 4170TP3     H224330   1.662   3.008   0.910  1.0294  0.2103  0.2341
 4171TP3      O24331   2.308   3.410   2.866  0.1289 -0.2320 -0.4918
 4171TP3     H124332   2.282   3.472   2.934 -0.6244 -1.0860  0.0256
 4171TP3     H224333   2.356   3.341   2.913  0.2694 -0.4399 -0.9338
 4172TP3      O24334   0.037   3.830   0.438  0.0095  0.3065 -0.5745
 4172TP3     H124335   0.028   3.897   0.370  0.1141 -0.3594 -1.2486
 4172TP3     H224336   0.119   3.786   0.417  0.5568  0.7405  0.5685
 4173TP3      O24337   2.823   0.972   2.743  0.1575 -0.0804 -0.3444
 4173TP3     H124338   2.810   1.061   2.709  2.3821  0.3964 -0.0810
 4173TP3     H224339   2.881   0.931   2.680 -1.6563 -1.7641 -1.0172
 4174TP3      O24340   0.666   2.431   8.475  0.1224  0.0402 -1.0009
 4174TP3     H124341   0.668   2.519   8.513  0.1862  0.0771 -1.0897
 4174TP3     H224342   0.637   2.444   8.385  0.1306 -0.0302 -1.0139
 4175TP3      O24343   3.300   3.206   2.458 -0.1972 -0.0261 -0.8164
 4175TP3     H124344   3.352   3.200   2.539 -0.4778  0.8718 -0.5551
 4175TP3     H224345   3.333   3.135   2.403 -1.3023 -1.9169  0.8334
 4176TP3      O24346   1.149   4.800   1.697  0.6726 -0.6561 -0.4255
 4176TP3     H124347   1.153   4.707   1.677  1.2721 -0.7204 -0.0364
 4176TP3     H224348   1.239   4.831   1.686  0.6434 -0.3002  0.2610
 4177TP3      O24349   3.413   0.470   1.639  0.3325  0.7584 -0.2546
 4177TP3     H124350   3.323   0.445   1.662  0.5137 -0.7639 -1.0469
 4177TP3     H224351   3.459   0.476   1.723 -0.2588  0.5163  0.0920
 4178TP3      O24352   3.388   1.530   2.243 -0.4862 -0.1209  0.0556
 4178TP3     H124353   3.452   1.535   2.172 -0.9605  0.6546 -0.3305
 4178TP3     H224354   3.304   1.551   2.202 -0.9200 -0.6219  0.6551
 4179TP3      O24355   0.109   0.249   2.326  0.3165 -0.4521  0.0153
 4179TP3     H124356   0.027   0.277   2.285 -0.1845 -1.8069  0.0233
 4179TP3     H224357   0.174   0.311   2.295 -1.1022  2.1857  1.9512
 4180TP3      O24358   0.292   4.771   8.989 -0.6093  0.0230 -0.2910
 4180TP3     H124359   0.249   4.856   8.985  0.6692  0.7386  0.7815
 4180TP3     H224360   0.379   4.786   8.952 -0.6306 -1.0100 -0.8078
 4181TP3      O24361   4.970   4.196   0.437  0.2201 -0.0923  0.5489
 4181TP3     H124362   4.964   4.119   0.494  2.2369  0.4025  1.5257
 4181TP3     H224363   5.031   4.170   0.368  0.5655  0.4586  0.6353
 4182TP3      O24364   4.572   4.068   1.549 -0.1011  0.3676 -0.1267
 4182TP3     H124365   4.532   4.147   1.585 -0.3428  1.4353 -2.5560
 4182TP3     H224366   4.498   4.015   1.518  0.0514 -0.9217  1.5635
 4183TP3      O24367   4.150   3.741   8.895  0.1498  0.1279  0.1732
 4183TP3     H124368   4.235   3.784   8.902  0.3619 -0.2123 -0.2962
 4183TP3     H224369   4.170   3.652   8.865 -0.4144  0.2757 -0.6903
 4184TP3      O24370   1.917   0.174   1.463  0.0448  0.3544 -0.1452
 4184TP3     H124371   1.930   0.129   1.546  2.6176  2.5691  0.7738
 4184TP3     H224372   1.863   0.250   1.485 -0.8202 -0.0108 -0.9088
 4185TP3      O24373   1.851   4.825   2.785 -0.3019  0.3642 -0.0599
 4185TP3     H124374   1.797   4.808   2.707  0.9091  1.4280 -1.1753
 4185TP3     H224375   1.796   4.882   2.839  0.5372  3.6967 -2.3897
 4186TP3      O24376   3.530   2.625   9.774 -0.0654 -0.1961 -0.2896
 4186TP3     H124377   3.542   2.604   9.867 -1.0304 -3.6790 -0.8062
 4186TP3     H224378   3.455   2.684   9.773 -0.2666 -0.3736  1.1414
 4187TP3      O24379   3.554   1.806   2.331  0.3844 -0.1899 -0.3996
 4187TP3     H124380   3.575   1.728   2.382  0.8287  1.4643  2.0927
 4187TP3     H224381   3.458   1.812   2.333  0.3104 -0.9508 -1.1138
 4188TP3      O24382   1.075   0.719   1.427 -0.6086 -0.6562 -0.1279
 4188TP3     H124383   1.115   0.794   1.471  0.4878 -0.7130 -0.9663
 4188TP3     H224384   0.992   0.706   1.472 -0.0968  0.0605  1.0812
 4189TP3      O24385   5.041   3.975   6.719 -0.5131  0.0349  0.2050
 4189TP3     H124386   5.046   3.924   6.638  0.2421 -2.3243  1.6361
 4189TP3     H224387   4.972   3.933   6.770 -1.8888  2.2904  0.3355
 4190TP3      O24388   1.345   2.698   1.432  0.0665 -0.0508 -0.0984
 4190TP3     H124389   1.256   2.691   1.467  0.4007 -1.5036  0.5314
 4190TP3     H224390   1.348   2.785   1.391 -1.2626  0.5016  0.9015
 4191TP3      O24391   4.774   3.435   1.558 -0.7500 -0.3984 -0.4487
 4191TP3     H124392   4.723   3.470   1.485 -1.8979 -0.3277  0.3604
 4191TP3     H224393   4.775   3.505   1.622 -1.0563 -0.9923  0.2222
 4192TP3      O24394   3.042   0.085   8.300 -0.4275  0.1461 -0.1325
 4192TP3     H124395   3.080   0.036   8.373 -0.9724 -1.7420 -1.0803
 4192TP3     H224396   2.957   0.115   8.334  0.7571  2.3347  1.1580
 4193TP3      O24397   4.343   2.656   0.875 -0.1202 -0.1914 -0.1551
 4193TP3     H124398   4.359   2.641   0.782  1.7213 -0.6444  0.2096
 4193TP3     H224399   4.296   2.578   0.904 -1.1711  0.1850 -0.7912
 4194TP3      O24400   3.475   1.055   7.808  0.2106  0.8549  0.2305
 4194TP3     H124401   3.549   1.046   7.868 -0.3604  1.2535  1.0146
 4194TP3     H224402   3.465   0.969   7.768  0.7917  0.6683  0.4874
 4195TP3      O24403   1.310   3.641   7.290 -0.3910  0.2343 -0.2648
 4195TP3     H124404   1.332   3.600   7.206  1.0664  1.7134 -0.6404
 4195TP3     H224405   1.324   3.734   7.276 -1.8589  0.7102  1.1231
 4196TP3      O24406   0.729   2.590   9.111 -0.3440 -0.1947  0.0276
 4196TP3     H124407   0.779   2.651   9.058 -0.9455 -0.2626 -0.6266
 4196TP3     H224408   0.774   2.506   9.100 -0.5417 -0.2366 -0.4855
 4197TP3      O24409   4.713   4.219   9.786  0.0270  0.3352  0.4107
 4197TP3     H124410   4.650   4.195   9.719 -0.4706  0.4212  0.8406
 4197TP3     H224411   4.784   4.156   9.776  0.6435  1.2148 -1.1290
 4198TP3      O24412   4.347   2.996   9.269 -0.2154 -0.0571  0.0546
 4198TP3     H124413   4.413   2.957   9.326  0.1577  0.9830  0.3661
 4198TP3     H224414   4.281   2.927   9.257  0.5861 -0.8813  0.2863
 4199TP3      O24415   4.951   4.704   0.293 -0.0610  0.1702 -0.5723
 4199TP3     H124416   4.993   4.635   0.243 -0.7289 -0.3942 -0.3626
 4199TP3     H224417   4.943   4.777   0.231  0.0753 -0.1514 -0.9739
 4200TP3      O24418   0.744   2.873   2.529 -0.0750  0.2657  0.0227
 4200TP3     H124419   0.662   2.906   2.491  0.6997  0.9122 -1.1533
 4200TP3     H224420   0.722   2.784   2.559 -1.6443  1.0350  1.3192
 4201TP3      O24421   2.568   4.978   1.787 -0.3168  0.0378 -0.7331
 4201TP3     H124422   2.567   4.912   1.857 -0.0414 -1.8058 -2.3655
 4201TP3     H224423   2.637   5.039   1.813 -1.1694  0.2179  1.2685
 4202TP3      O24424   4.291   2.754   0.419  0.5291  0.3159 -0.0828
 4202TP3     H124425   4.277   2.838   0.461 -1.3747 -0.6658  1.3668
 4202TP3     H224426   4.209   2.735   0.374  0.9638 -0.7423 -0.4713
 4203TP3      O24427   1.494   4.339   2.608 -0.0783  0.3828 -0.2319
 4203TP3     H124428   1.528   4.252   2.630  1.8298  1.3435  0.8211
 4203TP3     H224429   1.415   4.347   2.662  0.4408 -0.2111  0.6627
 4204TP3      O24430   2.119   2.147   6.564 -0.3006  0.2515 -0.0359
 4204TP3     H124431   2.153   2.237   6.569 -0.9172  0.5543 -1.0868
 4204TP3     H224432   2.184   2.095   6.612  1.5422  0.8582 -1.7026
 4205TP3      O24433   4.317   4.774   2.259 -0.1700  0.2281 -0.0417
 4205TP3     H124434   4.282   4.759   2.172 -1.4417  0.6722  0.3769
 4205TP3     H224435   4.386   4.708   2.269 -0.4309 -0.2277 -1.1340
 4206TP3      O24436   3.747   4.884   8.101 -0.5741 -0.4212 -0.1631
 4206TP3     H124437   3.776   4.975   8.109 -1.6362  0.1476 -2.1886
 4206TP3     H224438   3.652   4.888   8.102 -0.6397 -1.5134 -0.3828
 4207TP3      O24439   4.733   1.103   9.007 -0.6746 -0.2652 -0.1844
 4207TP3     H124440   4.764   1.051   8.934  0.4066 -0.3547  0.3275
 4207TP3     H224441   4.800   1.170   9.020 -0.5971 -0.5458  1.0224
 4208TP3      O24442   0.457   4.385   1.509  0.3126  0.2975 -0.3892
 4208TP3     H124443   0.455   4.427   1.595 -3.2790 -1.8906  0.7950
 4208TP3     H224444   0.463   4.458   1.447  1.2070  2.0362  1.6231
 4209TP3      O24445   3.958   1.399   2.747  0.0610 -0.8301 -0.4830
 4209TP3     H124446   3.923   1.381   2.835 -1.4682  2.0347 -0.3896
 4209TP3     H224447   3.969   1.312   2.708 -1.8067 -2.1135  1.5776
 4210TP3      O24448   4.603   0.683   2.442  0.2133 -0.1749  0.0781
 4210TP3     H124449   4.560   0.766   2.423  0.0724 -0.6218 -1.7632
 4210TP3     H224450   4.685   0.687   2.392 -0.9419 -2.1079 -2.1811
 4211TP3      O24451   0.963   4.011   7.849 -0.0187  0.6231 -0.8035
 4211TP3     H124452   0.957   4.054   7.764 -0.5980  1.0581 -0.5500
 4211TP3     H224453   0.872   3.993   7.873  0.1250  0.7547 -0.1451
 4212TP3      O24454   4.254   2.361   0.939 -0.2564  0.3071  0.0637
 4212TP3     H124455   4.259   2.309   0.859  1.4296 -0.1662  0.4429
 4212TP3     H224456   4.260   2.296   1.009  0.5271  0.9062  0.5568
 4213TP3      O24457   0.992   4.346   0.557  0.6086  0.3579  0.1509
 4213TP3     H124458   1.063   4.371   0.617  1.5355 -0.4460 -0.5883
 4213TP3     H224459   1.014   4.257   0.530 -0.8003  0.0184  0.0567
 4214TP3      O24460   2.987   0.082   7.033  0.4672  0.2650  0.5580
 4214TP3     H124461   2.894   0.096   7.052  0.5572  2.1586 -0.1116
 4214TP3     H224462   3.015   0.165   6.995  2.8883  0.4087  2.4537
 4215TP3      O24463   1.935   1.541   1.238  0.5995 -0.1932  0.0513
 4215TP3     H124464   1.898   1.618   1.195  0.6356  0.2236  0.7614
 4215TP3     H224465   2.024   1.566   1.262  0.7245 -0.5692 -0.0031
 4216TP3      O24466   3.682   0.026   2.730  0.3720 -0.0023 -0.1027
 4216TP3     H124467   3.745  -0.012   2.792  0.8772 -0.9505 -1.1604
 4216TP3     H224468   3.645  -0.049   2.684  0.1347  0.6802 -1.0703
 4217TP3      O24469   2.443   3.293   2.292 -0.5482  0.4103 -0.1147
 4217TP3     H124470   2.536   3.315   2.303 -0.1444 -1.4192  0.6190
 4217TP3     H224471   2.401   3.327   2.371 -0.5378  1.3996 -0.5325
 4218TP3      O24472   4.700   3.754   7.767  0.4012 -0.1972 -0.0318
 4218TP3     H124473   4.684   3.676   7.820  0.4451 -0.5832 -0.5666
 4218TP3     H224474   4.682   3.827   7.825 -0.4741 -0.6064  0.2386
 4219TP3      O24475   4.486   3.757   0.165  0.1613  0.3006 -0.1435
 4219TP3     H124476   4.454   3.719   0.083  1.9444  0.1113 -0.7954
 4219TP3     H224477   4.491   3.851   0.147 -1.0360  0.4686  0.3327
 4220TP3      O24478   0.452   0.881   7.432 -0.4382 -0.0467 -0.0384
 4220TP3     H124479   0.498   0.947   7.484  0.1293 -1.6333  1.5790
 4220TP3     H224480   0.518   0.813   7.417 -1.6616 -1.4484  0.6162
 4221TP3      O24481   2.991   3.147   0.949  0.1889  0.3311 -0.2229
 4221TP3     H124482   3.056   3.179   1.012 -0.8058 -1.2546  1.7423
 4221TP3     H224483   2.955   3.069   0.990 -1.2287 -0.2293 -2.3790
 4222TP3      O24484   3.638   1.969   1.868  0.3245  0.0691  0.5799
 4222TP3     H124485   3.676   2.025   1.801 -0.6251 -0.0761 -0.1113
 4222TP3     H224486   3.631   1.883   1.827  2.2337 -0.7342  1.7976
 4223TP3      O24487   4.230   3.417   8.528  0.2016 -0.3566  0.4499
 4223TP3     H124488   4.152   3.459   8.491 -0.2599 -0.8366  0.8462
 4223TP3     H224489   4.303   3.448   8.474 -0.2378  0.2618  0.1988
 4224TP3      O24490   3.379   2.321   2.963 -0.2555  0.4166  0.7142
 4224TP3     H124491   3.420   2.289   2.882 -0.2610  0.4431  0.7012
 4224TP3     H224492   3.414   2.409   2.974  0.0011  0.2900  0.9196
 4225TP3      O24493   0.216   0.802   9.984 -0.0638 -0.8918  0.0154
 4225TP3     H124494   0.140   0.835  10.033  0.6080  1.1324 -0.2403
 4225TP3     H224495   0.221   0.710  10.010 -1.4891 -0.6217  1.4845
 4226TP3      O24496   3.215   2.137   9.793  0.0891  0.4155 -0.3684
 4226TP3     H124497   3.309   2.153   9.789 -0.1416  3.2037  1.7866
 4226TP3     H224498   3.176   2.223   9.779 -2.0790 -0.4245  0.1162
 4227TP3      O24499   1.211   3.093   1.067 -0.5464  0.2087 -0.4096
 4227TP3     H124500   1.184   3.148   1.140  2.0691  2.8264 -1.2047
 4227TP3     H224501   1.253   3.018   1.108  0.2188  1.2627  0.8064
 4228TP3      O24502   4.864   1.070   1.162  0.0898  0.2134 -0.0119
 4228TP3     H124503   4.869   1.052   1.256  0.8428  0.8828  0.0811
 4228TP3     H224504   4.920   1.003   1.122  0.2421  0.2980  0.0610
 4229TP3      O24505   4.852   2.019   2.813 -0.5970  0.1316  0.0688
 4229TP3     H124506   4.923   2.062   2.861  1.3233 -2.1989 -0.4636
 4229TP3     H224507   4.790   2.089   2.795  2.5697  2.9015 -1.2856
 4230TP3      O24508   0.660   4.221   0.800  0.1360  0.4753  0.2119
 4230TP3     H124509   0.597   4.239   0.870 -0.7533 -3.6422  0.7822
 4230TP3     H224510   0.745   4.221   0.843 -0.3840 -1.8416  1.4180
 4231TP3      O24511   1.579   3.710   0.120  0.2921  0.0086  0.4309
 4231TP3     H124512   1.498   3.682   0.077  0.3613  1.1077 -0.4565
 4231TP3     H224513   1.641   3.639   0.102 -0.8782 -1.6274  2.5150
 4232TP3      O24514   0.983   5.150   9.812 -0.2166 -0.3617  0.2140
 4232TP3     H124515   1.035   5.069   9.809  1.3245  0.4839  2.0232
 4232TP3     H224516   0.896   5.123   9.783  0.9457 -2.0338 -2.0797
 4233TP3      O24517   2.080   2.572   0.834 -0.2935  0.3632  0.2642
 4233TP3     H124518   2.027   2.494   0.818 -0.3522  0.3632  0.4612
 4233TP3     H224519   2.065   2.626   0.756 -2.1036  1.2112  1.1266
 4234TP3      O24520   5.092   3.438   0.674 -0.5745  0.1555 -0.4068
 4234TP3     H124521   5.166   3.489   0.640 -0.6522  1.7136  1.5622
 4234TP3     H224522   5.113   3.347   0.652  1.4754  0.6466 -0.7086
 4235TP3      O24523   5.044   0.183   1.840 -0.0031  0.9109 -0.1473
 4235TP3     H124524   4.964   0.147   1.803  1.8793 -2.5597 -1.3443
 4235TP3     H224525   5.104   0.191   1.765  2.6865 -2.6712  1.3431
 4236TP3      O24526   4.968   2.116   3.499  0.1305 -0.3161 -0.9761
 4236TP3     H124527   4.926   2.148   3.419 -1.0063  0.2808 -0.1743
 4236TP3     H224528   4.952   2.185   3.563  0.1956 -1.2148  0.0250
 4237TP3      O24529   0.872   1.827   1.219  0.4486 -0.3445  0.9140
 4237TP3     H124530   0.964   1.810   1.240  0.6586 -0.6651 -0.2243
 4237TP3     H224531   0.848   1.760   1.155  0.1314  1.1523 -0.6163
 4238TP3      O24532   0.202   0.086   2.514  0.7667  0.1950  0.6180
 4238TP3     H124533   0.172   0.139   2.440  1.4162 -0.3677 -0.0563
 4238TP3     H224534   0.151   0.119   2.589  0.2960  0.9478 -0.0184
 4239TP3      O24535   4.479   0.528   2.911 -0.2018  0.4628 -0.6338
 4239TP3     H124536   4.571   0.543   2.893 -0.5378  1.2004 -1.8366
 4239TP3     H224537   4.472   0.530   3.007  1.0119  0.4078 -0.5390
 4240TP3      O24538   2.783   2.157   7.381 -0.9984  0.0831  0.3944
 4240TP3     H124539   2.824   2.123   7.461  0.0518 -1.1939 -0.6578
 4240TP3     H224540   2.832   2.118   7.309 -0.0568  3.3509 -0.9583
 4241TP3      O24541   3.196   4.797   1.969 -1.1131 -0.2476  0.1312
 4241TP3     H124542   3.291   4.795   1.970 -0.9376  2.3615 -1.2451
 4241TP3     H224543   3.170   4.713   1.931  0.6510 -0.6914 -0.1807
 4242TP3      O24544   2.346   3.261   8.922  0.2323  0.0201 -0.2596
 4242TP3     H124545   2.253   3.277   8.938  0.5930  1.8999  0.2401
 4242TP3     H224546   2.348   3.208   8.842 -1.2511  0.1996 -0.4454
 4243TP3      O24547   1.611   3.927   8.396 -0.4390 -0.1643 -0.4065
 4243TP3     H124548   1.609   3.973   8.311  1.2013 -0.7620 -0.8087
 4243TP3     H224549   1.622   3.835   8.373 -0.6974 -0.4168  0.4558
 4244TP3      O24550   0.402   4.177   8.751 -0.0148 -0.5034  0.8219
 4244TP3     H124551   0.337   4.129   8.699  0.0627  0.2171  0.0456
 4244TP3     H224552   0.450   4.108   8.797  2.3749 -1.5858 -2.8292
 4245TP3      O24553   1.226   2.203   8.693  0.4992 -0.2351  0.5567
 4245TP3     H124554   1.222   2.251   8.610 -0.5597 -0.3652  0.5250
 4245TP3     H224555   1.295   2.246   8.742 -0.2226  1.1271  0.4091
 4246TP3      O24556   1.002   2.616   2.631  0.2910 -0.0891  0.1458
 4246TP3     H124557   0.923   2.649   2.674  0.9860  0.4593  1.0348
 4246TP3     H224558   0.974   2.599   2.541 -1.0548 -0.7500  0.6570
 4247TP3      O24559   1.498   1.035   2.826 -0.3087 -0.4156  0.3454
 4247TP3     H124560   1.436   1.105   2.805 -0.6144 -0.8761 -0.3065
 4247TP3     H224561   1.562   1.077   2.884  0.3291  0.7785 -1.1674
 4248TP3      O24562   4.034   1.360   9.625  0.5149  0.0339  0.5679
 4248TP3     H124563   3.956   1.314   9.594  0.4080  1.3008 -1.1948
 4248TP3     H224564   4.090   1.290   9.661 -0.4673 -1.1942 -0.2053
 4249TP3      O24565   3.298   4.464   1.541  0.3297 -0.2572  0.4089
 4249TP3     H124566   3.210   4.428   1.551  0.3232 -0.6636 -0.9844
 4249TP3     H224567   3.289   4.556   1.565 -0.8855  0.1608 -1.4585
 4250TP3      O24568   2.068   1.201   0.051 -0.6456 -0.1256  0.3194
 4250TP3     H124569   1.993   1.146   0.028 -2.3371  1.5561  1.5980
 4250TP3     H224570   2.053   1.283   0.005  2.0411 -0.6756 -1.8446
 4251TP3      O24571   0.397   0.362   2.404 -0.0633 -0.0194 -0.2963
 4251TP3     H124572   0.345   0.357   2.484 -0.2460  1.6650 -0.2715
 4251TP3     H224573   0.472   0.417   2.429 -0.6064  1.3235 -1.5079
 4252TP3      O24574   1.673   0.696   3.675 -0.2906 -0.3871 -0.3558
 4252TP3     H124575   1.749   0.739   3.715 -1.1719 -0.0040  1.0061
 4252TP3     H224576   1.699   0.604   3.668  0.0715 -0.3929  0.7486
 4253TP3      O24577   1.941   1.420   3.346 -0.3918  0.1738  0.2047
 4253TP3     H124578   2.011   1.417   3.281 -0.6433  0.8759 -0.1110
 4253TP3     H224579   1.876   1.358   3.314 -0.7220  0.8508 -0.4727
 4254TP3      O24580   2.385   4.464   2.302  0.6795  0.9366  0.4527
 4254TP3     H124581   2.402   4.555   2.324 -0.3526  0.8613  1.7054
 4254TP3     H224582   2.338   4.468   2.219  0.7641  1.5440  0.4298
 4255TP3      O24583   3.474   2.511   1.282  0.5446 -0.3810  0.2966
 4255TP3     H124584   3.536   2.513   1.355  1.2361 -1.3385 -0.2368
 4255TP3     H224585   3.504   2.439   1.227 -3.3497 -3.7522  2.0443
 4256TP3      O24586   3.924   3.635   1.434 -0.6437 -0.0548  0.9424
 4256TP3     H124587   3.848   3.694   1.439 -1.0700 -0.6387  1.7362
 4256TP3     H224588   3.920   3.586   1.517 -0.8190 -1.8104 -0.0606
 4257TP3      O24589   4.819   2.241   7.584  0.2244  0.0708  0.3923
 4257TP3     H124590   4.828   2.303   7.656 -0.0189  1.2987 -0.5909
 4257TP3     H224591   4.741   2.271   7.537  0.8635 -0.1748 -0.8635
 4258TP3      O24592   2.647   5.191   7.959 -0.1219 -0.1016  0.0895
 4258TP3     H124593   2.725   5.136   7.956  0.1974  0.3825 -0.7579
 4258TP3     H224594   2.681   5.280   7.962 -0.6454  0.0970  0.1309
 4259TP3      O24595   1.482   2.988   1.921  0.3358  0.6794  0.3103
 4259TP3     H124596   1.553   3.017   1.978 -0.0750 -0.7476  1.6431
 4259TP3     H224597   1.407   2.978   1.980 -0.6023  0.8383 -0.8170
 4260TP3      O24598   4.328   4.469   0.973 -0.1329 -0.3169 -0.1683
 4260TP3     H124599   4.378   4.415   1.034  0.1784  0.2329  0.0806
 4260TP3     H224600   4.376   4.465   0.891  0.3432  0.2292  0.0767
 4261TP3      O24601   5.116   1.863   3.558 -0.0152 -0.3769  0.0959
 4261TP3     H124602   5.107   1.957   3.546 -0.0753 -0.3191  0.5718
 4261TP3     H224603   5.181   1.853   3.627  0.3611 -0.6987 -0.2986
 4262TP3      O24604   1.520   1.876   0.073  0.0664 -0.8756 -0.0311
 4262TP3     H124605   1.469   1.830   0.007 -0.3591  1.5108 -1.4791
 4262TP3     H224606   1.473   1.860   0.155 -1.2239 -1.3017 -0.8231
 4263TP3      O24607   4.748   3.713   1.974  0.4983 -0.0804  0.0577
 4263TP3     H124608   4.767   3.789   2.029  0.3364  0.8254 -1.0951
 4263TP3     H224609   4.820   3.709   1.911  0.5041 -0.8831  0.1063
 4264TP3      O24610   4.793   0.373   2.990  0.4634 -0.2188  0.3289
 4264TP3     H124611   4.717   0.389   3.045 -1.0318 -1.3906 -1.3061
 4264TP3     H224612   4.848   0.314   3.041 -0.7413 -1.0275  0.7267
 4265TP3      O24613   4.939   0.999   9.483 -0.0365  0.3060  0.3922
 4265TP3     H124614   4.935   1.049   9.564 -0.3742 -0.3343  0.7799
 4265TP3     H224615   4.850   0.965   9.472  0.7797 -2.4587  1.5802
 4266TP3      O24616   3.366   1.354   0.728 -0.0772  0.0080  0.4083
 4266TP3     H124617   3.378   1.296   0.803 -1.2140 -0.7198  0.0406
 4266TP3     H224618   3.277   1.387   0.737 -0.1577  0.0605 -0.5282
 4267TP3      O24619   0.461   1.676   0.470 -0.0873  0.2790 -0.1606
 4267TP3     H124620   0.390   1.737   0.488 -0.3342 -0.0413 -0.0311
 4267TP3     H224621   0.443   1.644   0.381 -0.8123 -0.7361  0.3320
 4268TP3      O24622   4.641   2.447   0.858  0.2338 -0.3858 -0.1193
 4268TP3     H124623   4.587   2.395   0.917 -0.8864 -0.1425 -0.8984
 4268TP3     H224624   4.647   2.533   0.900  0.3505 -0.5238  0.1526
 4269TP3      O24625   5.017   3.253   0.893 -0.2005 -0.2570 -0.5717
 4269TP3     H124626   5.019   3.343   0.861  0.6947 -0.3600 -0.8235
 4269TP3     H224627   4.951   3.210   0.839 -0.5285  0.2106 -0.5483
 4270TP3      O24628   2.903   1.592   3.124 -0.8301 -0.1625  0.3527
 4270TP3     H124629   2.861   1.676   3.144 -0.7310  0.5240 -2.0210
 4270TP3     H224630   2.983   1.592   3.176 -1.5593  0.5197  1.5203
 4271TP3      O24631   0.782   1.555   7.255 -0.0648 -0.0612 -0.5864
 4271TP3     H124632   0.820   1.592   7.335  0.2860  0.9517 -1.2065
 4271TP3     H224633   0.688   1.552   7.274 -0.1167  1.2143 -0.5214
 4272TP3      O24634   1.435   0.229   9.254 -0.8864  0.0833 -0.0601
 4272TP3     H124635   1.400   0.145   9.224 -1.0987 -0.1417  0.7810
 4272TP3     H224636   1.460   0.213   9.345  0.1337  0.6305 -0.2307
 4273TP3      O24637   1.811   2.153   2.675 -0.0314  0.2142 -0.9550
 4273TP3     H124638   1.744   2.161   2.744  0.0427  1.9799 -1.0240
 4273TP3     H224639   1.891   2.132   2.722 -0.3070 -0.2273 -0.6785
 4274TP3      O24640   3.985   1.173   1.430 -0.2591 -0.0502 -0.7487
 4274TP3     H124641   3.988   1.088   1.475  1.2958  0.4895  0.2601
 4274TP3     H224642   3.968   1.151   1.339 -0.1288 -1.4309 -0.4678
 4275TP3      O24643   0.182   4.096   1.877 -0.0622  0.3367  0.1391
 4275TP3     H124644   0.195   4.137   1.963 -0.0231  0.7757 -0.0748
 4275TP3     H224645   0.251   4.133   1.822  0.6696 -0.8417  0.2225
 4276TP3      O24646   2.172   0.901   0.173 -0.2893  0.4766  0.1252
 4276TP3     H124647   2.181   0.964   0.101  0.5947  1.1554  0.8021
 4276TP3     H224648   2.147   0.955   0.248 -0.9430 -0.1920  0.3949
 4277TP3      O24649   1.785   1.119   9.046 -0.3227 -0.2720 -0.2913
 4277TP3     H124650   1.821   1.059   9.112  0.4226  1.4457  0.9492
 4277TP3     H224651   1.697   1.086   9.028  0.2376 -1.9993 -0.0447
 4278TP3      O24652   1.366   3.964   8.963 -0.4623  0.1710 -0.0314
 4278TP3     H124653   1.399   4.044   8.920 -1.3332  0.7762  0.4039
 4278TP3     H224654   1.283   3.991   9.003 -1.5132 -1.3114 -1.1072
 4279TP3      O24655   3.281   0.209   0.111  0.0101 -0.2646  0.3457
 4279TP3     H124656   3.317   0.148   0.175 -0.1142 -1.0689 -0.3321
 4279TP3     H224657   3.256   0.286   0.162 -0.6952 -1.1490  1.3579
 4280TP3      O24658   5.029   1.327   1.083  0.0401  0.3157 -0.3858
 4280TP3     H124659   5.005   1.324   1.176  0.4557  0.0186 -0.2864
 4280TP3     H224660   5.020   1.237   1.053 -0.4530  0.4757 -0.7304
 4281TP3      O24661   4.085   2.625   8.538 -0.0821  0.8723 -0.5798
 4281TP3     H124662   4.106   2.593   8.450  1.3435 -0.3441  0.1464
 4281TP3     H224663   4.168   2.621   8.585 -1.1622 -0.3091  1.3449
 4282TP3      O24664   0.487   0.811   1.607  0.3522  0.2715  0.0326
 4282TP3     H124665   0.397   0.833   1.630  1.5019  3.0841  2.3989
 4282TP3     H224666   0.508   0.867   1.533  0.6841  1.0804  0.7139
 4283TP3      O24667   0.636   1.815   3.128  0.0523  0.0899  0.2113
 4283TP3     H124668   0.720   1.772   3.111 -0.4922 -0.8924 -0.0921
 4283TP3     H224669   0.575   1.770   3.070 -0.4320  1.7612 -0.6473
 4284TP3      O24670   0.897   1.016   9.528 -0.2962 -0.1535 -0.2319
 4284TP3     H124671   0.809   0.978   9.529 -0.9798  1.3498  1.4946
 4284TP3     H224672   0.948   0.960   9.586 -0.9751  0.7317  1.2909
 4285TP3      O24673   0.947   3.500   9.137 -0.5094  0.0793  0.0152
 4285TP3     H124674   1.026   3.545   9.166 -1.2489  1.9140 -0.6388
 4285TP3     H224675   0.911   3.460   9.216  2.1845 -2.7820 -0.0194
 4286TP3      O24676   1.304   2.167   1.946 -0.1020 -0.6909 -0.1253
 4286TP3     H124677   1.338   2.203   1.865  2.9899 -1.5437  0.6745
 4286TP3     H224678   1.325   2.232   2.012  1.6364 -1.9722  0.6524
 4287TP3      O24679   4.356   0.257   9.719  0.3629  0.0152 -0.5585
 4287TP3     H124680   4.430   0.308   9.686  0.7413 -1.1276 -1.5360
 4287TP3     H224681   4.314   0.221   9.641 -1.7481  1.2743 -0.1009
 4288TP3      O24682   0.245   4.650   1.533  0.8204  0.0452 -0.1300
 4288TP3     H124683   0.259   4.639   1.626 -1.1230 -0.1012  0.1900
 4288TP3     H224684   0.241   4.745   1.521 -2.1623  0.1226  0.5785
 4289TP3      O24685   3.325   3.370   9.556  0.1955 -0.2133 -0.4332
 4289TP3     H124686   3.411   3.411   9.571  1.0589 -1.5648 -1.4235
 4289TP3     H224687   3.333   3.330   9.470 -1.4480 -0.4037 -0.5192
 4290TP3      O24688   3.646   0.252   1.856  0.6847 -0.4568 -0.1661
 4290TP3     H124689   3.695   0.289   1.929  0.7974 -0.7544 -0.0873
 4290TP3     H224690   3.675   0.301   1.779 -0.4453  0.8031  0.1729
 4291TP3      O24691   2.491   2.417   1.102 -0.1141 -0.1730 -0.2857
 4291TP3     H124692   2.453   2.481   1.041 -0.4390  1.1612  1.2472
 4291TP3     H224693   2.449   2.436   1.186  1.0403 -1.2965  0.5870
 4292TP3      O24694   0.215   2.481   9.006  0.6547 -0.2187  0.0793
 4292TP3     H124695   0.150   2.453   9.070  0.4263  3.6162  1.8013
 4292TP3     H224696   0.298   2.483   9.054  0.7299  1.3940 -0.0563
 4293TP3      O24697   5.009   4.005   1.912 -0.3858 -0.0949 -0.8109
 4293TP3     H124698   4.918   4.021   1.936 -0.8629  1.0595 -3.1256
 4293TP3     H224699   5.049   4.092   1.912  1.0160 -0.6723  1.0765
 4294TP3      O24700   2.305   2.659   3.568  0.0427  0.1813 -0.3506
 4294TP3     H124701   2.291   2.570   3.602 -1.9062  0.2771 -0.8307
 4294TP3     H224702   2.395   2.679   3.593  0.3482 -1.7093  0.2670
 4295TP3      O24703   3.633   4.812  10.090 -0.4597  0.1351 -0.3449
 4295TP3     H124704   3.685   4.796  10.169 -0.3144 -1.2874 -0.7017
 4295TP3     H224705   3.568   4.742  10.090  1.0993 -1.4399 -2.7761
 4296TP3      O24706   4.627   2.702   0.983  0.4456 -0.1329  0.4450
 4296TP3     H124707   4.557   2.765   0.965 -0.2189 -1.0356 -0.1927
 4296TP3     H224708   4.703   2.736   0.934 -0.1297 -0.2507 -0.5533
 4297TP3      O24709   4.779   3.991   8.309  0.3998  0.3805 -0.4447
 4297TP3     H124710   4.831   3.994   8.229  0.0031 -0.6153 -0.7554
 4297TP3     H224711   4.766   3.898   8.326  1.3426  0.5287  1.3629
 4298TP3      O24712   1.118   1.410   0.733 -0.0730  0.7638 -0.9214
 4298TP3     H124713   1.151   1.322   0.715  1.7421  1.0462  0.6851
 4298TP3     H224714   1.048   1.397   0.796 -0.3473  0.4079 -1.3003
 4299TP3      O24715   3.412   1.107   8.066  0.6045  0.2942 -0.1392
 4299TP3     H124716   3.404   1.096   7.972 -1.0345 -3.3978  0.2669
 4299TP3     H224717   3.506   1.105   8.082  0.9418  1.5716 -1.6610
 4300TP3      O24718   4.634   3.116   8.811  0.8946  0.8499 -0.7257
 4300TP3     H124719   4.584   3.186   8.853  0.0458  0.7446 -1.5147
 4300TP3     H224720   4.579   3.038   8.822 -0.2776  1.1555 -3.5352
 4301TP3      O24721   4.125   5.117   0.277  0.2220 -0.3186 -0.1412
 4301TP3     H124722   4.143   5.211   0.270  1.6857 -0.6430 -1.1649
 4301TP3     H224723   4.204   5.080   0.315 -1.2408 -0.8934  2.6499
 4302TP3      O24724   4.416   4.979   3.649 -0.1930  0.2382 -0.3765
 4302TP3     H124725   4.376   5.063   3.626 -0.3124  0.1992 -0.3170
 4302TP3     H224726   4.343   4.927   3.682 -0.1822 -0.0055 -0.7273
 4303TP3      O24727   3.662   2.632   0.702 -0.4305  0.0310 -0.3999
 4303TP3     H124728   3.709   2.677   0.772  1.8607 -1.0311 -1.1708
 4303TP3     H224729   3.600   2.575   0.747 -1.3294  1.7374  0.6343
 4304TP3      O24730   2.247   0.626   8.251  0.2689 -0.1647 -0.2118
 4304TP3     H124731   2.173   0.663   8.203  1.9489  1.5156 -1.6459
 4304TP3     H224732   2.255   0.681   8.329 -0.2971 -0.7043  0.2425
 4305TP3      O24733   4.606   4.158   3.150 -0.6748 -0.2327 -0.0757
 4305TP3     H124734   4.591   4.064   3.138 -1.5911 -0.0213 -0.7113
 4305TP3     H224735   4.579   4.197   3.066  0.5774  0.5127 -0.1600
 4306TP3      O24736   2.329   0.572   9.136  0.3814  0.6729 -0.2545
 4306TP3     H124737   2.408   0.531   9.103  0.4099  1.5603 -1.3809
 4306TP3     H224738   2.360   0.648   9.186  0.2738  0.4385  0.1695
 4307TP3      O24739   0.242   3.433   1.266 -0.0864  0.1633  0.4417
 4307TP3     H124740   0.230   3.387   1.183  1.9933  0.2356  0.0416
 4307TP3     H224741   0.154   3.459   1.291 -1.0546 -1.8390 -0.5727
 4308TP3      O24742   0.191   3.301   9.335 -0.0423  0.1905 -0.1161
 4308TP3     H124743   0.281   3.299   9.303  0.0559  1.7417 -0.0319
 4308TP3     H224744   0.152   3.219   9.305  0.9928  0.1313 -1.3536
 4309TP3      O24745   4.181   1.178   7.689 -0.0226  0.3725 -0.2322
 4309TP3     H124746   4.198   1.086   7.708 -0.3065  0.5296  0.8223
 4309TP3     H224747   4.264   1.223   7.707 -1.1452  1.1078  4.7101
 4310TP3      O24748   4.333   0.073   0.971  0.0636  0.1360  0.6166
 4310TP3     H124749   4.369  -0.015   0.979  0.1387  0.2315  1.4963
 4310TP3     H224750   4.337   0.093   0.878  0.7265 -0.5049  0.5029
 4311TP3      O24751   3.567   2.960   0.897  0.2772  0.0221  0.1054
 4311TP3     H124752   3.659   2.984   0.908  0.1192 -0.2681  2.4590
 4311TP3     H224753   3.548   2.899   0.968 -2.1472  1.3455  0.7445
 4312TP3      O24754   4.691   3.202   1.622 -0.1742  0.8842  0.1601
 4312TP3     H124755   4.716   3.185   1.713 -1.2740  2.4223  0.7878
 4312TP3     H224756   4.730   3.287   1.603  0.0463  0.5693 -0.8176
 4313TP3      O24757   4.495   0.908   2.877  0.5272  0.0489 -0.2276
 4313TP3     H124758   4.415   0.858   2.863  0.4203  0.4952 -1.3556
 4313TP3     H224759   4.510   0.905   2.972 -1.1789  0.4867  0.0826
 4314TP3      O24760   2.239   5.207   9.671  0.2955 -0.0670  0.0626
 4314TP3     H124761   2.316   5.232   9.722  1.7118 -0.4245 -1.7867
 4314TP3     H224762   2.229   5.278   9.607 -2.1091  0.9357  1.4231
 4315TP3      O24763   1.814   1.208   1.601 -0.6524  0.0166 -0.5662
 4315TP3     H124764   1.770   1.260   1.533 -0.4938  0.3854 -0.3877
 4315TP3     H224765   1.890   1.170   1.556 -0.8055 -0.1183 -0.7137
 4316TP3      O24766   3.577   1.713   7.924 -0.3061 -0.1018  0.4388
 4316TP3     H124767   3.511   1.689   7.858 -0.4051  1.1701  0.0443
 4316TP3     H224768   3.654   1.661   7.901 -0.9139 -1.0121  0.4232
 4317TP3      O24769   0.494   0.459   2.806 -0.0320  0.2717 -0.1894
 4317TP3     H124770   0.468   0.483   2.895 -0.7731 -0.8793 -0.0769
 4317TP3     H224771   0.566   0.519   2.786  0.5601  0.1541  1.4148
 4318TP3      O24772   4.081   3.966   8.281 -0.1958 -0.0219  0.4232
 4318TP3     H124773   4.112   4.050   8.313 -1.1519  0.4960  0.0217
 4318TP3     H224774   4.038   3.987   8.198 -1.5142 -0.7282  0.9080
 4319TP3      O24775   0.730   3.307   8.353 -0.6099 -0.0456 -0.1839
 4319TP3     H124776   0.682   3.331   8.273  0.1627 -1.1748 -1.0256
 4319TP3     H224777   0.778   3.228   8.328 -1.3269 -1.1582  1.7842
 4320TP3      O24778   4.449   0.685   1.172  0.5072  0.2053 -0.0478
 4320TP3     H124779   4.422   0.605   1.126 -2.4329  1.1958 -0.2064
 4320TP3     H224780   4.516   0.724   1.115  0.8029 -1.2862 -0.7689
 4321TP3      O24781   1.188   3.632   0.753  0.1731 -0.1947 -0.0448
 4321TP3     H124782   1.272   3.654   0.793 -0.1691 -0.6249  0.9515
 4321TP3     H224783   1.129   3.702   0.782  0.3844  0.6623 -1.5517
 4322TP3      O24784   4.284   5.270   9.042  0.0420 -0.3286  0.4399
 4322TP3     H124785   4.283   5.249   8.949  2.3429 -1.1913  0.5589
 4322TP3     H224786   4.208   5.225   9.078 -0.1951 -0.9567 -0.8221
 4323TP3      O24787   1.678   4.150   9.408 -0.1786  1.0433  0.6021
 4323TP3     H124788   1.732   4.098   9.468  1.3909 -0.0800 -1.6188
 4323TP3     H224789   1.649   4.087   9.342 -2.8335  1.9900  0.7507
 4324TP3      O24790   0.401   0.222   8.547  0.4815  0.5168 -0.0060
 4324TP3     H124791   0.426   0.251   8.459 -0.9061 -0.9777 -0.9429
 4324TP3     H224792   0.420   0.128   8.548  0.7874  0.5645  1.4240
 4325TP3      O24793   2.845   3.836   8.187  0.7403  0.3554 -0.2697
 4325TP3     H124794   2.874   3.814   8.275 -0.1317 -0.2992 -0.1332
 4325TP3     H224795   2.906   3.789   8.129 -0.6921 -1.9994  0.0159
 4326TP3      O24796   3.976   2.759   7.760 -0.2223  0.7191  0.0924
 4326TP3     H124797   3.910   2.719   7.816 -1.1805  1.6225 -0.3618
 4326TP3     H224798   4.022   2.685   7.720  1.1246  0.0222  2.7188
 4327TP3      O24799   1.248   2.849   9.912 -0.2969  0.8325 -0.1243
 4327TP3     H124800   1.190   2.903   9.858  0.2521  0.0916 -1.5172
 4327TP3     H224801   1.324   2.905   9.928  0.3004  0.5078 -1.6174
 4328TP3      O24802   5.063   0.196   1.001  0.3182 -0.1513  0.7194
 4328TP3     H124803   5.159   0.193   0.997  0.2936  0.0034  0.0417
 4328TP3     H224804   5.044   0.273   1.055  0.5369  1.5035 -1.4658
 4329TP3      O24805   1.520   2.294   9.066  0.4004  0.3101 -0.5324
 4329TP3     H124806   1.576   2.217   9.054 -0.3427 -0.2761 -0.3878
 4329TP3     H224807   1.541   2.326   9.153 -0.4407 -0.7434  0.0974
 4330TP3      O24808   0.252   5.089   1.151 -0.6038  0.0952  0.1602
 4330TP3     H124809   0.346   5.071   1.158 -1.1319 -2.9087  0.4997
 4330TP3     H224810   0.210   5.022   1.204 -2.9771  1.8133  0.6260
 4331TP3      O24811   0.444   1.606   2.349  0.1447  0.0726  0.5590
 4331TP3     H124812   0.379   1.541   2.324  0.8361 -0.2100 -0.5952
 4331TP3     H224813   0.397   1.667   2.406 -2.1893  1.8918 -2.8932
 4332TP3      O24814   1.633   0.724   9.270  0.8447 -0.3800 -0.0330
 4332TP3     H124815   1.539   0.705   9.274  0.7327  0.1172 -0.2242
 4332TP3     H224816   1.656   0.709   9.178  0.3295  2.2388 -0.6961
 4333TP3      O24817   3.498   0.979   9.929 -0.6287  0.2307 -0.1955
 4333TP3     H124818   3.492   0.885   9.910 -0.9377  0.4587 -1.3244
 4333TP3     H224819   3.555   1.013   9.860  1.0907  0.5850  1.3254
 4334TP3      O24820   0.050   3.678   2.015  0.2959  0.1675 -0.1379
 4334TP3     H124821   0.018   3.632   1.937 -0.1195  1.0941 -0.5461
 4334TP3     H224822  -0.025   3.682   2.074  0.7053 -0.8270  0.4667
 4335TP3      O24823   3.885   2.678   1.885  0.4401 -0.0959  0.5192
 4335TP3     H124824   3.937   2.758   1.879 -1.1753  0.9818 -0.0376
 4335TP3     H224825   3.889   2.639   1.798 -2.3504  1.8447 -0.6247
 4336TP3      O24826   3.774   0.918   1.175  0.2534  0.0700 -0.5419
 4336TP3     H124827   3.754   0.871   1.256  0.3810 -0.2577 -0.6984
 4336TP3     H224828   3.869   0.929   1.177  0.4913 -1.4923 -1.4752
 4337TP3      O24829   3.212   2.649   1.843  0.8750  0.5489 -0.0656
 4337TP3     H124830   3.283   2.690   1.792 -1.6685  2.6025 -2.2553
 4337TP3     H224831   3.166   2.594   1.779 -0.6427  0.7672  0.8109
 4338TP3      O24832   3.781   2.602   8.493  0.2517 -0.1072  0.4479
 4338TP3     H124833   3.810   2.511   8.492  1.2887  0.2016  1.2494
 4338TP3     H224834   3.720   2.607   8.566  0.3681 -0.1092  0.5462
 4339TP3      O24835   0.990   1.143   1.386  0.1460 -0.1571  0.2880
 4339TP3     H124836   0.946   1.124   1.303  0.4413  0.5687 -0.0414
 4339TP3     H224837   1.077   1.104   1.376  0.4537  0.5875 -0.0581
 4340TP3      O24838   4.586   0.433   2.509  0.7933  0.2301 -0.2912
 4340TP3     H124839   4.595   0.527   2.492 -0.9314  0.5223  0.2319
 4340TP3     H224840   4.574   0.394   2.422 -0.9622  0.8412 -0.3676
 4341TP3      O24841   2.830   2.459   2.327 -0.4418  0.4702  0.0453
 4341TP3     H124842   2.752   2.511   2.342 -1.1203 -0.5574  0.1684
 4341TP3     H224843   2.798   2.369   2.314  0.6804  0.0834 -0.2323
 4342TP3      O24844   0.257   1.688   9.909  0.1923 -0.2829 -0.8457
 4342TP3     H124845   0.233   1.751   9.976  2.1928  0.0101 -0.3489
 4342TP3     H224846   0.206   1.714   9.832  0.0113  1.1408 -0.2690
 4343TP3      O24847   1.004   0.828   3.416  0.0299 -0.1741 -0.4020
 4343TP3     H124848   1.089   0.786   3.410  0.0383 -0.1332 -0.5758
 4343TP3     H224849   1.023   0.919   3.439 -0.0461 -0.5747  1.4181
 4344TP3      O24850   1.602   0.671   0.066 -0.0302 -0.0368 -0.3513
 4344TP3     H124851   1.555   0.755   0.064  2.0774  1.2152 -0.3144
 4344TP3     H224852   1.565   0.625   0.142 -1.6936  0.5448 -0.7612
 4345TP3      O24853   0.580   2.684   1.659 -0.5427  0.1930 -0.1763
 4345TP3     H124854   0.575   2.719   1.571 -0.8712 -1.1104 -0.6983
 4345TP3     H224855   0.500   2.633   1.670 -0.3520  0.0612  0.7442
 4346TP3      O24856   4.569   0.371   0.150 -0.6147 -0.2354 -0.2068
 4346TP3     H124857   4.634   0.321   0.200 -2.1348  0.3302  2.5216
 4346TP3     H224858   4.559   0.322   0.069  3.8212  0.1232 -1.2387
 4347TP3      O24859   1.251   2.647   7.288  0.0808  0.8379  0.3856
 4347TP3     H124860   1.252   2.633   7.193 -1.2102 -0.4469  0.5312
 4347TP3     H224861   1.185   2.586   7.321  1.3265  0.3990  2.2580
 4348TP3      O24862   2.400   4.394   1.029  0.4416  0.2294  0.1006
 4348TP3     H124863   2.324   4.363   1.078  0.4628  1.8207  1.2267
 4348TP3     H224864   2.474   4.345   1.065  0.2303  0.2425  0.5592
 4349TP3      O24865   0.584   1.550   0.684  0.6358 -0.4683  0.0274
 4349TP3     H124866   0.535   1.574   0.606  0.0239 -2.1906 -0.1688
 4349TP3     H224867   0.653   1.616   0.690 -0.4901  0.8482 -0.8213
 4350TP3      O24868   2.798   2.209   0.718  0.1690 -0.0011 -0.2560
 4350TP3     H124869   2.745   2.288   0.733  0.3961  0.4802 -1.8446
 4350TP3     H224870   2.884   2.242   0.692  1.0597 -0.7898  1.5252
 4351TP3      O24871   1.607   4.317   1.809  1.0831  0.1534  0.5443
 4351TP3     H124872   1.603   4.340   1.902  2.6550  2.7556  0.0975
 4351TP3     H224873   1.699   4.292   1.795  0.9978  0.3227 -0.3827
 4352TP3      O24874   0.727   0.858   8.604 -0.3809 -0.2109  0.6304
 4352TP3     H124875   0.788   0.930   8.623 -2.9755  2.8965 -1.6782
 4352TP3     H224876   0.665   0.859   8.677 -2.0027  1.9506 -0.6553
 4353TP3      O24877   1.969   0.966   0.558 -0.1849  0.0144 -0.2113
 4353TP3     H124878   1.997   1.037   0.499 -0.2901 -0.8952 -1.3885
 4353TP3     H224879   1.874   0.964   0.548 -0.5147  1.5072  1.9518
 4354TP3      O24880   5.114   2.629   6.762 -0.2541  0.4269  0.6560
 4354TP3     H124881   5.030   2.674   6.759 -0.2185  0.4476 -0.2060
 4354TP3     H224882   5.149   2.636   6.673  0.2127 -0.4259  0.7558
 4355TP3      O24883   4.561   1.463   0.339  0.6019 -0.5907 -0.4287
 4355TP3     H124884   4.549   1.523   0.266  2.3608  0.1322 -0.1796
 4355TP3     H224885   4.500   1.493   0.406  1.6239  1.1436 -0.2074
 4356TP3      O24886   0.780   1.423   9.594 -0.3784  0.3205  0.1929
 4356TP3     H124887   0.844   1.373   9.542 -0.2742  1.0457 -0.3943
 4356TP3     H224888   0.738   1.357   9.649  1.3886 -0.0834  1.1581
 4357TP3      O24889   3.044   0.658   7.536 -0.6030  0.3863 -0.5369
 4357TP3     H124890   3.115   0.639   7.597 -0.4880  1.5268 -0.2913
 4357TP3     H224891   3.050   0.753   7.521 -2.2854  0.5661 -0.2304
 4358TP3      O24892   3.916   4.645   1.162  0.4079 -0.2173  0.4387
 4358TP3     H124893   4.004   4.671   1.137  0.7991 -2.1187 -0.2823
 4358TP3     H224894   3.922   4.624   1.255  0.4833  0.5447  0.6104
 4359TP3      O24895   2.134   2.968   9.892  0.6179  0.0419 -0.0676
 4359TP3     H124896   2.137   3.061   9.917 -1.1163 -0.1553  1.0816
 4359TP3     H224897   2.207   2.957   9.832  0.0345  2.4988 -1.3866
 4360TP3      O24898   3.348   1.946   0.336  0.0291  0.3132  0.1818
 4360TP3     H124899   3.315   2.036   0.337 -2.1290 -0.3726  2.2418
 4360TP3     H224900   3.270   1.892   0.350  1.3322 -1.8683 -0.4184
 4361TP3      O24901   4.365   2.210   0.405 -0.5864 -0.1204  0.2591
 4361TP3     H124902   4.407   2.132   0.369 -0.3261 -0.1813  0.6780
 4361TP3     H224903   4.376   2.277   0.338 -1.2305 -0.5653 -0.3049
 4362TP3      O24904   4.956   4.387   2.183 -0.4240  0.4220  0.1054
 4362TP3     H124905   5.000   4.337   2.251 -1.0849  0.0006  0.2367
 4362TP3     H224906   4.992   4.354   2.101  1.0719  1.5863  0.2475
 4363TP3      O24907   1.586   2.615   1.562  0.3103 -0.0748  0.4471
 4363TP3     H124908   1.586   2.696   1.613 -0.1125  0.2585 -0.0683
 4363TP3     H224909   1.506   2.620   1.509 -0.5636 -1.5701  1.5461
 4364TP3      O24910   4.361   1.385   1.626  0.1550  0.0084 -0.1496
 4364TP3     H124911   4.379   1.328   1.701 -0.6332 -0.2628 -0.1528
 4364TP3     H224912   4.437   1.373   1.569  0.4336 -0.3242  0.2784
 4365TP3      O24913   3.231   3.053   1.732 -0.3008  0.5454 -0.2925
 4365TP3     H124914   3.299   3.078   1.669  0.6306  1.1247  0.8993
 4365TP3     H224915   3.267   2.978   1.778 -0.7599  0.4357 -0.1026
 4366TP3      O24916   5.174   3.193   0.534 -0.3923 -0.2023  0.2091
 4366TP3     H124917   5.138   3.185   0.445 -2.2475 -0.9891  0.9893
 4366TP3     H224918   5.260   3.151   0.529 -1.3750 -2.2259 -0.7180
 4367TP3      O24919   0.528   4.067   2.172 -0.0678  0.6031  0.1200
 4367TP3     H124920   0.502   4.094   2.260  0.2875  2.2523 -0.2409
 4367TP3     H224921   0.612   4.024   2.183 -0.2896  0.2943  0.6439
 4368TP3      O24922   1.535   1.936   2.566 -0.0401  0.3576 -0.1398
 4368TP3     H124923   1.453   1.897   2.538 -0.3497 -0.3142  1.5860
 4368TP3     H224924   1.584   1.864   2.606  1.2698  0.8131 -0.8695
 4369TP3      O24925   2.210   3.723   0.283 -0.0637 -0.1976 -0.2274
 4369TP3     H124926   2.133   3.778   0.275 -0.1355  0.1342  2.1033
 4369TP3     H224927   2.284   3.784   0.279 -0.0246 -0.2355 -0.0703
 4370TP3      O24928   1.727   3.619   9.813  0.3046  0.0009  0.0632
 4370TP3     H124929   1.733   3.694   9.871  0.6977 -0.0783  0.1310
 4370TP3     H224930   1.652   3.638   9.756 -0.8839 -0.4966  1.3999
 4371TP3      O24931   5.013   2.145   0.202  0.1338  0.1001  0.7650
 4371TP3     H124932   4.994   2.052   0.189 -0.9856  0.4427 -0.1505
 4371TP3     H224933   4.956   2.171   0.274  1.9486 -0.3607  2.4833
 4372TP3      O24934   2.908   0.701   7.944  0.1491 -0.2374  0.8280
 4372TP3     H124935   2.913   0.611   7.911  2.4703  1.3389 -4.0189
 4372TP3     H224936   2.988   0.713   7.994  1.3990 -0.1669 -1.0777
 4373TP3      O24937   4.772   2.300   7.845 -0.7841 -0.4190  0.4376
 4373TP3     H124938   4.854   2.257   7.870 -0.5089  0.5197  1.2083
 4373TP3     H224939   4.706   2.231   7.853  0.1801 -1.8763 -2.4591
 4374TP3      O24940   4.630   2.447   9.411  0.1556  0.2017 -0.3612
 4374TP3     H124941   4.599   2.382   9.348  2.0158 -0.5298 -0.5994
 4374TP3     H224942   4.641   2.527   9.359  0.4726 -0.0558 -0.6963
 4375TP3      O24943   2.193   3.251   1.741  0.3739 -0.3787  0.0855
 4375TP3     H124944   2.238   3.173   1.709  1.2632 -0.3716  1.2303
 4375TP3     H224945   2.110   3.219   1.776  0.6110 -0.7791  0.2861
 4376TP3      O24946   3.758   1.347   1.422 -0.0994  0.0275  0.2879
 4376TP3     H124947   3.823   1.281   1.445  0.6507  0.5130 -0.4060
 4376TP3     H224948   3.785   1.378   1.336  0.3840  2.2396  1.1865
 4377TP3      O24949   1.213   1.951   2.886  0.1587 -0.0567 -0.0186
 4377TP3     H124950   1.234   1.860   2.907  0.9533  0.0141 -0.4371
 4377TP3     H224951   1.170   1.985   2.964  0.0942 -0.7174  0.2384
 4378TP3      O24952   2.460   5.210   2.800 -0.9448 -1.0037 -0.5358
 4378TP3     H124953   2.440   5.259   2.720  0.8637  0.5647 -0.1245
 4378TP3     H224954   2.454   5.119   2.774  0.6837 -0.5652 -2.8547
 4379TP3      O24955   0.198   5.282   1.490 -0.2215 -0.0639  0.1879
 4379TP3     H124956   0.202   5.332   1.408  0.8861 -0.9587 -0.3272
 4379TP3     H224957   0.288   5.284   1.524 -0.4151 -0.7176  0.7632
 4380TP3      O24958   1.665   4.539   7.886 -0.2739 -0.2228  0.3818
 4380TP3     H124959   1.741   4.545   7.944  0.3009  0.2691 -0.3917
 4380TP3     H224960   1.663   4.624   7.841  1.0706 -1.5866 -2.4587
 4381TP3      O24961   0.868   1.459   0.481 -0.5746  0.1393 -0.4400
 4381TP3     H124962   0.852   1.533   0.422  1.7862  0.1020 -1.2672
 4381TP3     H224963   0.892   1.499   0.564  0.2835  0.3248 -0.7651
 4382TP3      O24964   1.469   0.566   2.234  0.0514 -0.0278 -0.6861
 4382TP3     H124965   1.416   0.489   2.215 -0.1906  0.0658 -0.3970
 4382TP3     H224966   1.506   0.591   2.150  0.0107 -0.3731 -0.8057
 4383TP3      O24967   1.038   0.893   8.850 -0.0427  0.4733  0.5403
 4383TP3     H124968   0.991   0.952   8.909 -1.7118 -0.3522  0.0729
 4383TP3     H224969   0.999   0.807   8.865  0.4888 -0.0159 -0.7433
 4384TP3      O24970   3.131   0.543   6.569  0.2702  0.4490  0.7937
 4384TP3     H124971   3.129   0.633   6.602  1.6260  0.8074 -0.0474
 4384TP3     H224972   3.050   0.534   6.519 -0.4527  0.7968  1.8610
 4385TP3      O24973   4.817   4.512   9.314  0.5945 -0.4646 -0.3291
 4385TP3     H124974   4.790   4.510   9.222  1.2446  0.6349 -0.5629
 4385TP3     H224975   4.770   4.439   9.354 -1.6137  0.4743 -1.0300
 4386TP3      O24976   4.702   0.931   9.991 -0.1375  0.5096 -0.1711
 4386TP3     H124977   4.633   0.923  10.057  0.6472  0.4160  0.6635
 4386TP3     H224978   4.733   0.841   9.979  1.8806  0.8530  1.7424
 4387TP3      O24979   3.656   1.721   8.423 -0.2596  0.1147 -0.1657
 4387TP3     H124980   3.629   1.722   8.515 -1.0657 -1.1039 -0.3703
 4387TP3     H224981   3.588   1.670   8.379 -0.0595  0.9641 -1.5065
 4388TP3      O24982   4.121   5.268   0.653  0.0541  0.0762 -0.3327
 4388TP3     H124983   4.096   5.360   0.643 -0.5667  0.0528  0.8406
 4388TP3     H224984   4.038   5.221   0.660  0.3356 -0.2095  1.9052
 4389TP3      O24985   2.737   3.024   1.274  0.2910 -0.0056 -0.4743
 4389TP3     H124986   2.826   2.992   1.261  0.0718  0.2967 -3.3457
 4389TP3     H224987   2.740   3.115   1.243 -0.6017  0.6711  1.2796
 4390TP3      O24988   2.473   3.725   0.684  0.1033  0.0486 -0.2461
 4390TP3     H124989   2.504   3.686   0.602  0.4819 -0.1809  0.0003
 4390TP3     H224990   2.417   3.658   0.723  0.1825  0.0270 -0.1663
 4391TP3      O24991   1.351   0.345   2.106  0.2061  0.0618 -0.0011
 4391TP3     H124992   1.356   0.249   2.103  1.1123  0.0932 -0.0147
 4391TP3     H224993   1.321   0.371   2.019  1.9542 -0.1369 -0.7087
 4392TP3      O24994   5.115   0.932   2.210 -0.5554  0.1555 -0.2711
 4392TP3     H124995   5.025   0.960   2.194 -1.1558 -0.3756  1.8205
 4392TP3     H224996   5.106   0.855   2.266  1.2014 -0.1875 -0.4157
 4393TP3      O24997   3.478   2.088   2.215 -0.3091  0.0502  0.0312
 4393TP3     H124998   3.563   2.051   2.237  1.3869  1.7425 -2.9646
 4393TP3     H224999   3.452   2.138   2.292  1.0870 -1.0330  1.2383
 4394TP3      O25000   0.159   2.274   2.656 -0.1698 -0.2574  0.8041
 4394TP3     H125001   0.219   2.312   2.592 -1.2388 -0.4270 -0.3142
 4394TP3     H225002   0.202   2.290   2.741 -0.3567  3.1029  0.3885
 4395TP3      O25003   3.417   2.600   0.996 -0.9599 -0.1943 -0.3062
 4395TP3     H125004   3.427   2.538   0.924  1.5204 -0.2518  0.0010
 4395TP3     H225005   3.390   2.545   1.071 -0.7948 -0.5666 -0.5178
 4396TP3      O25006   3.773   2.648   7.542  0.2849 -0.2292 -0.2399
 4396TP3     H125007   3.756   2.731   7.586 -0.5930 -0.1339 -0.7517
 4396TP3     H225008   3.740   2.582   7.603  0.0665 -0.1518 -0.2738
 4397TP3      O25009   4.394   3.475   1.926  0.3126 -0.0313 -0.2752
 4397TP3     H125010   4.346   3.504   1.848  0.0318  2.2286  0.6474
 4397TP3     H225011   4.425   3.557   1.966 -0.2612 -1.0227  2.4097
 4398TP3      O25012   3.090   1.192   2.865 -0.8304  0.1468 -0.1420
 4398TP3     H125013   3.136   1.201   2.948 -1.7214  0.1173  0.3667
 4398TP3     H225014   2.997   1.195   2.888 -1.0927  0.5014 -1.1748
 4399TP3      O25015   3.370   4.228   1.420  0.2136  0.0870 -0.2504
 4399TP3     H125016   3.463   4.232   1.398  0.0667  0.3560 -0.8573
 4399TP3     H225017   3.351   4.313   1.458  0.2422 -0.0113 -0.0159
 4400TP3      O25018   4.256   2.758   1.793  0.2037  0.2668  0.1309
 4400TP3     H125019   4.227   2.714   1.713 -0.9803 -1.4636  1.4521
 4400TP3     H225020   4.351   2.751   1.792  0.0916 -1.4676 -0.1964
 4401TP3      O25021   1.118   1.626   2.633  0.0101 -0.4437 -0.6763
 4401TP3     H125022   1.035   1.652   2.593 -0.1866  0.0871  0.0468
 4401TP3     H225023   1.097   1.616   2.726  0.6088 -0.9614 -0.5924
 4402TP3      O25024   2.977   2.065   3.276 -0.0499 -0.0188  0.1347
 4402TP3     H125025   2.945   2.046   3.188  1.1647 -2.7541  0.1883
 4402TP3     H225026   3.068   2.094   3.262 -0.1836  0.5732  0.4482
 4403TP3      O25027   2.297   0.932   2.293  0.1747 -0.1978 -0.3958
 4403TP3     H125028   2.315   0.856   2.239 -2.7048  0.0255 -1.8583
 4403TP3     H225029   2.259   0.896   2.373  0.9453 -0.3573 -0.0898
 4404TP3      O25030   0.807   0.133   7.162 -0.4793 -0.2447 -0.1991
 4404TP3     H125031   0.835   0.207   7.109 -1.1393 -0.8190 -1.3885
 4404TP3     H225032   0.757   0.078   7.102 -2.0334 -0.4825  1.2132
 4405TP3      O25033   4.754   5.252   7.758 -0.0072  0.7886 -0.5212
 4405TP3     H125034   4.736   5.241   7.851 -3.1404  1.1546 -0.9922
 4405TP3     H225035   4.785   5.343   7.751  0.1136  0.8044  0.1318
 4406TP3      O25036   0.312   1.892   2.898 -0.5636  0.9429  0.6056
 4406TP3     H125037   0.340   1.966   2.953  1.6073  1.3778 -0.9491
 4406TP3     H225038   0.359   1.817   2.935 -0.5618  0.8804  0.4757
 4407TP3      O25039   1.199   0.267   1.655 -0.4319 -0.2624 -0.6888
 4407TP3     H125040   1.251   0.205   1.604  0.5173 -0.5589  0.5810
 4407TP3     H225041   1.265   0.318   1.703 -1.2656  0.5448 -0.3840
 4408TP3      O25042   4.654   3.464   9.290  0.0363  0.5938  0.0051
 4408TP3     H125043   4.719   3.409   9.332  0.6802  0.2269 -1.4110
 4408TP3     H225044   4.570   3.434   9.324  0.4470 -0.6285 -0.0351
 4409TP3      O25045   0.632   2.331   2.442  0.3216  0.0159  0.2406
 4409TP3     H125046   0.720   2.333   2.480  0.9360  0.3968 -1.1231
 4409TP3     H225047   0.647   2.340   2.348 -1.0720 -1.6809 -0.1901
 4410TP3      O25048   3.353   0.560   0.783  0.6581  0.1266  0.1748
 4410TP3     H125049   3.348   0.509   0.864  2.1033 -1.3199 -0.5863
 4410TP3     H225050   3.433   0.613   0.793  0.2462  0.7703  0.1302
 4411TP3      O25051   2.119   0.633   0.099  0.7344  0.3229 -0.2201
 4411TP3     H125052   2.174   0.704   0.132 -2.3597  2.7571  0.2218
 4411TP3     H225053   2.075   0.671   0.023 -0.8816 -1.2048 -0.0980
 4412TP3      O25054   3.461   0.567   8.701  0.2646 -0.3481  0.4217
 4412TP3     H125055   3.424   0.581   8.614  0.0287 -0.3480  0.5200
 4412TP3     H225056   3.532   0.504   8.687  0.0936 -0.5078  0.2573
 4413TP3      O25057   1.708   0.561   2.430 -0.1080 -0.0987 -0.0133
 4413TP3     H125058   1.634   0.564   2.369 -0.5948  2.1061  0.5987
 4413TP3     H225059   1.751   0.646   2.418  1.2985 -0.6669  0.8963
 4414TP3      O25060   0.270   0.154   9.974 -0.3782 -0.3963  0.0806
 4414TP3     H125061   0.186   0.186  10.006 -0.2696 -0.9757  1.0023
 4414TP3     H225062   0.316   0.125  10.053  1.5084  1.7263 -0.1195
 4415TP3      O25063   1.437   0.620   0.293  0.1453  0.4116 -0.2390
 4415TP3     H125064   1.460   0.531   0.319  0.9993  1.5348  3.5145
 4415TP3     H225065   1.341   0.622   0.297  0.1332 -0.2815 -0.1280
 4416TP3      O25066   1.445   3.347   1.686  0.3118 -0.5219 -0.0785
 4416TP3     H125067   1.454   3.380   1.776 -0.8768  1.0434 -0.4983
 4416TP3     H225068   1.535   3.326   1.660  0.9426  0.8607  0.8252
 4417TP3      O25069   0.122   2.324   3.682  0.1333  0.0161  0.3136
 4417TP3     H125070   0.144   2.233   3.702 -0.9440 -0.3557 -0.1173
 4417TP3     H225071   0.098   2.323   3.590 -2.0199  0.2820  0.8141
 4418TP3      O25072   1.089   4.722   0.214 -0.4116 -0.1863  0.1690
 4418TP3     H125073   1.074   4.633   0.246  0.8465 -0.3821  0.2742
 4418TP3     H225074   1.132   4.766   0.287  0.0429  0.1551 -0.2993
 4419TP3      O25075   0.965   3.817   0.786  0.2611 -0.4236  0.8371
 4419TP3     H125076   0.918   3.785   0.864  0.8069  0.5537  1.5903
 4419TP3     H225077   0.967   3.912   0.797  0.5539 -0.2868 -0.2751
 4420TP3      O25078   4.626   4.316   8.138  0.1382  0.1304 -0.2194
 4420TP3     H125079   4.659   4.403   8.159 -2.0787  1.4215 -1.6654
 4420TP3     H225080   4.650   4.302   8.046 -0.7127 -0.1835 -0.4032
 4421TP3      O25081   4.231   2.183   0.003 -0.2497 -0.0668  0.1396
 4421TP3     H125082   4.245   2.233   0.084  1.6546 -0.9948  0.4426
 4421TP3     H225083   4.283   2.104   0.015  1.1825  0.3743 -2.5440
 4422TP3      O25084   1.768   3.500   0.711 -0.0087  0.3035 -0.4510
 4422TP3     H125085   1.821   3.577   0.693  1.3025 -0.7522 -1.3764
 4422TP3     H225086   1.734   3.473   0.625  3.1258 -2.5679 -1.0259
 4423TP3      O25087   2.801   1.024   8.802 -0.4155 -0.1949 -0.7026
 4423TP3     H125088   2.762   0.947   8.844 -0.4794  0.4154  0.3830
 4423TP3     H225089   2.747   1.038   8.724 -0.8079 -0.8619 -0.5595
 4424TP3      O25090   2.879   4.266   7.588  0.3169  0.1530  0.5159
 4424TP3     H125091   2.805   4.253   7.648  1.1012  0.4826  1.5896
 4424TP3     H225092   2.908   4.356   7.604 -2.6985  2.3681 -4.1584
 4425TP3      O25093   3.366   4.975   0.768 -0.4259 -0.2214  0.0665
 4425TP3     H125094   3.455   4.953   0.739 -0.5035  0.5777 -0.8062
 4425TP3     H225095   3.374   5.064   0.802 -0.5061 -0.8419  1.8058
 4426TP3      O25096   3.358   3.784   2.426 -0.2959 -0.0340  0.2141
 4426TP3     H125097   3.275   3.767   2.382 -1.2141  0.5030  1.6719
 4426TP3     H225098   3.394   3.861   2.382 -0.6153 -0.2035 -0.3497
 4427TP3      O25099   2.058   2.371   9.085  0.5913  0.0175  0.2275
 4427TP3     H125100   1.984   2.409   9.133  0.6159  2.2195 -1.3211
 4427TP3     H225101   2.017   2.320   9.015  0.5530 -0.5470  0.6578
 4428TP3      O25102   1.278   2.276   0.339  0.0867  0.3225  0.7823
 4428TP3     H125103   1.326   2.359   0.328  0.9535 -0.1248  1.0505
 4428TP3     H225104   1.335   2.223   0.395  1.0814 -1.6511 -1.8846
 4429TP3      O25105   2.476   4.870   7.556 -0.4020  0.3939 -0.3307
 4429TP3     H125106   2.539   4.917   7.610 -1.3451  0.6076  0.6035
 4429TP3     H225107   2.483   4.912   7.470  1.0000  0.1506 -0.3527
 4430TP3      O25108   3.306   3.001   8.093 -0.6492 -0.0503 -0.1318
 4430TP3     H125109   3.397   2.995   8.123 -0.0858  0.1775 -1.6490
 4430TP3     H225110   3.268   3.071   8.146  0.3706  0.5398 -0.1431
 4431TP3      O25111   3.749   4.517   0.722  0.4962  0.4038 -0.2530
 4431TP3     H125112   3.821   4.502   0.660 -0.3867 -0.4491 -1.0951
 4431TP3     H225113   3.782   4.484   0.806  1.6584  1.4564 -0.2490
 4432TP3      O25114   1.369   0.889   7.254  0.2071 -0.4523 -0.1348
 4432TP3     H125115   1.448   0.935   7.283 -0.6258  0.2441  1.0943
 4432TP3     H225116   1.369   0.808   7.305 -0.8249  0.3997  1.2863
 4433TP3      O25117   0.035   5.231   3.338  0.1165 -0.6883 -0.2139
 4433TP3     H125118  -0.002   5.318   3.320  1.0310  0.2165  1.8263
 4433TP3     H225119  -0.013   5.201   3.415  2.2184 -0.3038  1.3396
 4434TP3      O25120   0.278   3.046   6.923  0.1936 -0.2316  1.1028
 4434TP3     H125121   0.232   2.973   6.965  0.3100  0.5365  2.6711
 4434TP3     H225122   0.370   3.020   6.925  0.1325 -0.4830  0.7070
 4435TP3      O25123   3.874   2.888   3.318 -0.4411  0.1509  0.3310
 4435TP3     H125124   3.788   2.852   3.338 -0.9244  1.0993  0.0309
 4435TP3     H225125   3.930   2.812   3.305 -1.5994 -0.5121 -1.0627
 4436TP3      O25126   5.085   5.273   1.543  0.0373  0.9962  0.5613
 4436TP3     H125127   5.092   5.315   1.457 -0.3853  1.3995  0.7180
 4436TP3     H225128   5.006   5.220   1.537  0.7126  0.0085  0.2782
 4437TP3      O25129   3.578   1.984   9.271  0.1610 -0.3001  0.0328
 4437TP3     H125130   3.555   1.893   9.288 -0.4773  0.1173  1.5969
 4437TP3     H225131   3.507   2.017   9.216 -0.5802 -0.2921  0.9571
 4438TP3      O25132   0.464   4.361   0.564 -0.0517  0.2853  0.5137
 4438TP3     H125133   0.409   4.384   0.639  0.3135  0.4032  0.7464
 4438TP3     H225134   0.416   4.395   0.488 -1.5573 -1.8147  0.4475
 4439TP3      O25135   3.753   4.937   9.678 -0.4385  0.1828  0.1818
 4439TP3     H125136   3.750   4.844   9.701 -0.5915 -0.0901 -0.8879
 4439TP3     H225137   3.662   4.959   9.656 -0.4374  0.6449  0.5956
 4440TP3      O25138   0.726   1.707   0.999 -0.2060 -0.3988  0.3151
 4440TP3     H125139   0.698   1.621   1.031 -0.6416  0.3324  1.9847
 4440TP3     H225140   0.645   1.748   0.969 -0.3582  0.2388  1.5497
 4441TP3      O25141   2.451   2.655   9.342  0.4919 -0.1182 -0.2592
 4441TP3     H125142   2.383   2.655   9.409  0.2343  1.7385 -0.4749
 4441TP3     H225143   2.422   2.589   9.278  0.5996 -1.6996  1.2562
 4442TP3      O25144   0.859   0.358   9.836 -0.1167 -0.1498 -0.0065
 4442TP3     H125145   0.823   0.349   9.748  1.9213 -1.6331 -0.7597
 4442TP3     H225146   0.907   0.277   9.851 -0.5360 -0.0162  2.5780
 4443TP3      O25147   2.178   3.042   0.890 -0.1331 -0.0165 -0.1509
 4443TP3     H125148   2.146   3.124   0.852  0.0152  0.9344  1.7060
 4443TP3     H225149   2.099   2.987   0.896 -0.5816  0.6629  0.2863
 4444TP3      O25150   2.500   1.603   2.906  0.3709  0.0787  0.0342
 4444TP3     H125151   2.408   1.585   2.927  1.1753 -1.1919  2.8893
 4444TP3     H225152   2.511   1.696   2.925 -0.1638  0.0743  0.3842
 4445TP3      O25153   0.797   1.584   8.384 -0.4371  0.1786 -0.2737
 4445TP3     H125154   0.825   1.532   8.309 -0.3185 -1.3113  0.7557
 4445TP3     H225155   0.850   1.551   8.457 -1.6694  0.4658  0.7865
 4446TP3      O25156   3.494   4.947   9.201 -0.4284 -0.4314  0.1964
 4446TP3     H125157   3.530   5.016   9.256  0.0520  0.6308 -1.3813
 4446TP3     H225158   3.402   4.970   9.190 -0.8689 -1.3955  1.6213
 4447TP3      O25159   1.393   3.116   0.518 -0.5370  0.1352 -0.1786
 4447TP3     H125160   1.388   3.211   0.534 -0.5800  0.1401 -0.2239
 4447TP3     H225161   1.397   3.078   0.606  0.1890  0.2218 -0.1700
 4448TP3      O25162   0.666   1.262   0.488 -0.4309  0.0862 -0.2987
 4448TP3     H125163   0.704   1.225   0.567 -1.6020  0.8364  0.6350
 4448TP3     H225164   0.729   1.329   0.460 -0.3430  0.2996  0.3941
 4449TP3      O25165   3.904   0.644   9.514  0.0193  0.5922 -0.1670
 4449TP3     H125166   3.934   0.554   9.498 -1.0591  0.1586  0.1233
 4449TP3     H225167   3.902   0.652   9.609  0.8445  1.1887 -0.1956
 4450TP3      O25168   5.004   3.119   2.047 -0.0317 -0.5260  0.3688
 4450TP3     H125169   4.957   3.068   2.113  0.9552  0.3625  1.8176
 4450TP3     H225170   5.086   3.073   2.033 -0.3472 -0.8608 -0.4836
 4451TP3      O25171   4.069   3.987   1.036  0.4439  0.1042 -0.2236
 4451TP3     H125172   4.059   3.999   0.942  0.4402  0.6406 -0.1585
 4451TP3     H225173   4.163   3.976   1.049  0.7413  2.3451 -0.0546
 4452TP3      O25174   3.222   4.881  10.027 -0.0502  0.3612 -0.0504
 4452TP3     H125175   3.183   4.893  10.113 -0.5123 -0.4521 -0.1469
 4452TP3     H225176   3.182   4.801   9.992  0.9411  0.0744 -0.5671
 4453TP3      O25177   2.143   1.644   1.796 -0.7254 -0.8411  0.3613
 4453TP3     H125178   2.084   1.719   1.800 -0.3454 -0.4129 -1.3332
 4453TP3     H225179   2.124   1.594   1.875 -0.8957  1.1022  1.6060
 4454TP3      O25180   2.168   2.080   3.212  0.0882  0.3465 -0.2924
 4454TP3     H125181   2.195   2.153   3.158 -0.3196 -0.6495 -1.9134
 4454TP3     H225182   2.141   2.012   3.150  0.9163 -1.3732  1.1104
 4455TP3      O25183   0.970   5.094   0.818 -0.4984  0.3405  0.5978
 4455TP3     H125184   0.965   5.027   0.750 -1.5065  0.0019  0.9874
 4455TP3     H225185   1.027   5.162   0.781  1.0569 -0.9831  0.4300
 4456TP3      O25186   1.872   1.387   1.799  0.4097  0.1915 -0.0748
 4456TP3     H125187   1.855   1.474   1.764  0.7407  0.0177 -0.6899
 4456TP3     H225188   1.862   1.328   1.723  0.6088 -0.2523  0.2375
 4457TP3      O25189   2.066   2.763   9.476 -0.0642 -0.5341 -0.3154
 4457TP3     H125190   2.103   2.846   9.505 -0.3894 -0.8615  1.0835
 4457TP3     H225191   2.128   2.732   9.409  0.3523  0.5526 -0.4499
 4458TP3      O25192   2.226   1.401   9.971  0.5179 -0.2262 -0.1477
 4458TP3     H125193   2.275   1.417  10.051 -1.3407  0.2415  0.9667
 4458TP3     H225194   2.278   1.442   9.902  0.5715  2.3514  1.2976
 4459TP3      O25195   3.968   4.961   1.398  0.5633 -0.5293  0.2706
 4459TP3     H125196   3.887   4.927   1.361  0.5473 -1.0069  0.7378
 4459TP3     H225197   3.942   5.041   1.444  0.4306 -0.4441  0.0478
 4460TP3      O25198   1.411   0.357   8.184  0.0654 -0.5580 -0.0863
 4460TP3     H125199   1.481   0.301   8.219 -1.4309 -2.7748 -0.4301
 4460TP3     H225200   1.356   0.377   8.260 -0.4784 -1.2524 -0.2820
 4461TP3      O25201   1.006   2.287   3.106 -0.5166  0.0603 -0.2798
 4461TP3     H125202   0.972   2.212   3.056  0.7263 -1.1160  0.5934
 4461TP3     H225203   0.995   2.262   3.198  1.7442  0.0435  0.0379
 4462TP3      O25204   2.309   2.907   2.312  0.2297  0.1945 -0.4181
 4462TP3     H125205   2.355   2.860   2.381  2.1569  0.8939 -1.1476
 4462TP3     H225206   2.285   2.991   2.351  1.6149  0.7234 -0.6596
 4463TP3      O25207   0.378   1.884   1.390  0.2732 -0.2033  0.2643
 4463TP3     H125208   0.333   1.967   1.380  2.3406  0.7868 -1.7295
 4463TP3     H225209   0.406   1.860   1.302  1.3753 -2.0598  1.0430
 4464TP3      O25210   0.011   2.018   7.014  0.1469  0.7221 -0.0859
 4464TP3     H125211   0.075   2.066   6.962  1.8665 -0.8886  0.4101
 4464TP3     H225212  -0.041   1.969   6.950  1.7789 -0.6864 -0.4086
 4465TP3      O25213   1.000   4.039   2.277 -0.0561  0.2763  0.2463
 4465TP3     H125214   1.037   4.006   2.358 -0.5150  0.6114  0.5979
 4465TP3     H225215   0.938   4.107   2.305  1.4535  2.0346 -0.4812
 4466TP3      O25216   4.212   4.697   0.401 -0.3064 -0.1207  0.3796
 4466TP3     H125217   4.246   4.642   0.471 -0.3370  0.0780  0.5500
 4466TP3     H225218   4.127   4.727   0.433 -0.1935  0.2055  0.3829
 4467TP3      O25219   0.932   2.088   6.536  0.0986 -0.2912 -0.2231
 4467TP3     H125220   0.904   1.996   6.533 -0.1072 -0.2852  1.1927
 4467TP3     H225221   0.881   2.126   6.607  0.2533  0.9075 -0.7434
 4468TP3      O25222   0.301   4.657   2.491  0.2491 -0.3728 -0.2061
 4468TP3     H125223   0.375   4.712   2.465 -0.5128 -0.3954 -2.7204
 4468TP3     H225224   0.337   4.569   2.497  1.3989  0.1843  3.4803
 4469TP3      O25225   3.962   5.053   1.806  0.1841 -0.1098 -0.2533
 4469TP3     H125226   3.878   5.063   1.850 -0.4405 -2.1024 -0.8945
 4469TP3     H225227   3.983   5.141   1.775 -1.5902  0.4602  0.0353
 4470TP3      O25228   3.118   3.234   7.392  0.2793  0.5650 -0.2269
 4470TP3     H125229   3.165   3.299   7.339  1.0960  0.3873  0.2701
 4470TP3     H225230   3.033   3.275   7.410  0.6619  1.3605 -0.1885
 4471TP3      O25231   3.559   4.179   9.334 -0.3976  0.5241  0.2745
 4471TP3     H125232   3.619   4.253   9.347  0.6213 -0.4298  1.1448
 4471TP3     H225233   3.496   4.211   9.270 -0.2536  2.3202  0.9701
 4472TP3      O25234   0.549   3.889   9.614 -0.6924  0.1158 -0.0178
 4472TP3     H125235   0.491   3.813   9.619  0.3291 -0.5810  2.3922
 4472TP3     H225236   0.613   3.866   9.547 -0.7899 -0.8392  0.2137
 4473TP3      O25237   3.328   5.222   2.855  0.0556 -0.1255  0.0781
 4473TP3     H125238   3.371   5.253   2.775  1.4482 -0.6911  0.5878
 4473TP3     H225239   3.354   5.284   2.922 -0.6928  0.0541  0.2102
 4474TP3      O25240   4.955   4.770   8.390  0.3411 -0.0377  0.3341
 4474TP3     H125241   4.996   4.705   8.447  0.0663 -1.0913 -0.6337
 4474TP3     H225242   4.986   4.854   8.423  1.5005 -0.7068  0.9998
 4475TP3      O25243   1.190   0.895   8.411 -0.0123 -0.3959  0.2123
 4475TP3     H125244   1.108   0.875   8.366  0.2575  1.0335 -1.0177
 4475TP3     H225245   1.250   0.826   8.382 -0.4063 -0.6621  0.0132
 4476TP3      O25246   5.249   1.384   1.922 -0.1001 -0.2887  0.5653
 4476TP3     H125247   5.338   1.403   1.950 -0.0585 -0.6744  0.6998
 4476TP3     H225248   5.208   1.344   1.999  0.7375 -3.6752 -0.5952
 4477TP3      O25249   2.615   4.675   7.259 -0.3320 -0.3224 -0.1445
 4477TP3     H125250   2.703   4.704   7.234 -0.5371  1.0937  0.6387
 4477TP3     H225251   2.615   4.581   7.243  0.3826  0.0643 -2.8721
 4478TP3      O25252   4.224   4.504   2.298  1.0849 -0.3491  0.0902
 4478TP3     H125253   4.172   4.516   2.218 -0.6010 -0.5803  1.1008
 4478TP3     H225254   4.192   4.422   2.335  0.8341  0.4646  1.7281
 4479TP3      O25255   3.188   1.430   0.375 -0.1371 -0.5751  0.0024
 4479TP3     H125256   3.181   1.516   0.417 -2.5335 -1.0034  0.6313
 4479TP3     H225257   3.269   1.393   0.411  0.7501  1.2563 -0.0131
 4480TP3      O25258   2.777   4.426   3.520 -1.2553  0.0647  0.1025
 4480TP3     H125259   2.708   4.481   3.557 -0.8123  0.8959 -0.2657
 4480TP3     H225260   2.806   4.474   3.442  0.9321  0.6325  1.1976
 4481TP3      O25261   0.115   4.844   1.826 -0.1362 -0.2635  0.9097
 4481TP3     H125262   0.040   4.790   1.853 -0.1953 -1.5720 -1.5795
 4481TP3     H225263   0.191   4.789   1.843  0.1950  0.5590  2.2240
 4482TP3      O25264   2.621   1.475   3.127  0.2536  0.9182 -0.1095
 4482TP3     H125265   2.565   1.524   3.067  0.5645  0.6188 -0.6481
 4482TP3     H225266   2.704   1.523   3.127  0.1888  1.0340  0.2425
 4483TP3      O25267   0.612   4.856   2.497 -0.3127  0.5345 -0.0088
 4483TP3     H125268   0.641   4.897   2.415 -0.9932 -0.7934 -0.9413
 4483TP3     H225269   0.600   4.930   2.557  2.5787  1.3623 -0.2860
 4484TP3      O25270   4.121   4.457   9.350 -0.0150 -0.7367 -0.5808
 4484TP3     H125271   4.099   4.550   9.350  1.1265 -0.4503 -0.5103
 4484TP3     H225272   4.071   4.420   9.277  0.4008  0.1579 -1.3344
 4485TP3      O25273   0.024   2.178   2.983  0.9507 -0.4672  0.1755
 4485TP3     H125274   0.014   2.091   2.944 -0.6750  0.9271 -2.8987
 4485TP3     H225275   0.108   2.210   2.952 -0.1703  0.4855 -2.1129
 4486TP3      O25276   5.243   2.145   0.930 -0.3794 -0.0036 -0.1328
 4486TP3     H125277   5.246   2.215   0.865 -0.6590 -1.1060 -1.3816
 4486TP3     H225278   5.205   2.071   0.883 -0.2370 -0.9481  1.1930
 4487TP3      O25279   3.080   3.593   9.371 -0.2197  0.2270 -0.0988
 4487TP3     H125280   3.156   3.646   9.347 -0.7283 -0.3674 -3.5225
 4487TP3     H225281   3.009   3.629   9.319 -1.3995 -1.5652  0.1999
 4488TP3      O25282   0.913   1.627   6.807 -0.7104  0.2039 -0.3170
 4488TP3     H125283   0.894   1.559   6.742 -0.0127  0.7053 -1.0701
 4488TP3     H225284   0.997   1.664   6.778  0.4994 -0.6958  1.7992
 4489TP3      O25285   2.820   1.779   3.413 -0.2022 -0.0117 -0.1683
 4489TP3     H125286   2.887   1.844   3.437  0.6527  0.0007 -2.3578
 4489TP3     H225287   2.817   1.782   3.318 -2.2835 -1.1106 -0.1955
 4490TP3      O25288   3.106   0.769   3.283  0.5374 -0.2232 -0.4780
 4490TP3     H125289   3.071   0.835   3.223  0.3345 -0.5097 -0.6716
 4490TP3     H225290   3.032   0.745   3.338  0.2598 -1.2837 -1.2888
 4491TP3      O25291   1.117   1.923   3.160  0.5539  0.1212  0.2378
 4491TP3     H125292   1.062   1.957   3.231 -0.4652  0.2600 -0.5919
 4491TP3     H225293   1.199   1.899   3.203 -0.5243 -1.1264  1.7240
 4492TP3      O25294   4.515   2.281   9.210 -0.3494  0.0864  0.9760
 4492TP3     H125295   4.469   2.222   9.270  1.4369 -2.2147  0.2635
 4492TP3     H225296   4.455   2.293   9.137 -1.2796  0.2906  1.7555
 4493TP3      O25297   5.249   4.199   7.348  0.0818 -0.2754  0.7192
 4493TP3     H125298   5.294   4.165   7.271 -0.8163 -0.6072  0.3292
 4493TP3     H225299   5.319   4.239   7.400  0.8093 -0.6831  0.0870
 4494TP3      O25300   2.889   3.490   9.104 -0.5488 -0.3139 -0.5790
 4494TP3     H125301   2.861   3.488   9.196 -1.5846  2.7681 -0.7091
 4494TP3     H225302   2.817   3.448   9.056 -1.0521  0.0817 -0.1756
 4495TP3      O25303   0.274   1.622   7.292 -0.2218  0.5424  0.4706
 4495TP3     H125304   0.209   1.689   7.270  0.6359  1.0169 -0.7106
 4495TP3     H225305   0.222   1.550   7.328 -1.6773  0.0908 -2.2314
 4496TP3      O25306   0.636   1.844   7.579  0.3679  0.2785 -0.1588
 4496TP3     H125307   0.560   1.836   7.521  0.1055 -0.1881  0.2443
 4496TP3     H225308   0.648   1.938   7.590 -0.2715  0.3507 -0.0626
 4497TP3      O25309   2.027   3.820   1.188 -0.0220 -0.8517 -0.0457
 4497TP3     H125310   1.992   3.906   1.211 -0.5158 -1.2191  0.6162
 4497TP3     H225311   2.107   3.838   1.138  2.1843  0.0228  3.4923
 4498TP3      O25312   1.723   0.665   9.731  0.4276 -0.1010  0.1627
 4498TP3     H125313   1.787   0.662   9.659  0.7115  1.3227  0.3346
 4498TP3     H225314   1.643   0.698   9.689  0.0578 -1.0072  0.1383
 4499TP3      O25315   4.692   3.794   9.527  0.1589  0.1191  0.3193
 4499TP3     H125316   4.784   3.816   9.543  0.4256 -0.4962 -0.3306
 4499TP3     H225317   4.686   3.787   9.432 -0.9044  1.6019  0.2445
 4500TP3      O25318   0.715   0.682   0.345 -0.3883 -0.4792 -0.5107
 4500TP3     H125319   0.751   0.619   0.408 -0.9169  0.0095  0.3031
 4500TP3     H225320   0.741   0.649   0.259  1.9368 -0.2141  0.0198
 4501TP3      O25321   2.099   2.318   8.228  0.0493  0.5341  0.6693
 4501TP3     H125322   2.022   2.262   8.223  2.0840 -2.4620  0.7075
 4501TP3     H225323   2.115   2.345   8.137 -0.2770  0.0940  0.4781
 4502TP3      O25324   3.894   0.799   0.256 -0.1938  0.4284  0.6097
 4502TP3     H125325   3.888   0.796   0.351  1.4804  0.0738  0.7497
 4502TP3     H225326   3.957   0.729   0.234 -1.1807 -0.0611 -0.8300
 4503TP3      O25327   0.399   2.185   1.837 -0.1754  0.1019 -0.1511
 4503TP3     H125328   0.468   2.124   1.811  0.8504  1.1672 -0.0136
 4503TP3     H225329   0.338   2.186   1.764  0.1370 -0.5952 -0.4217
 4504TP3      O25330   0.903   3.384   2.794  0.2054  0.1317  0.8008
 4504TP3     H125331   0.869   3.295   2.805  1.4227 -0.4542  0.0075
 4504TP3     H225332   0.825   3.439   2.790 -0.6410 -1.0824 -0.2838
 4505TP3      O25333   4.937   5.031   0.994 -0.0361  0.6072  0.8107
 4505TP3     H125334   4.915   5.099   0.931 -1.1868  0.4534  1.0245
 4505TP3     H225335   5.014   4.988   0.958  0.0208  1.2967  0.1107
 4506TP3      O25336   1.360   0.660   1.398 -0.0874 -0.4900  0.7864
 4506TP3     H125337   1.268   0.669   1.372 -0.0373 -0.8495  0.4733
 4506TP3     H225338   1.407   0.717   1.337 -0.1496  0.1275  1.2991
 4507TP3      O25339   4.854   3.654   0.527 -0.6205  0.0941  0.6306
 4507TP3     H125340   4.797   3.681   0.454 -2.5228  0.3196  2.1147
 4507TP3     H225341   4.943   3.658   0.491 -1.4179  1.1023 -1.3854
 4508TP3      O25342   3.491   1.400   7.402  0.2130 -0.3875  0.6579
 4508TP3     H125343   3.473   1.369   7.491  0.3752 -3.3682 -0.2388
 4508TP3     H225344   3.458   1.331   7.345  0.5756  1.1907 -1.6108
 4509TP3      O25345   1.058   2.324   1.562  0.1152  0.2141 -0.1284
 4509TP3     H125346   0.991   2.340   1.628 -1.6446  0.1237 -1.7990
 4509TP3     H225347   1.091   2.236   1.582 -0.9612 -0.1362  0.1623
 4510TP3      O25348   2.328   0.733   9.340  0.3033 -0.1343  0.0245
 4510TP3     H125349   2.245   0.778   9.326  1.0255  1.3316  0.2563
 4510TP3     H225350   2.370   0.781   9.411  2.5320  0.9241 -1.8559
 4511TP3      O25351   2.747   4.987   9.617 -0.2179 -0.7543 -0.0762
 4511TP3     H125352   2.653   4.996   9.633 -0.3858 -1.2227 -0.7533
 4511TP3     H225353   2.774   5.073   9.586 -1.0207 -1.3688 -2.6872
 4512TP3      O25354   3.355   0.811   0.112 -0.6706  0.3660 -0.6021
 4512TP3     H125355   3.402   0.771   0.039 -1.4633 -0.4704 -0.6749
 4512TP3     H225356   3.263   0.792   0.094 -0.8888  0.2694  0.5475
 4513TP3      O25357   0.176   0.484   1.283 -0.0419 -0.4465 -0.4337
 4513TP3     H125358   0.185   0.495   1.189 -0.2275  1.1095 -0.3018
 4513TP3     H225359   0.084   0.506   1.301 -0.1827 -1.3557  0.0499
 4514TP3      O25360   0.984   4.910   9.501 -0.4207 -0.2586 -0.6480
 4514TP3     H125361   0.938   4.880   9.579  0.0484 -0.4386 -0.4381
 4514TP3     H225362   1.026   4.832   9.465  1.4442  0.2299  0.3345
 4515TP3      O25363   1.253   1.636   3.284  0.4585 -0.2037 -0.2050
 4515TP3     H125364   1.327   1.622   3.343  0.1265  3.1044  1.2262
 4515TP3     H225365   1.198   1.558   3.295  1.1185 -0.3511  2.8123
 4516TP3      O25366   4.523   0.388   1.505  0.7007  0.1262 -0.7113
 4516TP3     H125367   4.458   0.321   1.485  1.4853 -0.9493  0.1707
 4516TP3     H225368   4.604   0.338   1.518  1.3049  1.2528 -0.0377
 4517TP3      O25369   3.288   3.656   8.889  0.3035  0.3174 -0.0313
 4517TP3     H125370   3.326   3.574   8.922  2.3757  0.9648 -0.6689
 4517TP3     H225371   3.233   3.629   8.815 -0.3443 -0.6359  0.7761
 4518TP3      O25372   0.297   3.447   1.860 -0.1486  0.3705  0.2226
 4518TP3     H125373   0.337   3.534   1.864  1.2681 -0.2392 -0.1086
 4518TP3     H225374   0.203   3.464   1.859  0.0403  1.8094  2.3020
 4519TP3      O25375   1.951   3.533   2.916 -0.1556  0.3084  0.0319
 4519TP3     H125376   1.935   3.624   2.892 -0.0596  0.0511 -1.0725
 4519TP3     H225377   1.864   3.498   2.939  0.0281  1.1123  2.1776
 4520TP3      O25378   4.860   0.385   1.250  0.2723 -0.3167 -0.2701
 4520TP3     H125379   4.811   0.384   1.167  1.3411 -0.0464 -0.9362
 4520TP3     H225380   4.934   0.444   1.232  1.0170 -0.9716  0.5866
 4521TP3      O25381   2.755   4.510   9.765 -0.3005 -0.0081  0.0732
 4521TP3     H125382   2.786   4.511   9.675 -1.3938 -0.1015 -0.3255
 4521TP3     H225383   2.736   4.602   9.784  0.1931  0.0470  0.3085
 4522TP3      O25384   0.988   4.615   2.456  0.5542  0.2972 -0.3037
 4522TP3     H125385   1.010   4.664   2.376 -0.4274 -0.2959 -0.9590
 4522TP3     H225386   0.895   4.592   2.445  0.9501 -1.6044  0.0246
 4523TP3      O25387   3.445   4.011   2.315 -0.2100 -0.1007 -0.1516
 4523TP3     H125388   3.515   4.070   2.344 -0.4520  0.1028  0.0314
 4523TP3     H225389   3.443   4.021   2.220 -0.1395  0.0667 -0.1366
 4524TP3      O25390   2.279   1.322   8.786 -0.5532 -0.6636  0.3716
 4524TP3     H125391   2.270   1.277   8.870 -3.0464 -1.1110 -0.0404
 4524TP3     H225392   2.231   1.267   8.725  0.0066  0.3863 -1.0615
 4525TP3      O25393   3.169   2.422   9.424  0.1606  0.1141 -0.0754
 4525TP3     H125394   3.152   2.509   9.461  1.5980  0.9168 -1.2092
 4525TP3     H225395   3.261   2.405   9.444  0.2491 -0.5619 -1.0048
 4526TP3      O25396   1.576   2.088   6.967  0.0719  0.0047 -0.0127
 4526TP3     H125397   1.524   2.115   7.042 -0.3019 -1.6501  0.3547
 4526TP3     H225398   1.518   2.102   6.892  0.6422  2.2050 -0.1217
 4527TP3      O25399   0.488   4.771  10.071  0.1889 -0.1847  0.0982
 4527TP3     H125400   0.418   4.736  10.016  0.5185  0.7816 -0.9855
 4527TP3     H225401   0.512   4.699  10.128 -0.6607 -1.0062 -0.5423
 4528TP3      O25402   0.739   4.021   8.649  0.0522  0.0594  0.0848
 4528TP3     H125403   0.772   3.941   8.607 -1.2375  0.4192 -1.7070
 4528TP3     H225404   0.659   3.993   8.693 -0.0146  0.2266  0.0698
 4529TP3      O25405   0.968   5.063   8.185  0.0983  0.0127 -0.1732
 4529TP3     H125406   0.973   5.041   8.092 -0.7331 -0.8449 -0.0310
 4529TP3     H225407   0.878   5.095   8.197  0.1815  0.0668  0.3435
 4530TP3      O25408   3.250   3.076   0.086  0.3158 -0.3433  0.0908
 4530TP3     H125409   3.252   3.101  -0.006  1.7482 -0.7341 -0.0230
 4530TP3     H225410   3.324   3.124   0.125  0.3957 -1.0113  0.7877
 4531TP3      O25411   4.109   1.450   8.907  0.7077  0.2220  0.0757
 4531TP3     H125412   4.123   1.362   8.943 -1.1596 -0.3168 -0.4374
 4531TP3     H225413   4.132   1.441   8.814  1.0252  0.4144  0.1357
 4532TP3      O25414   5.089   2.502   1.208 -0.2713 -0.0875  0.5771
 4532TP3     H125415   5.182   2.505   1.183  0.1989 -0.8448  2.1056
 4532TP3     H225416   5.055   2.587   1.182  1.4907  1.2327  2.2574
 4533TP3      O25417   0.448   2.815   9.874 -0.1214 -0.0727  0.5396
 4533TP3     H125418   0.381   2.747   9.871 -0.6879  0.4368  1.1907
 4533TP3     H225419   0.523   2.772   9.916  0.0638 -0.7118 -0.4018
 4534TP3      O25420   1.656   3.428   2.470  0.1108 -0.4921 -0.5232
 4534TP3     H125421   1.714   3.487   2.519 -1.8887  0.8064  0.4151
 4534TP3     H225422   1.656   3.464   2.381  0.4947 -0.3206 -0.4588
 4535TP3      O25423   3.632   0.601   1.028  0.1209 -0.0392 -0.2942
 4535TP3     H125424   3.658   0.509   1.021  0.7786  0.1513 -0.3745
 4535TP3     H225425   3.658   0.640   0.945  4.3550  1.3329  1.4461
 4536TP3      O25426   4.678   4.879   8.240  0.3618 -0.3269 -0.0944
 4536TP3     H125427   4.751   4.905   8.296  0.4859  0.3300 -0.5371
 4536TP3     H225428   4.647   4.797   8.276 -0.3188  0.6487  1.6369
 4537TP3      O25429   5.153   3.630   2.224  0.4017  0.6164  0.3465
 4537TP3     H125430   5.101   3.555   2.195  0.7409  0.4136  0.2600
 4537TP3     H225431   5.203   3.596   2.298 -1.1519  1.3727  1.8067
 4538TP3      O25432   0.655   3.938   2.584  0.5416  0.2602  0.3339
 4538TP3     H125433   0.741   3.929   2.544  0.9862 -0.4679  1.4264
 4538TP3     H225434   0.658   3.884   2.663 -1.1975 -0.4781 -0.0389
 4539TP3      O25435   3.702   4.199   2.061  0.2003  0.3066  0.1771
 4539TP3     H125436   3.682   4.282   2.105  0.9847  2.1193 -2.6234
 4539TP3     H225437   3.619   4.170   2.025  0.3051  1.0983 -0.7281
 4540TP3      O25438   0.010   4.391   2.313  0.4968  0.6969  0.1380
 4540TP3     H125439   0.015   4.487   2.318 -0.1516  0.7542 -0.1610
 4540TP3     H225440   0.013   4.372   2.219 -0.2341  0.4880  0.1478
 4541TP3      O25441   4.047   1.559   6.921 -0.1500  0.3197  0.3441
 4541TP3     H125442   3.973   1.610   6.890 -0.5709 -2.0679 -3.0205
 4541TP3     H225443   4.009   1.492   6.977 -0.4278 -0.2958 -0.5747
 4542TP3      O25444   0.171   0.336   0.126  0.2327 -0.2533  0.1301
 4542TP3     H125445   0.121   0.256   0.143  0.5350 -0.6068 -0.6106
 4542TP3     H225446   0.153   0.392   0.202 -2.3947  0.2096 -0.7221
 4543TP3      O25447   0.397   2.099   7.273 -0.2125  0.2952 -0.4711
 4543TP3     H125448   0.482   2.056   7.271  0.7510  1.8383 -4.7122
 4543TP3     H225449   0.365   2.092   7.183 -3.5652  1.7667  0.4289
 4544TP3      O25450   2.204   4.988   8.135 -0.0272  0.3221 -0.2521
 4544TP3     H125451   2.266   5.048   8.177 -1.6713  1.5010  0.5635
 4544TP3     H225452   2.118   5.024   8.154 -1.0090 -1.3661 -1.2257
 4545TP3      O25453   4.851   0.356   8.183  0.0290 -0.0947  0.1784
 4545TP3     H125454   4.850   0.270   8.224 -3.5149 -0.1806  0.2238
 4545TP3     H225455   4.863   0.417   8.256  2.2557 -0.4613  0.1765
 4546TP3      O25456   5.154   0.849   3.245  0.4048 -0.0194 -0.1565
 4546TP3     H125457   5.176   0.939   3.269  1.1201 -0.8884  2.8997
 4546TP3     H225458   5.062   0.839   3.270 -0.2087  0.2801 -2.1062
 4547TP3      O25459   0.574   0.156   7.871 -0.1306 -0.0403 -0.0262
 4547TP3     H125460   0.599   0.226   7.931  1.2647 -0.1757 -0.4203
 4547TP3     H225461   0.532   0.200   7.797  0.1082  0.3120  0.0474
 4548TP3      O25462   0.119   1.018   3.622  0.1527 -0.4177  0.8018
 4548TP3     H125463   0.128   0.940   3.678 -2.3253 -2.3092 -1.1904
 4548TP3     H225464   0.171   0.998   3.544 -0.8823 -0.3171  0.0699
 4549TP3      O25465   4.368   0.003   8.335 -0.3630 -0.3625 -0.0349
 4549TP3     H125466   4.438  -0.035   8.281  0.6967  0.3639  0.7645
 4549TP3     H225467   4.414   0.065   8.393 -1.3320 -1.5276  2.1173
 4550TP3      O25468   5.105   2.730   1.610  0.5039 -0.1175  0.0165
 4550TP3     H125469   5.076   2.717   1.701  0.7838  2.3453  0.5311
 4550TP3     H225470   5.184   2.783   1.618 -0.6905  2.0628 -1.7008
 4551TP3      O25471   2.495   1.016   7.854 -0.3322  0.2460  0.1395
 4551TP3     H125472   2.570   1.026   7.914  0.6188 -1.1221 -0.7599
 4551TP3     H225473   2.481   0.922   7.850 -0.8189  0.3585 -1.2511
 4552TP3      O25474   3.187   4.540   8.664  0.2833 -0.2538  0.2290
 4552TP3     H125475   3.221   4.515   8.578  0.8781  0.3290  0.2827
 4552TP3     H225476   3.094   4.516   8.662 -0.0398  0.9867 -1.0742
 4553TP3      O25477   2.303   2.143   3.683 -0.0948  0.6376 -0.3789
 4553TP3     H125478   2.388   2.104   3.699  1.0623  3.1487  0.0424
 4553TP3     H225479   2.253   2.074   3.639  3.3703  0.1868 -4.2160
 4554TP3      O25480   1.820   4.196   7.730 -0.9651 -0.6390  0.3169
 4554TP3     H125481   1.804   4.128   7.796 -0.9580 -1.6562 -0.6990
 4554TP3     H225482   1.733   4.219   7.697 -0.8333 -2.6503 -1.7306
 4555TP3      O25483   3.341   5.262   7.040 -0.7143  0.0856 -0.3036
 4555TP3     H125484   3.252   5.229   7.051  0.0777 -2.4374 -0.7668
 4555TP3     H225485   3.397   5.185   7.052  1.5548  1.9089  1.7300
 4556TP3      O25486   0.111   1.718   1.808  0.0632 -0.3411  0.0344
 4556TP3     H125487   0.164   1.765   1.743 -0.7761  0.9314  0.2147
 4556TP3     H225488   0.144   1.748   1.892 -1.0310  0.6571  0.1502
 4557TP3      O25489   1.216   3.360   8.455 -0.4903 -0.0757  0.3021
 4557TP3     H125490   1.190   3.431   8.514 -2.9005 -1.0867  0.5629
 4557TP3     H225491   1.168   3.283   8.486 -0.2016 -1.1562 -1.6995
 4558TP3      O25492   1.249   1.282   7.107  0.1039 -0.3023 -0.2697
 4558TP3     H125493   1.328   1.292   7.161 -0.3765  0.7044  0.2774
 4558TP3     H225494   1.237   1.187   7.101  0.5333 -0.4552  0.8765
 4559TP3      O25495   2.867   2.082   9.416  0.7672  0.1473 -0.9425
 4559TP3     H125496   2.937   2.016   9.421  0.4936 -0.1439 -0.9339
 4559TP3     H225497   2.854   2.110   9.506 -0.9326 -1.7053 -0.5560
 4560TP3      O25498   0.067   2.515   0.405  0.3000  0.1903  0.1149
 4560TP3     H125499   0.057   2.429   0.364  1.5631  0.1312 -0.1262
 4560TP3     H225500  -0.016   2.531   0.450 -0.3897 -0.6178 -0.8370
 4561TP3      O25501   3.832   5.205   2.932 -0.0417  0.2461  0.2910
 4561TP3     H125502   3.794   5.236   3.014 -0.4080  1.0448 -0.1717
 4561TP3     H225503   3.891   5.134   2.958 -0.0603  0.5748  1.2534
 4562TP3      O25504   3.784   0.337   8.475 -0.3471 -0.7956 -0.5801
 4562TP3     H125505   3.807   0.334   8.568  1.0817 -0.4145 -0.9095
 4562TP3     H225506   3.746   0.424   8.463  1.9669  0.2515 -0.8744
 4563TP3      O25507   5.050   0.679   2.325  0.0949  0.0181 -0.0373
 4563TP3     H125508   4.966   0.645   2.293 -0.5730 -0.9478  2.5498
 4563TP3     H225509   5.100   0.601   2.348  0.6148  0.6492  1.0339
 4564TP3      O25510   4.013   1.624   9.684  0.3775 -0.2491  0.2412
 4564TP3     H125511   3.960   1.637   9.762 -2.7059 -0.6257 -1.6183
 4564TP3     H225512   4.010   1.530   9.668 -0.1985 -0.0281 -1.0503
 4565TP3      O25513   1.070   1.439   6.987  0.2139  0.0811 -0.3697
 4565TP3     H125514   1.045   1.375   6.920 -2.2203 -0.9041  1.3233
 4565TP3     H225515   1.140   1.397   7.036 -1.6491 -1.5883  0.9934
 4566TP3      O25516   2.284   1.571   8.944 -0.3838 -0.0653 -0.1606
 4566TP3     H125517   2.273   1.503   8.877 -1.5704 -2.9259  2.6922
 4566TP3     H225518   2.205   1.565   8.998  0.4083  2.2591  1.4315
 4567TP3      O25519   1.922   3.776   0.905 -0.2194  0.1473  0.2770
 4567TP3     H125520   1.878   3.837   0.846  0.0612  1.0830  1.0205
 4567TP3     H225521   2.014   3.799   0.899  0.3489 -2.2393 -1.7888
 4568TP3      O25522   1.433   2.799   2.157 -0.3089 -0.0559 -0.3462
 4568TP3     H125523   1.369   2.852   2.109 -1.4199 -0.6745  0.4201
 4568TP3     H225524   1.417   2.819   2.249  1.0800  0.2935 -0.1611
 4569TP3      O25525   2.577   1.205   7.651 -0.8740  0.3807 -0.2363
 4569TP3     H125526   2.545   1.161   7.730 -0.7949 -1.5277 -1.2184
 4569TP3     H225527   2.577   1.137   7.584  1.2854  1.3529 -1.3274
 4570TP3      O25528   2.008   3.430   7.976  0.2267  0.7160 -0.0446
 4570TP3     H125529   1.918   3.439   8.006  0.4283  0.5339  0.6516
 4570TP3     H225530   2.023   3.505   7.919 -0.6382  0.2600 -0.8908
 4571TP3      O25531   4.804   1.825   8.033  0.6300 -0.3255 -0.2434
 4571TP3     H125532   4.838   1.776   8.108  0.5822 -0.9718 -0.6377
 4571TP3     H225533   4.757   1.899   8.072  1.2593 -0.2262  0.3403
 4572TP3      O25534   3.871   0.283   9.994 -0.0899  0.0125  0.5165
 4572TP3     H125535   3.959   0.250   9.973 -0.7849 -0.9662 -1.0109
 4572TP3     H225536   3.839   0.224  10.062 -0.8280 -1.7601 -1.2994
 4573TP3      O25537   0.183   0.498   2.615 -0.0089  0.0437 -0.3642
 4573TP3     H125538   0.255   0.562   2.615 -0.1339  0.3068 -3.4881
 4573TP3     H225539   0.203   0.440   2.688  3.7504 -0.2600 -1.4547
 4574TP3      O25540   2.735   0.193   3.104 -0.6460 -0.6924  0.0756
 4574TP3     H125541   2.677   0.125   3.068  0.4600 -2.3169  1.1895
 4574TP3     H225542   2.685   0.230   3.177  0.0390 -2.8507  1.7351
 4575TP3      O25543   5.091   3.708   0.364  0.7547 -0.3927 -0.4701
 4575TP3     H125544   5.177   3.718   0.405  2.3801 -1.0116 -3.4025
 4575TP3     H225545   5.077   3.789   0.316 -0.2794 -0.3278 -0.0821
 4576TP3      O25546   2.497   4.489   1.297  0.4476 -0.7049  0.1311
 4576TP3     H125547   2.560   4.519   1.232 -0.9116 -1.5151 -1.6260
 4576TP3     H225548   2.550   4.473   1.375  1.8305  2.2889 -0.0409
 4577TP3      O25549   5.047   5.199   9.632  0.1520  0.2906 -0.1220
 4577TP3     H125550   4.999   5.116   9.628  1.2027 -0.3523  0.1054
 4577TP3     H225551   5.137   5.173   9.653  0.6275  1.4444 -0.6448
 4578TP3      O25552   1.813   1.159   8.495  0.1089  0.2441  0.0724
 4578TP3     H125553   1.863   1.148   8.576  0.2809  0.5710  0.0083
 4578TP3     H225554   1.818   1.252   8.475 -0.3643  0.2506 -0.0375
 4579TP3      O25555   2.458   1.835   1.536  0.0027  0.0724  0.0217
 4579TP3     H125556   2.461   1.894   1.460 -3.3369 -0.3719 -0.5946
 4579TP3     H225557   2.460   1.747   1.498  2.7043 -0.3058  0.8128
 4580TP3      O25558   4.006   4.338   1.580  0.1386 -0.0653 -0.4975
 4580TP3     H125559   3.960   4.279   1.640  1.6225 -0.3221  0.4287
 4580TP3     H225560   4.071   4.382   1.635  1.0669  0.2207 -1.7778
 4581TP3      O25561   1.794   4.050   0.539 -0.1492 -0.0931  0.5053
 4581TP3     H125562   1.777   4.141   0.517  0.4347  0.0628  0.6979
 4581TP3     H225563   1.887   4.037   0.521 -0.6155 -1.1966 -1.3850
 4582TP3      O25564   4.032   0.836   0.804 -0.0816 -0.6091 -0.5752
 4582TP3     H125565   3.978   0.893   0.749 -0.7118 -1.3153 -0.7207
 4582TP3     H225566   4.082   0.783   0.742  0.3501 -0.3470 -0.4480
 4583TP3      O25567   2.210   0.402   8.751 -0.2164 -0.3175 -0.2173
 4583TP3     H125568   2.148   0.330   8.767 -0.8099 -0.0021 -1.0270
 4583TP3     H225569   2.167   0.479   8.788 -0.2028 -0.1418 -0.5629
 4584TP3      O25570   3.223   2.659   2.499 -0.0396 -0.5843  0.6853
 4584TP3     H125571   3.175   2.712   2.434 -1.4193 -1.6891  0.7614
 4584TP3     H225572   3.287   2.720   2.536  1.3890 -0.1062 -2.2658
 4585TP3      O25573   2.246   1.566   2.381  0.8988  0.4313 -0.0533
 4585TP3     H125574   2.286   1.543   2.297  1.6723  0.0491  0.4017
 4585TP3     H225575   2.152   1.551   2.368  1.2078 -1.7528 -0.2050
 4586TP3      O25576   2.534   1.214   8.932 -0.2726 -0.7445  0.1412
 4586TP3     H125577   2.513   1.132   8.977 -1.0111 -0.5426  0.1838
 4586TP3     H225578   2.493   1.205   8.845 -0.9749 -0.1427  0.3979
 4587TP3      O25579   4.446   1.170   1.478 -0.8903  0.0256 -0.2766
 4587TP3     H125580   4.363   1.129   1.502 -1.2898  0.8117 -0.3076
 4587TP3     H225581   4.510   1.130   1.536 -0.9079 -2.1363 -1.6290
 4588TP3      O25582   4.538   3.020   2.126  0.3883  0.0522 -0.4403
 4588TP3     H125583   4.450   3.040   2.157  0.8964  1.1569  0.3443
 4588TP3     H225584   4.555   3.085   2.058  0.3537 -0.5849 -1.0742
 4589TP3      O25585   3.534   2.221   7.813  0.6296  0.0257 -0.6366
 4589TP3     H125586   3.467   2.279   7.850  1.2225  0.6582 -0.5309
 4589TP3     H225587   3.484   2.151   7.771 -0.0787 -0.1434  0.4307
 4590TP3      O25588   0.960   3.015   1.011  0.1355  0.4683 -0.5254
 4590TP3     H125589   0.945   2.933   1.060  3.3887  0.6466  1.0619
 4590TP3     H225590   1.054   3.031   1.021  0.1140  2.9319 -3.2381
 4591TP3      O25591   5.152   4.506   2.810 -0.1715 -0.4597 -0.3620
 4591TP3     H125592   5.107   4.549   2.883 -0.1955 -0.0805 -0.5952
 4591TP3     H225593   5.211   4.574   2.776 -0.1708 -0.6320 -0.7021
 4592TP3      O25594   2.880   0.365   2.369  0.2701 -0.4647 -0.5109
 4592TP3     H125595   2.833   0.351   2.286 -0.2094 -0.7806 -0.1965
 4592TP3     H225596   2.941   0.292   2.374 -0.1703 -0.8273 -0.2758
 4593TP3      O25597   3.772   3.603   7.264  0.0563 -0.1708 -0.4660
 4593TP3     H125598   3.800   3.588   7.355  0.5934  1.5613 -0.3055
 4593TP3     H225599   3.852   3.591   7.212 -0.3627 -1.6928 -0.8053
 4594TP3      O25600   3.293   1.825   3.278 -0.0428 -0.3171 -0.0832
 4594TP3     H125601   3.373   1.819   3.330  1.5456  1.6552 -2.1027
 4594TP3     H225602   3.255   1.737   3.281  1.1299 -0.8092  2.5063
 4595TP3      O25603   5.253   2.789   2.012  0.1420  0.3135  0.3441
 4595TP3     H125604   5.184   2.768   1.949 -0.9344  0.1003  1.5683
 4595TP3     H225605   5.284   2.704   2.043  0.9056  0.4090 -0.1116
 4596TP3      O25606   4.683   0.557   9.399  0.7113  0.2934 -0.3640
 4596TP3     H125607   4.748   0.515   9.456  0.9976 -0.8621 -1.5138
 4596TP3     H225608   4.604   0.504   9.410  0.7073  0.1937 -0.8747
 4597TP3      O25609   0.187   3.440   0.276 -0.4651  0.0854 -0.4469
 4597TP3     H125610   0.267   3.490   0.258 -0.0892 -0.9614 -1.9290
 4597TP3     H225611   0.166   3.459   0.367  1.3064  0.6448 -0.1217
 4598TP3      O25612   0.711   0.274   9.269  0.1144  0.6102 -0.4284
 4598TP3     H125613   0.806   0.288   9.278  0.1222  0.2152  0.2335
 4598TP3     H225614   0.676   0.358   9.241  0.5384  1.0481  0.3308
 4599TP3      O25615   2.831   3.724   7.203 -0.1941  0.1212 -0.3138
 4599TP3     H125616   2.754   3.681   7.240 -0.6652  1.3030  0.1223
 4599TP3     H225617   2.886   3.652   7.172 -0.8179 -0.8063  0.6545
 4600TP3      O25618   4.833   1.992   7.673 -0.1053  0.4967 -0.1262
 4600TP3     H125619   4.927   1.984   7.691 -0.1190  0.8586  0.1270
 4600TP3     H225620   4.821   2.082   7.644 -0.5041  0.7423  0.7369
 4601TP3      O25621   2.254   1.180   2.213 -0.3438  0.1307 -0.0238
 4601TP3     H125622   2.289   1.095   2.242  0.9273  0.6939  0.2001
 4601TP3     H225623   2.274   1.184   2.119 -0.2716  0.2219 -0.0061
 4602TP3      O25624   2.768   0.299   0.336 -0.1664 -0.2024 -0.1599
 4602TP3     H125625   2.816   0.378   0.312 -0.1466  0.4869  1.9518
 4602TP3     H225626   2.678   0.329   0.349  0.2727  0.1535  3.1505
 4603TP3      O25627   0.927   3.758   7.560  0.0395 -0.0487 -0.0221
 4603TP3     H125628   0.910   3.692   7.494 -1.4317 -1.7025  1.8800
 4603TP3     H225629   0.841   3.779   7.597  0.7937  0.7057  1.4404
 4604TP3      O25630   1.133   1.715   0.072  0.2488  0.5605  0.2915
 4604TP3     H125631   1.179   1.748  -0.005  0.9628  0.2334  0.5699
 4604TP3     H225632   1.202   1.674   0.125 -0.5117 -0.8386  0.2368
 4605TP3      O25633   2.765   3.286   1.219 -0.2070  0.0871 -0.1836
 4605TP3     H125634   2.721   3.366   1.190  0.5862  0.9011  0.7820
 4605TP3     H225635   2.855   3.313   1.237  0.4561 -1.3286 -1.1492
 4606TP3      O25636   4.946   4.961   1.963  0.0182  0.2480  0.2910
 4606TP3     H125637   5.009   4.961   2.035  0.4488  1.2701 -0.0771
 4606TP3     H225638   4.891   5.037   1.980 -0.2780  0.1271 -0.1260
 4607TP3      O25639   1.065   3.099   1.915 -1.1817  0.1256  0.5239
 4607TP3     H125640   1.103   3.179   1.877 -0.3607  0.9585  2.8879
 4607TP3     H225641   0.988   3.131   1.963 -1.2255 -0.6013  0.9420
 4608TP3      O25642   1.300   3.381   3.448  0.5630 -0.3395 -0.4731
 4608TP3     H125643   1.212   3.355   3.421  0.9106 -1.0329 -0.9673
 4608TP3     H225644   1.288   3.466   3.489 -0.3746 -0.5445 -0.3032
 4609TP3      O25645   3.513   2.955   2.351 -0.3925 -0.5265 -0.1555
 4609TP3     H125646   3.542   2.931   2.440  0.2323  1.2186  0.1525
 4609TP3     H225647   3.567   2.902   2.293 -0.2972 -1.1620  0.5014
 4610TP3      O25648   0.447   4.887   1.926 -0.5226 -1.0055 -0.5107
 4610TP3     H125649   0.397   4.931   1.995  1.6950 -0.8477  1.1216
 4610TP3     H225650   0.484   4.959   1.874 -1.1841 -1.1058 -1.1445
 4611TP3      O25651   2.265   3.494   1.672  0.1482  0.1475 -0.0076
 4611TP3     H125652   2.264   3.500   1.576 -0.2153  0.6732  0.0243
 4611TP3     H225653   2.248   3.401   1.690  0.4206  0.0105 -0.4551
 4612TP3      O25654   0.042   4.740   8.089  0.1844 -0.3507  0.0371
 4612TP3     H125655  -0.020   4.669   8.099  1.2300 -1.2460  0.4158
 4612TP3     H225656   0.067   4.763   8.179  0.7333 -0.3237 -0.1153
 4613TP3      O25657   2.484   0.892   9.497  0.2634  0.7663  0.1545
 4613TP3     H125658   2.475   0.985   9.476 -1.5433  0.9849  1.6299
 4613TP3     H225659   2.458   0.886   9.589 -3.7227 -1.7178 -0.9172
 4614TP3      O25660   3.974   0.627   8.340 -0.5530 -0.1657  0.5235
 4614TP3     H125661   3.910   0.573   8.295 -0.5180 -0.5436  0.9209
 4614TP3     H225662   4.040   0.565   8.372  0.0475  0.2239  0.0617
 4615TP3      O25663   2.086   3.334   8.946 -0.0557  0.2504 -0.0733
 4615TP3     H125664   2.081   3.429   8.956 -0.4801  0.2593 -0.3725
 4615TP3     H225665   2.064   3.318   8.855  0.2809 -0.1185 -0.0936
 4616TP3      O25666   1.245   1.679   3.005 -0.3904 -0.3346 -0.3274
 4616TP3     H125667   1.166   1.657   2.955  0.6989 -1.7884 -1.5352
 4616TP3     H225668   1.225   1.652   3.094 -2.3857  2.2952  0.1373
 4617TP3      O25669   2.627   2.699   8.984 -0.3221  0.5142  0.3917
 4617TP3     H125670   2.591   2.762   9.046  0.0985  1.4405 -0.2819
 4617TP3     H225671   2.701   2.744   8.944 -0.7383  0.0426 -0.9630
 4618TP3      O25672   0.843   3.193   3.126 -0.1148  0.3163  0.6060
 4618TP3     H125673   0.787   3.166   3.198 -0.3574 -0.2848  0.2015
 4618TP3     H225674   0.900   3.118   3.110 -0.9621 -0.0839 -0.6911
 4619TP3      O25675   0.036   1.808   3.736  0.2367  0.0489 -0.3422
 4619TP3     H125676   0.072   1.896   3.744  1.0902 -0.3073 -0.0864
 4619TP3     H225677   0.098   1.762   3.680  0.0188 -0.4987 -0.1388
 4620TP3      O25678   4.874   3.152   1.815  0.2447  0.2127  0.3504
 4620TP3     H125679   4.915   3.144   1.901 -0.1590  0.1531  0.5409
 4620TP3     H225680   4.933   3.208   1.765 -0.1233  1.2356  1.0467
 4621TP3      O25681   1.440   3.988   9.893  0.3055 -0.2153 -0.0566
 4621TP3     H125682   1.494   4.066   9.883  0.2909 -0.0990  0.7448
 4621TP3     H225683   1.426   3.980   9.987 -0.5154 -0.6290 -0.2063
 4622TP3      O25684   2.349   0.129   3.110 -0.1743 -0.2399  0.3821
 4622TP3     H125685   2.393   0.175   3.181  0.8214 -0.8066  0.1449
 4622TP3     H225686   2.387   0.042   3.110 -1.7835 -0.9892  0.5964
 4623TP3      O25687   4.632   4.228   1.895 -0.4201  0.1929 -0.2982
 4623TP3     H125688   4.684   4.280   1.834 -0.2675  0.4918  0.0870
 4623TP3     H225689   4.544   4.266   1.890 -0.1480  0.9572  0.5128
 4624TP3      O25690   3.657   1.868   1.449 -0.4961  0.1481 -0.4948
 4624TP3     H125691   3.589   1.868   1.383  0.3917  0.3447 -1.4291
 4624TP3     H225692   3.716   1.797   1.423  0.6291  1.1448 -0.7470
 4625TP3      O25693   0.834   0.118   1.304 -0.3094 -0.3056 -0.6568
 4625TP3     H125694   0.872   0.032   1.321  1.6440  0.5213 -0.6351
 4625TP3     H225695   0.751   0.099   1.260  0.1648 -2.1879 -0.8289
 4626TP3      O25696   0.071   4.526   0.825 -0.4139 -0.1739  0.6296
 4626TP3     H125697   0.018   4.517   0.904  0.9102 -0.2564  1.5359
 4626TP3     H225698   0.117   4.609   0.836 -0.7284  0.1485 -0.3836
 4627TP3      O25699   4.236   3.589   1.013 -0.2471 -0.3674 -0.1867
 4627TP3     H125700   4.203   3.624   1.096 -0.0053 -0.7175  0.0566
 4627TP3     H225701   4.324   3.627   1.005 -0.3468 -0.1746 -0.3816
 4628TP3      O25702   3.615   4.228   0.305 -0.1231 -0.2677 -0.0166
 4628TP3     H125703   3.614   4.282   0.385 -1.2014 -0.8501  0.3881
 4628TP3     H225704   3.604   4.291   0.234  0.1962  0.2030  0.3445
 4629TP3      O25705   2.110   2.752   3.165  0.3159  0.1376 -0.6278
 4629TP3     H125706   2.124   2.834   3.118  0.6387  0.8695  0.6971
 4629TP3     H225707   2.029   2.765   3.214  0.6201 -0.1348 -0.0313
 4630TP3      O25708   3.198   3.445   2.619  0.0001  0.6271  0.5763
 4630TP3     H125709   3.245   3.382   2.564  1.8033  1.8313  0.6410
 4630TP3     H225710   3.265   3.478   2.679 -1.1267  1.8690  1.2087
 4631TP3      O25711   3.491   0.009   0.287  0.1415  0.6071  0.2042
 4631TP3     H125712   3.502  -0.076   0.245 -1.9680 -0.5150  1.6768
 4631TP3     H225713   3.528   0.072   0.226  1.2266 -1.3052 -1.2137
 4632TP3      O25714   0.371   2.982   1.681  0.0692  0.3012 -0.0382
 4632TP3     H125715   0.313   3.022   1.616 -1.6981  1.0927  1.9414
 4632TP3     H225716   0.424   2.920   1.630 -1.8501  0.2238 -2.0965
 4633TP3      O25717   2.567   5.025   0.325 -0.3754 -0.2627  0.1099
 4633TP3     H125718   2.627   4.958   0.293 -0.5377  0.6257 -2.2525
 4633TP3     H225719   2.481   4.998   0.293 -0.5443  0.6907 -0.2750
 4634TP3      O25720   0.272   0.476   1.553  0.1645  0.0042 -0.2845
 4634TP3     H125721   0.260   0.443   1.464 -0.0540  0.5170 -0.4507
 4634TP3     H225722   0.238   0.566   1.550 -0.4052 -0.1747  0.4656
 4635TP3      O25723   5.118   4.740   2.500 -0.0418 -0.5935  0.2403
 4635TP3     H125724   5.111   4.832   2.525  2.5693 -0.1557 -0.3833
 4635TP3     H225725   5.054   4.730   2.429  0.4306  1.0781 -0.4731
 4636TP3      O25726   0.790   2.689   2.820  0.0921 -0.2954  0.8360
 4636TP3     H125727   0.792   2.687   2.916 -0.4836  1.2490  0.9173
 4636TP3     H225728   0.742   2.610   2.795 -1.0459  0.0160  1.9081
 4637TP3      O25729   4.690   3.598   0.270 -0.6703  0.1194  0.4699
 4637TP3     H125730   4.648   3.540   0.334 -1.3544  0.4974  0.3717
 4637TP3     H225731   4.619   3.626   0.213 -0.0030 -0.5117 -0.7058
 4638TP3      O25732   1.970   0.078   0.480 -0.2194  0.6098 -0.4936
 4638TP3     H125733   1.895   0.036   0.437 -0.1352  2.0440 -2.1517
 4638TP3     H225734   2.025   0.004   0.507 -1.8512 -0.4444  0.1154
 4639TP3      O25735   2.191   4.087   1.192  0.0711 -0.0784 -0.3452
 4639TP3     H125736   2.103   4.076   1.228  0.3550 -1.1166  0.0564
 4639TP3     H225737   2.230   4.158   1.243  0.0503 -0.7334  0.5936
 4640TP3      O25738   0.734   5.141   2.776 -0.2140  0.0415 -0.3346
 4640TP3     H125739   0.672   5.182   2.836 -2.2416 -3.1578  0.0012
 4640TP3     H225740   0.819   5.153   2.817 -0.5376  3.8142 -0.3645
 4641TP3      O25741   3.459   0.263  10.031 -0.3554  0.0222  0.5618
 4641TP3     H125742   3.384   0.267  10.090 -1.4427  0.3852 -0.7766
 4641TP3     H225743   3.529   0.308  10.078 -0.5095 -1.5771  2.4445
 4642TP3      O25744   4.436   4.842   1.211 -0.0878 -0.3255  0.6936
 4642TP3     H125745   4.469   4.796   1.289  0.3023 -0.1907  0.6095
 4642TP3     H225746   4.388   4.917   1.247  1.7633  0.8797  0.7919
 4643TP3      O25747   4.912   2.254   9.835  0.0648  0.0534 -0.1384
 4643TP3     H125748   4.997   2.281   9.801  1.0942 -2.1936  0.4920
 4643TP3     H225749   4.886   2.325   9.893  2.2931  0.0725  0.9347
 4644TP3      O25750   2.024   1.751   8.845  0.1251 -0.2437 -0.0866
 4644TP3     H125751   2.101   1.806   8.840  0.8435 -1.3054 -1.4849
 4644TP3     H225752   1.984   1.772   8.930  0.6474  1.9850 -0.3461
 4645TP3      O25753   3.066   0.240   0.378 -0.7018 -0.3567  0.4812
 4645TP3     H125754   2.972   0.235   0.398 -0.6749  0.4540  0.8490
 4645TP3     H225755   3.082   0.333   0.361  0.1952 -0.3620  1.2139
 4646TP3      O25756   2.911   1.837   2.452  0.1215  0.3133 -0.1275
 4646TP3     H125757   2.856   1.910   2.423 -0.5726 -0.0632  0.1943
 4646TP3     H225758   2.867   1.759   2.416 -0.6587 -0.1593  1.7155
 4647TP3      O25759   0.397   4.089   1.698  0.4020 -0.2260 -0.0861
 4647TP3     H125760   0.422   4.032   1.771 -2.5284  0.7501  1.8435
 4647TP3     H225761   0.373   4.028   1.627 -1.1584 -1.4203  1.3905
 4648TP3      O25762   4.680   3.391   2.279  0.1704 -0.4844  0.6400
 4648TP3     H125763   4.719   3.362   2.197 -0.9671 -1.3808  0.3817
 4648TP3     H225764   4.586   3.387   2.264 -0.0583  1.2374  1.3681
 4649TP3      O25765   4.406   1.883   7.984 -0.0724  0.5244  0.2111
 4649TP3     H125766   4.394   1.792   8.010  0.6547  0.4798  0.4086
 4649TP3     H225767   4.450   1.924   8.058 -0.3377  1.0294  0.1005
 4650TP3      O25768   0.829   3.698   1.987 -0.0665  0.1577  0.4132
 4650TP3     H125769   0.902   3.757   2.006 -0.4330  0.5594  0.5844
 4650TP3     H225770   0.799   3.668   2.074 -0.9619  1.0450  0.4295
 4651TP3      O25771   0.998   0.223   2.369  0.8469  0.3647 -0.5487
 4651TP3     H125772   0.989   0.260   2.281 -2.4731 -1.1237 -1.0267
 4651TP3     H225773   0.928   0.265   2.419  2.1294  0.5350  1.1533
 4652TP3      O25774   2.008   2.724   9.739 -0.1230  0.3429  0.7286
 4652TP3     H125775   2.011   2.810   9.780 -1.6987  1.7891 -1.9367
 4652TP3     H225776   2.052   2.735   9.655  0.3870 -1.7111  0.6568
 4653TP3      O25777   0.343   5.170   9.419 -0.1024  0.5985 -0.3325
 4653TP3     H125778   0.330   5.143   9.328 -1.3765 -1.3424  0.3557
 4653TP3     H225779   0.426   5.130   9.444 -0.3104  0.1615 -0.3259
 4654TP3      O25780   4.322   0.424   2.597 -0.1664  0.1681  0.1298
 4654TP3     H125781   4.276   0.453   2.518  0.4333  1.2918  0.1770
 4654TP3     H225782   4.415   0.434   2.576  0.0270 -0.5786  0.5977
 4655TP3      O25783   1.905   4.752   1.206  0.3603  0.1031  1.0673
 4655TP3     H125784   1.839   4.756   1.276 -1.5408  1.6006 -0.6924
 4655TP3     H225785   1.941   4.841   1.202  1.6838 -0.4110  1.2422
 4656TP3      O25786   4.161   3.611   3.188  0.0486 -0.2368  0.0683
 4656TP3     H125787   4.067   3.629   3.181 -0.1498 -1.6237 -1.2438
 4656TP3     H225788   4.201   3.697   3.197 -1.3055  0.4111  0.1140
 4657TP3      O25789   1.180   2.866   9.599  0.0256  0.3156 -0.4020
 4657TP3     H125790   1.178   2.778   9.635 -1.1209 -0.1543 -1.5131
 4657TP3     H225791   1.089   2.885   9.576  0.3112  1.6322 -0.5619
 4658TP3      O25792   4.090   1.514   1.101 -0.3456  0.3801  0.3461
 4658TP3     H125793   4.155   1.580   1.125 -0.5189  1.4062 -1.7655
 4658TP3     H225794   4.139   1.431   1.100 -0.3579  0.1645  4.0542
 4659TP3      O25795   3.434   4.428   9.834 -0.0674 -0.1634 -0.3691
 4659TP3     H125796   3.408   4.351   9.785  3.0456  0.0193 -2.5662
 4659TP3     H225797   3.405   4.502   9.781  0.1310  0.1287 -0.0791
 4660TP3      O25798   4.318   4.932   8.006 -0.0148 -0.0929  0.1964
 4660TP3     H125799   4.239   4.960   7.960 -0.5438 -2.5362 -0.5553
 4660TP3     H225800   4.292   4.924   8.098 -0.3048  0.1860  0.1388
 4661TP3      O25801   4.653   3.005   0.317  0.2677  0.0224 -0.3949
 4661TP3     H125802   4.607   3.067   0.260 -0.3038  0.1299  0.1690
 4661TP3     H225803   4.631   2.919   0.282  0.5811  0.1120 -0.8218
 4662TP3      O25804   2.775   1.837   8.205  0.0956  0.2962  0.2906
 4662TP3     H125805   2.704   1.786   8.166 -0.0797  2.2019 -2.1381
 4662TP3     H225806   2.854   1.790   8.181 -0.1414  0.3667 -0.6679
 4663TP3      O25807   0.135   1.743   8.863 -0.4226  0.2499 -0.2414
 4663TP3     H125808   0.153   1.823   8.814 -0.6471  0.0664 -0.6340
 4663TP3     H225809   0.040   1.744   8.877 -0.3707  0.2593  0.1200
 4664TP3      O25810   3.072   0.486   9.583  0.3458  0.1321 -0.8871
 4664TP3     H125811   3.029   0.447   9.660  0.1625 -1.7317 -1.8637
 4664TP3     H225812   3.012   0.555   9.555  0.9911  1.7039  1.2921
 4665TP3      O25813   1.474   3.000   2.657  0.5606  0.8866 -0.8840
 4665TP3     H125814   1.487   3.080   2.709  1.1309 -0.7494  1.6405
 4665TP3     H225815   1.383   2.976   2.674  0.0557  1.5256 -2.5154
 4666TP3      O25816   4.437   0.178   0.424  0.1555 -0.1534  0.2839
 4666TP3     H125817   4.462   0.269   0.442 -1.1968  0.4858 -0.8655
 4666TP3     H225818   4.419   0.176   0.330 -1.2249 -1.2615  0.5403
 4667TP3      O25819   4.796   3.366   0.105  0.1584 -0.0631  0.1528
 4667TP3     H125820   4.772   3.455   0.131  0.2182 -0.0135  0.0399
 4667TP3     H225821   4.880   3.350   0.147  0.6985  0.3520 -0.7300
 4668TP3      O25822   2.472   3.377   1.323 -0.5637  0.4450 -0.2683
 4668TP3     H125823   2.479   3.282   1.334 -0.4272  0.6160  1.4290
 4668TP3     H225824   2.477   3.390   1.228  2.6256 -0.9854 -0.4370
 4669TP3      O25825   1.671   0.627   8.866 -0.0407 -0.0611  0.0378
 4669TP3     H125826   1.729   0.580   8.926 -1.0278  0.2280  1.2398
 4669TP3     H225827   1.592   0.574   8.862  0.4034 -0.6618 -1.9130
 4670TP3      O25828   0.779   0.035  10.092 -0.6218  0.2022 -0.2390
 4670TP3     H125829   0.737   0.010  10.174  0.4898  0.4683  0.4446
 4670TP3     H225830   0.714   0.019  10.024 -1.3572 -0.5663  0.6399
 4671TP3      O25831   1.537   0.155   1.400 -0.4897  0.4230 -0.0358
 4671TP3     H125832   1.521   0.248   1.387  0.6169  0.6787  0.3461
 4671TP3     H225833   1.568   0.123   1.315 -1.3399  0.2822 -0.3054
 4672TP3      O25834   0.116   1.283   9.789  0.3099 -0.7589  0.1665
 4672TP3     H125835   0.108   1.189   9.806  2.2995 -0.7001  1.8117
 4672TP3     H225836   0.153   1.319   9.870  1.0563  1.1953 -0.9848
 4673TP3      O25837   4.801   2.374   1.114  0.0718 -0.1260 -0.1972
 4673TP3     H125838   4.841   2.326   1.187 -0.1530  0.2211  0.1600
 4673TP3     H225839   4.799   2.465   1.143 -0.2763 -0.0257 -0.5210
 4674TP3      O25840   2.894   5.213   3.027 -0.3817 -0.4396 -0.4180
 4674TP3     H125841   2.878   5.228   2.934 -3.3411 -0.3013  0.0362
 4674TP3     H225842   2.838   5.276   3.072 -0.8698 -2.1096  1.4600
 4675TP3      O25843   3.739   0.580   3.271  0.5712  0.6124  0.1921
 4675TP3     H125844   3.718   0.522   3.344 -0.4825  0.9388  0.1601
 4675TP3     H225845   3.814   0.631   3.302  0.9885 -0.1880  0.5249
 4676TP3      O25846   0.869   4.241   2.417 -0.5107  0.5861 -0.5090
 4676TP3     H125847   0.781   4.235   2.455 -0.7587  2.2276 -0.7186
 4676TP3     H225848   0.926   4.260   2.492 -0.6145  1.2441 -0.5861
 4677TP3      O25849   0.349   0.579   9.738 -0.1321  0.2052  0.1120
 4677TP3     H125850   0.363   0.527   9.817  0.4613  0.7749  0.3789
 4677TP3     H225851   0.263   0.550   9.706  0.9078 -2.2511 -0.7326
 4678TP3      O25852   4.292   4.952   0.787  0.2999  0.3828 -0.3184
 4678TP3     H125853   4.361   4.927   0.848 -0.5140 -0.9478  0.0981
 4678TP3     H225854   4.231   5.004   0.839  0.1278  0.1293 -0.2709
 4679TP3      O25855   4.794   4.402   2.542 -0.2174  0.4520 -0.2416
 4679TP3     H125856   4.714   4.364   2.579 -0.8790  1.0584 -1.0062
 4679TP3     H225857   4.811   4.351   2.463 -0.4811  1.0200 -0.6747
 4680TP3      O25858   1.154   1.075   1.150 -0.0414 -0.7301  0.0047
 4680TP3     H125859   1.069   1.119   1.158  0.0183 -0.7006  0.5213
 4680TP3     H225860   1.133   0.988   1.116 -0.1837 -0.3883 -0.8081
 4681TP3      O25861   3.335   1.257   1.401 -0.4526 -0.8616  0.7367
 4681TP3     H125862   3.343   1.352   1.410 -0.2732 -0.8545  0.5124
 4681TP3     H225863   3.304   1.227   1.487 -3.2048 -0.3080  0.0007
 4682TP3      O25864   0.474   0.029   1.608 -0.3984  0.3443  0.2350
 4682TP3     H125865   0.541  -0.001   1.546  2.7594 -2.0068  4.2451
 4682TP3     H225866   0.487   0.124   1.613  1.8070  0.1207 -0.0892
 4683TP3      O25867   2.271   3.919   1.402  0.1059 -0.0772  0.4852
 4683TP3     H125868   2.318   3.847   1.360 -0.0967  0.1592 -0.1659
 4683TP3     H225869   2.281   3.993   1.342  2.2377  1.1300  2.1838
 4684TP3      O25870   0.366   0.725   2.550  0.1997  0.3579  0.6243
 4684TP3     H125871   0.302   0.765   2.491 -0.3524  2.8687  2.7540
 4684TP3     H225872   0.451   0.742   2.509 -0.1877  1.7338  0.3495
 4685TP3      O25873   4.012   2.241   9.967 -0.0977  0.1360 -0.8074
 4685TP3     H125874   4.061   2.208  10.042 -0.5161  0.5880 -0.3222
 4685TP3     H225875   3.979   2.163   9.923  0.4429 -0.1452 -0.7264
 4686TP3      O25876   4.649   2.217   2.377  0.4411  0.5415  0.4653
 4686TP3     H125877   4.683   2.302   2.407 -0.7074  1.2261 -0.1038
 4686TP3     H225878   4.703   2.196   2.301  2.2402 -0.3799  1.9129
 4687TP3      O25879   4.613   1.909   2.578  0.0201  0.4693  0.3985
 4687TP3     H125880   4.545   1.859   2.624  0.7658 -0.8778  0.1101
 4687TP3     H225881   4.565   1.978   2.532 -0.8795  1.0349  2.0982
 4688TP3      O25882   1.462   3.678   0.829  0.3653 -0.5667  0.5569
 4688TP3     H125883   1.464   3.773   0.829 -0.3828 -0.4841 -2.0277
 4688TP3     H225884   1.539   3.653   0.880  0.9623  1.4175  0.7107
 4689TP3      O25885   2.182   3.163   7.921  0.5637 -0.2807 -0.2971
 4689TP3     H125886   2.179   3.126   7.833  0.1529 -0.1094 -0.3578
 4689TP3     H225887   2.133   3.245   7.914 -0.0028 -0.5679  0.2331
 4690TP3      O25888   2.365   2.977   9.719 -0.1997  0.0694  0.4240
 4690TP3     H125889   2.451   2.936   9.704  0.0080  0.3898  0.7271
 4690TP3     H225890   2.384   3.070   9.730 -0.8196  0.4788 -1.6121
 4691TP3      O25891   4.752   1.864   3.434 -0.5305 -0.4610  0.0989
 4691TP3     H125892   4.835   1.817   3.424  0.8429  1.6048  1.2307
 4691TP3     H225893   4.772   1.937   3.492 -2.4592  1.7979 -1.8599
 4692TP3      O25894   2.654   3.173   9.648 -0.3392 -0.0513  0.4119
 4692TP3     H125895   2.711   3.249   9.647  0.7257 -0.7813 -1.7021
 4692TP3     H225896   2.588   3.191   9.582 -0.6413 -0.5647  0.5635
 4693TP3      O25897   5.271   2.091   2.584  0.2569  0.4928 -0.1444
 4693TP3     H125898   5.210   2.141   2.529  1.1237  0.9954 -0.6702
 4693TP3     H225899   5.338   2.155   2.609  0.5292 -0.0329  0.5041
 4694TP3      O25900   2.319   0.148   0.534  0.0617 -0.6417 -0.0756
 4694TP3     H125901   2.300   0.125   0.443  1.0952  2.2646 -1.1361
 4694TP3     H225902   2.399   0.099   0.556 -0.3307 -1.5449 -0.5905
 4695TP3      O25903   1.070   1.203   8.413  0.7371 -0.4771 -0.4863
 4695TP3     H125904   1.129   1.132   8.438 -0.3592 -0.8736  1.1083
 4695TP3     H225905   0.983   1.163   8.413  0.0513  0.9259  0.8294
 4696TP3      O25906   4.988   2.716   1.858  0.3917  0.0777  0.2630
 4696TP3     H125907   4.914   2.773   1.838 -1.9137 -3.4028 -2.3011
 4696TP3     H225908   4.953   2.652   1.920  1.7213 -0.7913  0.1741
 4697TP3      O25909   3.427   3.286   7.267 -0.2434  0.0755  0.0372
 4697TP3     H125910   3.501   3.334   7.229  0.1928 -0.4452  0.2183
 4697TP3     H225911   3.352   3.345   7.255 -0.0535  0.0652 -1.3299
 4698TP3      O25912   0.232   4.159   2.202  0.5273 -0.1711  0.0150
 4698TP3     H125913   0.260   4.081   2.249 -1.3149 -0.1187  1.3104
 4698TP3     H225914   0.138   4.147   2.190  0.0130  2.2192  1.0576
 4699TP3      O25915   0.366   2.763   9.514 -0.0855  0.5073  0.0288
 4699TP3     H125916   0.353   2.853   9.543  0.8880  1.0049 -1.0106
 4699TP3     H225917   0.373   2.769   9.419 -0.7215 -0.7685 -0.1242
 4700TP3      O25918   5.281   2.879   2.807 -0.1965  0.0182 -0.1798
 4700TP3     H125919   5.301   2.943   2.739  2.1105  1.4131  1.6474
 4700TP3     H225920   5.347   2.811   2.795  0.3963  0.4093  0.7881
 4701TP3      O25921   2.774   3.393   0.366  0.0499  0.2625 -0.7906
 4701TP3     H125922   2.753   3.446   0.289  0.9294  0.8848 -0.6142
 4701TP3     H225923   2.829   3.322   0.332 -2.2206 -1.4230 -1.2687
 4702TP3      O25924   0.695   4.324   9.852  0.1658  0.1939 -0.2608
 4702TP3     H125925   0.641   4.366   9.919 -1.2049 -0.2729 -1.0393
 4702TP3     H225926   0.719   4.239   9.891  1.6700  1.0231  0.7020
 4703TP3      O25927   3.103   5.146   7.110  0.0529  0.1942 -0.6097
 4703TP3     H125928   3.046   5.077   7.144  0.1881  0.2583 -0.2458
 4703TP3     H225929   3.043   5.216   7.084 -0.1359 -0.3378 -1.6460
 4704TP3      O25930   5.275   4.471   9.832  0.3297 -0.3200  0.2450
 4704TP3     H125931   5.314   4.470   9.744  1.2650 -0.3872  0.6459
 4704TP3     H225932   5.203   4.408   9.826 -0.5433  0.7103 -0.8556
 4705TP3      O25933   3.980   2.973   0.890  0.3036  0.2612  0.4668
 4705TP3     H125934   3.986   3.066   0.868  0.7046 -0.0286 -0.6979
 4705TP3     H225935   4.070   2.948   0.911  0.0602  0.3313  1.6653
 4706TP3      O25936   1.467   2.335   1.233  0.2311  0.2783  0.1678
 4706TP3     H125937   1.501   2.424   1.232 -0.8850  0.7197 -0.8670
 4706TP3     H225938   1.405   2.332   1.160 -1.2252 -0.7533  1.3749
 4707TP3      O25939   1.512   2.546   7.088  0.5357 -0.4507  0.3559
 4707TP3     H125940   1.570   2.588   7.151  2.8332 -2.9358  0.0785
 4707TP3     H225941   1.542   2.579   7.003 -0.1856  0.1532  0.3193
 4708TP3      O25942   2.961   3.648   9.586 -0.4423  0.3687  0.1297
 4708TP3     H125943   2.882   3.694   9.558 -1.3922 -0.7383  0.8590
 4708TP3     H225944   3.009   3.631   9.506 -0.1519  2.4194 -0.1733
 4709TP3      O25945   3.053   5.261   0.309  0.5265  0.2167  0.1484
 4709TP3     H125946   3.063   5.356   0.315  0.7332  0.3208 -1.3461
 4709TP3     H225947   2.960   5.246   0.324  0.5170  0.6310  0.5478
 4710TP3      O25948   0.310   4.493   0.369  0.3684  0.0609 -0.0789
 4710TP3     H125949   0.290   4.579   0.405 -0.1982  0.4774 -1.3129
 4710TP3     H225950   0.224   4.454   0.350  0.6262  0.1580 -1.5992
 4711TP3      O25951   0.157   2.032   3.733 -0.2727  0.3195 -0.0897
 4711TP3     H125952   0.230   2.023   3.671 -0.1238 -0.4959  0.1869
 4711TP3     H225953   0.198   2.029   3.819 -0.6408 -0.2767  0.0690
 4712TP3      O25954   0.886   5.222   8.727  0.4769  0.2140 -0.6701
 4712TP3     H125955   0.896   5.256   8.638  3.3530 -0.0294 -0.5470
 4712TP3     H225956   0.955   5.156   8.735 -0.5533 -0.7046  1.3312
 4713TP3      O25957   4.767   2.890   9.771  0.0016 -0.1012 -0.6838
 4713TP3     H125958   4.802   2.804   9.793 -1.0708 -0.7877 -1.5700
 4713TP3     H225959   4.844   2.943   9.750  0.7399 -0.5563  0.7647
 4714TP3      O25960   5.269   1.944   2.849 -0.0826 -0.1624 -0.5774
 4714TP3     H125961   5.223   1.932   2.766 -2.2528 -3.8182  0.9066
 4714TP3     H225962   5.353   1.900   2.837  0.5424  1.2014 -1.4169
 4715TP3      O25963   5.105   4.680   0.903  0.1352 -0.1897 -0.0722
 4715TP3     H125964   5.030   4.622   0.910 -0.4853  0.6071  0.0128
 4715TP3     H225965   5.127   4.703   0.994 -1.1237  1.5728 -0.1691
 4716TP3      O25966   2.595   3.801  10.019  0.5508 -0.1358  0.2076
 4716TP3     H125967   2.665   3.862  10.046  0.4358  0.2954 -0.4395
 4716TP3     H225968   2.640   3.718  10.007  0.8450 -0.0097  0.3993
 4717TP3      O25969   5.274   0.504   8.437  0.2711 -0.4642  0.4271
 4717TP3     H125970   5.332   0.579   8.427  1.0655 -1.1863 -0.5863
 4717TP3     H225971   5.309   0.455   8.511  0.7791 -0.7281  0.0172
 4718TP3      O25972   4.225   1.933   9.143 -0.0691 -0.0151  0.1425
 4718TP3     H125973   4.286   1.894   9.080  0.3934 -0.0492  0.6059
 4718TP3     H225974   4.218   2.024   9.116  1.6682  0.4789  1.1764
 4719TP3      O25975   4.703   3.760   1.122  0.1782 -0.3954 -0.0412
 4719TP3     H125976   4.786   3.786   1.082  0.8975  0.4540  1.8642
 4719TP3     H225977   4.638   3.819   1.083  0.6433 -0.4135 -0.8420
 4720TP3      O25978   3.888   1.941   0.149  0.8354 -0.1685  0.2780
 4720TP3     H125979   3.792   1.941   0.153  0.6763 -3.1923 -0.7971
 4720TP3     H225980   3.915   1.993   0.224 -1.6092  1.7287 -0.0221
 4721TP3      O25981   1.853   2.808   3.248  0.0242  0.1318 -0.6019
 4721TP3     H125982   1.822   2.718   3.246  0.6324 -0.1158  0.3475
 4721TP3     H225983   1.803   2.853   3.179  0.5057 -1.1709 -1.8570
 4722TP3      O25984   1.542   0.902   7.605 -0.5931  0.1153  0.1944
 4722TP3     H125985   1.481   0.970   7.634 -1.5633 -1.6129  2.5604
 4722TP3     H225986   1.564   0.927   7.515 -0.0367  4.0853  1.2245
 4723TP3      O25987   3.244   0.935   2.091  0.1310 -1.2303 -0.1005
 4723TP3     H125988   3.203   1.020   2.107  2.0039 -0.4220  0.6819
 4723TP3     H225989   3.191   0.896   2.021  0.1948  1.2985 -1.6965
 4724TP3      O25990   3.955   1.611   2.164  0.6749 -0.2082 -0.5077
 4724TP3     H125991   3.947   1.701   2.134 -2.4167  0.2632  1.3035
 4724TP3     H225992   3.931   1.558   2.088 -0.5708  0.6799 -0.7726
 4725TP3      O25993   1.173   3.336   8.174 -0.1959  1.1301 -0.2876
 4725TP3     H125994   1.208   3.273   8.237  3.1341  1.5723 -1.4820
 4725TP3     H225995   1.189   3.295   8.089 -1.4375  2.0126 -0.9760
 4726TP3      O25996   0.151   3.127   3.220  0.1826  0.5103 -0.5479
 4726TP3     H125997   0.092   3.137   3.295  2.3303  3.3222  0.9789
 4726TP3     H225998   0.205   3.051   3.241  0.7036  1.2238  0.7725
 4727TP3      O25999   1.538   3.010   0.053 -0.0184 -0.0136  0.2607
 4727TP3     H126000   1.589   3.022   0.133  0.7410  0.9536 -0.3379
 4727TP3     H226001   1.587   3.059  -0.014 -0.9099 -0.3680 -0.6783
 4728TP3      O26002   3.163   3.335   0.729 -0.0425 -0.3389 -0.2306
 4728TP3     H126003   3.165   3.246   0.693 -0.2883 -0.8704  1.0033
 4728TP3     H226004   3.090   3.333   0.791 -0.3739  0.8893 -0.5592
 4729TP3      O26005   4.841   0.356   9.448 -0.2224  0.3942 -0.2605
 4729TP3     H126006   4.927   0.375   9.409 -0.8422  1.3391 -1.2160
 4729TP3     H226007   4.860   0.290   9.515  1.5423  1.9322  0.8570
 4730TP3      O26008   4.207   2.152   3.551  0.5132  0.0803 -0.4003
 4730TP3     H126009   4.115   2.151   3.524  0.5691  2.1349 -0.8432
 4730TP3     H226010   4.213   2.226   3.612  2.1092  0.8433 -1.4172
 4731TP3      O26011   4.145   4.083   1.930 -0.6141  0.1610 -0.4171
 4731TP3     H126012   4.208   4.122   1.990 -0.8077  1.3377 -0.9424
 4731TP3     H226013   4.118   4.001   1.973  1.1466 -0.3097 -0.1296
 4732TP3      O26014   4.701   4.585   8.590 -0.1798  0.0325 -0.2460
 4732TP3     H126015   4.755   4.619   8.518 -0.8267 -0.6700 -1.0844
 4732TP3     H226016   4.645   4.519   8.549 -1.9938  1.0423  0.5077
 4733TP3      O26017   0.583   4.056   6.982  0.3505  0.8193 -0.2559
 4733TP3     H126018   0.493   4.025   6.978  0.1097  1.4477  0.0484
 4733TP3     H226019   0.604   4.082   6.892  0.5865 -0.2850 -0.5272
 4734TP3      O26020   2.130   1.306   1.535  0.1741  0.6083  0.2506
 4734TP3     H126021   2.102   1.327   1.446 -0.2359 -0.1966  0.1733
 4734TP3     H226022   2.193   1.374   1.558 -1.6634  2.3731  0.3437
 4735TP3      O26023   4.464   5.258   9.452  0.2814 -0.1307 -0.1261
 4735TP3     H126024   4.555   5.267   9.424  0.0158  0.8415 -0.7318
 4735TP3     H226025   4.430   5.186   9.399  0.6766 -0.4623  0.0650
 4736TP3      O26026   1.663   1.929   8.605  0.1925 -0.1769  0.1899
 4736TP3     H126027   1.626   1.846   8.636  3.0080 -1.7555 -0.3753
 4736TP3     H226028   1.689   1.976   8.684  0.1401 -0.5893  0.4513
 4737TP3      O26029   1.806   3.281   2.782  0.5693  0.1002 -0.0009
 4737TP3     H126030   1.900   3.294   2.772  0.3176  2.0054 -0.4044
 4737TP3     H226031   1.783   3.333   2.859 -0.3174  0.6756 -0.6306
 4738TP3      O26032   2.095   4.676   2.822  0.0581  0.1526  0.1618
 4738TP3     H126033   2.029   4.744   2.807  1.3138  1.1759 -1.1395
 4738TP3     H226034   2.140   4.704   2.902  1.2635  1.5428 -0.9243
 4739TP3      O26035   0.518   1.993   8.934  0.2413 -0.1513 -0.3365
 4739TP3     H126036   0.509   2.015   8.841  2.2275 -1.9316 -1.0314
 4739TP3     H226037   0.508   2.077   8.979  0.2774  0.9349 -2.2401
 4740TP3      O26038   1.038   3.387   6.756  0.7982 -0.1891 -0.3912
 4740TP3     H126039   0.949   3.365   6.785  1.6862 -0.7100  2.2137
 4740TP3     H226040   1.050   3.477   6.785  1.1912 -0.2089 -0.4953
 4741TP3      O26041   2.940   3.688   1.563 -0.0371 -0.2081 -0.4563
 4741TP3     H126042   2.936   3.592   1.567  0.8269 -0.2408 -0.1552
 4741TP3     H226043   2.849   3.716   1.574 -0.0875 -0.9355  1.3207
 4742TP3      O26044   4.172   4.203   2.490 -0.2233 -0.1087  0.2741
 4742TP3     H126045   4.131   4.171   2.570 -0.1187 -0.3800  0.2215
 4742TP3     H226046   4.099   4.234   2.437 -0.1187  2.2103  1.3873
 4743TP3      O26047   3.974   2.692   8.245 -0.4249  0.0919 -0.0222
 4743TP3     H126048   4.014   2.616   8.203  1.9274 -0.0028  2.1358
 4743TP3     H226049   3.909   2.656   8.305 -0.5730 -0.0749 -0.2819
 4744TP3      O26050   0.349   2.373   9.351 -0.2543 -0.2660  0.1326
 4744TP3     H126051   0.405   2.436   9.305  0.9976 -1.4110  0.0463
 4744TP3     H226052   0.369   2.289   9.311 -0.8668 -0.9369  1.1949
 4745TP3      O26053   4.536   1.122   2.655  0.1614  0.1387 -0.7961
 4745TP3     H126054   4.595   1.182   2.610  1.1088 -0.2710 -0.1397
 4745TP3     H226055   4.592   1.048   2.679 -0.4783  0.0195  0.3824
 4746TP3      O26056   0.024   0.335   0.489 -0.4685  0.0413 -0.6418
 4746TP3     H126057   0.112   0.371   0.495 -0.1826 -0.8248  0.7522
 4746TP3     H226058   0.037   0.241   0.476 -1.1766 -0.1828  0.1721
 4747TP3      O26059   0.341   4.302   8.231  0.2341 -0.4587 -0.2243
 4747TP3     H126060   0.268   4.258   8.188 -0.2222  0.5250 -0.4832
 4747TP3     H226061   0.399   4.328   8.160 -0.8110  1.6954 -0.3534
 4748TP3      O26062   4.560   1.218   2.099  0.4148 -0.1024 -0.2810
 4748TP3     H126063   4.569   1.285   2.167 -2.0962 -0.1707  0.1914
 4748TP3     H226064   4.555   1.136   2.147 -0.2069 -0.2590 -0.6071
 4749TP3      O26065   0.699   4.205   2.663  0.0067 -0.0351  0.3425
 4749TP3     H126066   0.663   4.116   2.657 -1.9283  0.7417 -0.3312
 4749TP3     H226067   0.777   4.195   2.717 -0.8197 -1.9632  1.2900
 4750TP3      O26068   1.658   5.244   2.095 -0.2193 -0.2455  0.4567
 4750TP3     H126069   1.731   5.270   2.040  0.2181 -0.9174  0.7058
 4750TP3     H226070   1.628   5.326   2.135  0.4664  0.0242  0.4340
 4751TP3      O26071   3.680   4.529   1.076 -0.2949 -0.8692  0.0850
 4751TP3     H126072   3.701   4.461   1.012  0.1091 -0.9228  0.2703
 4751TP3     H226073   3.760   4.540   1.127 -0.2005  0.0956 -0.2501
 4752TP3      O26074   0.280   4.637   1.186  0.6675 -0.5145  0.1335
 4752TP3     H126075   0.354   4.607   1.240 -0.2668 -2.2714  0.5000
 4752TP3     H226076   0.246   4.558   1.145  0.2781  0.5617 -1.7271
 4753TP3      O26077   2.803   1.460   0.898  0.0047  0.3879 -0.0635
 4753TP3     H126078   2.867   1.478   0.966  1.9955 -0.1138 -1.7185
 4753TP3     H226079   2.789   1.365   0.903  0.3287  0.3129 -0.4563
 4754TP3      O26080   4.884   3.501   3.306  0.2796  0.2890  0.3078
 4754TP3     H126081   4.954   3.454   3.351  0.1855 -1.7046 -1.4455
 4754TP3     H226082   4.927   3.580   3.272  1.4528 -0.4136  0.0872
 4755TP3      O26083   2.373   0.418   0.516 -0.8081 -0.5532  0.1674
 4755TP3     H126084   2.442   0.403   0.451 -2.4563  1.9489 -2.3762
 4755TP3     H226085   2.332   0.333   0.527  1.8513 -1.8638  0.9052
 4756TP3      O26086   1.757   4.930   9.592  0.3920 -0.1773 -0.3902
 4756TP3     H126087   1.710   4.870   9.534  0.5184  0.0325 -0.7174
 4756TP3     H226088   1.777   5.005   9.536 -1.9213  1.2972  0.6260
 4757TP3      O26089   2.863   2.523   8.747  0.1597  0.6823  0.1906
 4757TP3     H126090   2.778   2.511   8.706 -0.2137  1.4276  0.7131
 4757TP3     H226091   2.880   2.441   8.792 -0.1591  0.4325 -0.1374
 4758TP3      O26092   0.683   3.773   2.813 -0.1695  0.0902 -0.6493
 4758TP3     H126093   0.772   3.785   2.847  0.3449  0.3425 -2.0176
 4758TP3     H226094   0.637   3.726   2.883  0.9117  0.3429  0.2618
 4759TP3      O26095   2.114   1.266   1.799  0.5342  0.1959  0.0861
 4759TP3     H126096   2.036   1.317   1.821 -0.2089 -0.7599 -0.3194
 4759TP3     H226097   2.128   1.282   1.705 -0.8317 -1.8190 -0.5126
 4760TP3      O26098   3.374   4.005   0.430  0.4647  0.0532  0.8350
 4760TP3     H126099   3.424   4.012   0.348 -0.5758  2.5377  0.3217
 4760TP3     H226100   3.379   3.912   0.452  0.5052 -0.7998 -2.2306
 4761TP3      O26101   4.097   1.199   8.320  0.4330 -0.4999 -0.4666
 4761TP3     H126102   4.167   1.196   8.386  0.7228 -1.0354 -0.7940
 4761TP3     H226103   4.031   1.257   8.358  1.3609  0.5857 -0.4656
 4762TP3      O26104   2.567   3.272   8.463  0.1606 -0.1457  0.7852
 4762TP3     H126105   2.541   3.191   8.506 -0.9139 -0.0886  0.2698
 4762TP3     H226106   2.662   3.278   8.478  0.2942 -1.5954  0.6708
 4763TP3      O26107   4.944   3.247   9.995  0.0454 -0.0593 -0.6056
 4763TP3     H126108   4.921   3.155   9.985  0.4545 -0.2452  0.0789
 4763TP3     H226109   4.889   3.278  10.066  0.1927  0.1230 -0.5702
 4764TP3      O26110   0.161   4.845  10.060  0.0267 -0.0729 -0.7182
 4764TP3     H126111   0.082   4.796  10.041  1.2115 -2.7677  0.6717
 4764TP3     H226112   0.220   4.826   9.987 -0.0647  0.6120 -0.9709
 4765TP3      O26113   3.664   2.967   9.722 -0.0439  0.2004  0.5753
 4765TP3     H126114   3.740   3.023   9.708  0.8189 -0.9415  0.4611
 4765TP3     H226115   3.698   2.878   9.709 -1.3625 -0.3476  0.7118
 4766TP3      O26116   1.919   1.707   3.369  0.5330  0.1154  0.5777
 4766TP3     H126117   1.939   1.629   3.421  1.4653 -0.6001 -0.7860
 4766TP3     H226118   2.002   1.754   3.362  0.1614  0.8132  0.6949
 4767TP3      O26119   1.925   3.332   0.041 -0.0642 -0.8272 -0.1008
 4767TP3     H126120   1.923   3.427   0.028 -2.0011 -1.1412 -3.1586
 4767TP3     H226121   1.973   3.320   0.123  1.6706  2.6651 -0.4265
 4768TP3      O26122   4.631   3.968   0.899 -0.3355 -0.4869 -0.2479
 4768TP3     H126123   4.675   4.018   0.968  0.2531 -1.2518 -0.0623
 4768TP3     H226124   4.699   3.952   0.834 -1.0295  0.7389 -1.3084
 4769TP3      O26125   3.568   2.067   9.548 -0.3253  0.2452  0.3388
 4769TP3     H126126   3.638   2.126   9.576 -0.3632  0.2201  0.4882
 4769TP3     H226127   3.584   2.054   9.454  1.7236 -2.1912  0.8883
 4770TP3      O26128   2.510   2.886   2.773 -0.1377 -0.1430  0.0640
 4770TP3     H126129   2.426   2.848   2.799 -0.2265  0.7547  1.1814
 4770TP3     H226130   2.553   2.817   2.723 -2.3949  0.0970 -2.4329
 4771TP3      O26131   0.019   2.548   7.669 -0.2798  0.4387 -0.4143
 4771TP3     H126132   0.056   2.510   7.748  1.6125  2.5373 -0.1745
 4771TP3     H226133  -0.074   2.526   7.673 -0.5241  1.5118  3.0931
 4772TP3      O26134   1.535   3.563   8.698  0.2416  0.4132  0.4191
 4772TP3     H126135   1.511   3.646   8.658  2.2353  0.8049 -0.0391
 4772TP3     H226136   1.579   3.588   8.779  0.1848 -0.2375  0.6551
 4773TP3      O26137   4.700   2.145   8.890 -0.2676  0.7209  0.2980
 4773TP3     H126138   4.731   2.074   8.834 -0.9462 -0.1773  1.0252
 4773TP3     H226139   4.769   2.211   8.884  0.4317 -0.0305 -0.3255
 4774TP3      O26140   3.198   1.122   8.421  0.1357 -0.1807 -0.0567
 4774TP3     H126141   3.143   1.159   8.490  1.1635  0.2650  0.5513
 4774TP3     H226142   3.239   1.045   8.461  0.2583 -0.2783 -0.3652
 4775TP3      O26143   3.245   0.538   8.063  0.1486  0.2012  0.5353
 4775TP3     H126144   3.177   0.476   8.089 -1.8357  1.8395 -0.4255
 4775TP3     H226145   3.326   0.501   8.097 -1.1158 -2.1926  1.1642
 4776TP3      O26146   1.401   2.198   7.163 -0.4271  0.3679 -0.2416
 4776TP3     H126147   1.371   2.272   7.110 -0.7218 -0.3366 -1.0851
 4776TP3     H226148   1.344   2.200   7.240 -0.6021  0.8691 -0.3782
 4777TP3      O26149   1.869   3.750   8.735  0.3361 -0.3712 -0.6664
 4777TP3     H126150   1.787   3.729   8.781  1.2793 -1.7307  0.4628
 4777TP3     H226151   1.851   3.834   8.692 -1.8024 -0.8451 -0.8334
 4778TP3      O26152   0.824   3.400   1.220 -0.3127 -0.0494 -0.8265
 4778TP3     H126153   0.771   3.411   1.140  0.7588  0.1838 -1.5267
 4778TP3     H226154   0.913   3.387   1.188 -0.0615 -1.3620  0.2992
 4779TP3      O26155   0.628   4.673   1.578 -0.1340  0.8480  0.4806
 4779TP3     H126156   0.633   4.646   1.669  0.3224 -3.6210 -0.6319
 4779TP3     H226157   0.713   4.649   1.541 -1.2237 -0.0345 -1.6319
 4780TP3      O26158   2.585   2.142   0.310 -0.0927 -0.3158 -0.2158
 4780TP3     H126159   2.600   2.049   0.328 -0.1114 -0.3823 -0.5277
 4780TP3     H226160   2.673   2.180   0.305 -0.0539 -0.4588 -0.7906
 4781TP3      O26161   3.684   4.915   7.810 -0.0742 -0.2699 -0.5851
 4781TP3     H126162   3.751   4.848   7.797 -0.0620 -0.2935 -0.3994
 4781TP3     H226163   3.604   4.876   7.774  0.3457  0.4038 -2.3941
 4782TP3      O26164   0.965   3.317   1.007 -0.1943 -0.9214 -0.1233
 4782TP3     H126165   0.950   3.223   0.996  1.5605 -1.0821 -1.6017
 4782TP3     H226166   0.941   3.355   0.922 -1.9965  0.1767  0.8062
 4783TP3      O26167   3.508   2.883   0.086  0.7501  0.2627 -0.2497
 4783TP3     H126168   3.540   2.942   0.154 -1.7264  2.0789 -0.5139
 4783TP3     H226169   3.495   2.939   0.010 -1.2428 -0.6560 -0.6623
 4784TP3      O26170   3.154   2.178   1.966 -0.1203 -0.2406  0.1442
 4784TP3     H126171   3.232   2.126   1.982  0.3130  0.3207 -0.1227
 4784TP3     H226172   3.172   2.262   2.008  0.3794  0.7075 -1.8699
 4785TP3      O26173   2.859   1.489   1.400  0.3600  0.0696  0.2445
 4785TP3     H126174   2.777   1.439   1.401 -1.2460  2.5256  0.8260
 4785TP3     H226175   2.911   1.451   1.471 -0.0594 -1.8168 -0.4014
 4786TP3      O26176   2.489   4.262   3.204 -0.1289  0.0559  0.0827
 4786TP3     H126177   2.437   4.303   3.273  1.4648  1.0059  0.7897
 4786TP3     H226178   2.577   4.297   3.217  0.6680 -1.3796 -1.1421
 4787TP3      O26179   0.621   2.914   7.392  0.3627  0.1849  0.4999
 4787TP3     H126180   0.673   2.895   7.314 -0.1236  0.1237  0.1876
 4787TP3     H226181   0.534   2.934   7.359  0.3828  1.1197  0.9578
 4788TP3      O26182   3.667   4.566   1.468 -0.3997 -0.5000 -0.3179
 4788TP3     H126183   3.573   4.566   1.490 -0.9200 -1.1020 -2.3143
 4788TP3     H226184   3.693   4.658   1.476 -0.3723 -0.6544  3.0279
 4789TP3      O26185   3.267   2.498   8.258  0.3559  0.1830  0.3215
 4789TP3     H126186   3.291   2.481   8.348  0.2444  3.5820  1.1343
 4789TP3     H226187   3.309   2.581   8.237  1.4233 -1.0702 -3.2334
 4790TP3      O26188   1.569   1.197   8.734  0.5346 -0.4212  0.2720
 4790TP3     H126189   1.595   1.126   8.677 -1.7546 -1.2943  0.1893
 4790TP3     H226190   1.494   1.163   8.782  0.8296  1.1540  1.9689
 4791TP3      O26191   1.580   4.069   2.664  0.0112 -0.3613 -0.4965
 4791TP3     H126192   1.646   4.000   2.655  1.1706  0.4546  1.3085
 4791TP3     H226193   1.585   4.096   2.755 -2.3714  0.2323 -0.4698
 4792TP3      O26194   2.061   4.605   1.059  0.3653 -0.0591  0.0368
 4792TP3     H126195   1.994   4.647   1.113  0.6024 -1.0173  1.1135
 4792TP3     H226196   2.143   4.649   1.084  0.1458  1.3871 -1.5622
 4793TP3      O26197   0.075   4.054   9.290 -0.0989  0.3703 -0.0832
 4793TP3     H126198   0.042   4.082   9.375  0.7774  0.5888  0.1949
 4793TP3     H226199   0.014   4.092   9.227 -0.5042  0.5736  0.4232
 4794TP3      O26200   3.337   4.972   3.551  0.5922  0.0007 -0.3907
 4794TP3     H126201   3.384   5.041   3.598 -1.1972 -1.0181  3.1819
 4794TP3     H226202   3.364   4.891   3.594 -3.5241 -0.7096  1.2616
 4795TP3      O26203   1.444   0.417   8.903 -0.7368  0.0475 -0.3067
 4795TP3     H126204   1.382   0.443   8.971 -1.2939  0.4099 -0.9362
 4795TP3     H226205   1.403   0.447   8.821  0.2725  0.2929 -0.7364
 4796TP3      O26206   2.698   4.231   2.962 -0.4705 -0.0108 -0.6694
 4796TP3     H126207   2.641   4.249   3.037 -0.6006  1.9411 -1.1871
 4796TP3     H226208   2.774   4.187   2.999 -0.4886  1.0076  0.6349
 4797TP3      O26209   0.001   3.342   7.070 -0.6110 -0.0698  0.0265
 4797TP3     H126210  -0.073   3.326   7.011 -1.2696 -2.0385  1.2668
 4797TP3     H226211   0.006   3.262   7.123  1.6806  0.5022  0.7769
 4798TP3      O26212   3.595   4.573   3.188 -0.1499 -0.3328  0.1826
 4798TP3     H126213   3.550   4.524   3.257  0.2242 -2.0422 -0.7424
 4798TP3     H226214   3.623   4.507   3.125  2.4186  0.8111  0.0067
 4799TP3      O26215   4.407   4.133   2.393 -0.3619  0.2054  0.3937
 4799TP3     H126216   4.314   4.139   2.413 -0.3567 -2.6005  1.6015
 4799TP3     H226217   4.449   4.112   2.476  1.3100  0.7660 -0.2560
 4800TP3      O26218   0.302   4.379   1.076 -0.1660 -0.4574 -0.0632
 4800TP3     H126219   0.375   4.331   1.117  0.8887  1.1679  0.0565
 4800TP3     H226220   0.234   4.313   1.065  1.1965 -1.9819  0.1212
 4801TP3      O26221   5.028   4.965   7.340 -0.0962 -0.0172 -0.3605
 4801TP3     H126222   4.961   5.024   7.375 -0.8491 -0.4875 -0.9815
 4801TP3     H226223   5.098   5.023   7.309 -0.8565  0.5594 -1.0319
 4802TP3      O26224   1.326   3.476   1.214  0.4036  0.8302 -0.3879
 4802TP3     H126225   1.393   3.418   1.178  1.9328  1.0805  1.8741
 4802TP3     H226226   1.311   3.443   1.302 -3.5229 -0.0552 -1.1956
 4803TP3      O26227   3.176   1.203   2.137 -0.0259  0.0158  0.4136
 4803TP3     H126228   3.213   1.220   2.223 -0.2478  0.8787  0.3572
 4803TP3     H226229   3.239   1.240   2.076 -0.2902  0.2113  0.2542
 4804TP3      O26230   3.341   4.558   9.287  0.4274 -0.1826 -0.3841
 4804TP3     H126231   3.321   4.609   9.208  0.5236 -0.3590 -0.5252
 4804TP3     H226232   3.257   4.520   9.313  0.3878 -0.0910 -0.3803
 4805TP3      O26233   2.961   2.256   2.650  0.0663 -0.0316  0.3536
 4805TP3     H126234   2.967   2.252   2.555 -1.7967 -3.1221  0.2435
 4805TP3     H226235   3.047   2.289   2.677  0.6705  0.9020 -2.3255
 4806TP3      O26236   2.163   2.677   1.072 -0.1339 -0.2207  0.0361
 4806TP3     H126237   2.142   2.620   1.146  0.7082 -1.1128 -0.3816
 4806TP3     H226238   2.121   2.636   0.997 -0.1862  0.1468 -0.1360
 4807TP3      O26239   1.051   4.381   9.134 -0.7099 -0.6310 -0.0150
 4807TP3     H126240   0.993   4.400   9.207 -0.5359 -1.4712  0.3646
 4807TP3     H226241   1.011   4.423   9.059 -1.4682 -0.6716  0.3622
 4808TP3      O26242   3.566   2.420   1.823  0.2921  0.1702 -0.5878
 4808TP3     H126243   3.566   2.475   1.744  1.2633  0.1841 -0.5893
 4808TP3     H226244   3.516   2.342   1.798 -0.3800  0.6728 -0.8536
 4809TP3      O26245   1.050   3.344   3.298 -0.1541 -0.0300  0.9740
 4809TP3     H126246   0.964   3.339   3.257  0.3598 -1.9094  0.0263
 4809TP3     H226247   1.111   3.320   3.229  0.9025 -1.4173  2.3108
 4810TP3      O26248   3.945   0.910   2.013  0.6205  0.2235  0.5174
 4810TP3     H126249   3.881   0.908   2.084  0.3371 -2.3253  0.2793
 4810TP3     H226250   3.990   0.995   2.024 -2.0197  1.6346  1.3202
 4811TP3      O26251   3.142   5.025   2.819 -0.6848 -0.3483  1.1375
 4811TP3     H126252   3.212   5.091   2.823  0.2069 -1.0364 -1.0973
 4811TP3     H226253   3.061   5.076   2.826  0.0149  0.7793  1.3092
 4812TP3      O26254   2.880   0.768   1.169  0.2942  0.3557  0.3904
 4812TP3     H126255   2.953   0.745   1.111 -0.8787  1.0557 -1.4311
 4812TP3     H226256   2.804   0.773   1.112 -0.7244  2.1509  1.7929
 4813TP3      O26257   2.973   4.944   0.559  0.1315 -0.2649 -0.4430
 4813TP3     H126258   3.039   4.888   0.601  0.6892 -0.7142 -1.8584
 4813TP3     H226259   2.974   5.025   0.611  1.6056 -0.3718 -0.2608
 4814TP3      O26260   1.168   3.846   7.809  0.2970 -0.1351  0.2531
 4814TP3     H126261   1.093   3.896   7.841 -0.2442 -0.3850 -0.5870
 4814TP3     H226262   1.203   3.803   7.887  0.2322  0.8371  0.8312
 4815TP3      O26263   3.789   3.900   2.139 -0.1211  0.1023  0.2890
 4815TP3     H126264   3.714   3.846   2.115 -0.8491  1.0803  0.2943
 4815TP3     H226265   3.778   3.980   2.088  0.2862  0.7243  1.1428
 4816TP3      O26266   1.002   2.094   1.161  0.1048  0.0488  0.3597
 4816TP3     H126267   0.929   2.112   1.220  0.6316  0.5890  0.8590
 4816TP3     H226268   1.027   2.004   1.179 -0.3429 -0.0957  0.2798
 4817TP3      O26269   3.640   1.411   7.659 -0.1198 -0.4639 -0.3341
 4817TP3     H126270   3.732   1.435   7.649 -0.2251 -0.2169 -0.7437
 4817TP3     H226271   3.638   1.316   7.644 -0.0021 -0.3904 -0.8278
 4818TP3      O26272   4.683   1.512  10.104 -0.3434  0.3237 -0.3461
 4818TP3     H126273   4.760   1.466  10.137  1.0460  1.8926 -1.2493
 4818TP3     H226274   4.648   1.453  10.037 -1.3179 -1.4198  1.5714
 4819TP3      O26275   2.322   0.725   1.227 -0.1316  0.2971 -0.1858
 4819TP3     H126276   2.231   0.697   1.239  0.0130 -0.3610 -0.5875
 4819TP3     H226277   2.316   0.803   1.172 -0.6143  1.7601  1.8372
 4820TP3      O26278   2.704   4.582   1.126  0.0467  0.1564  0.2575
 4820TP3     H126279   2.777   4.524   1.145  1.1278  1.5635  0.5960
 4820TP3     H226280   2.726   4.664   1.171 -0.8160  1.2357 -1.1761
 4821TP3      O26281   4.981   2.514   8.527  0.2992 -0.7293 -0.1487
 4821TP3     H126282   4.896   2.537   8.488  1.4846 -0.7664 -3.0509
 4821TP3     H226283   4.969   2.427   8.563 -1.1231 -0.3733  0.2774
 4822TP3      O26284   2.932   1.012   0.339 -0.4084  0.5826 -0.1600
 4822TP3     H126285   2.976   0.937   0.380 -0.5770  0.3308 -0.4440
 4822TP3     H226286   2.863   0.974   0.285 -1.2186  0.9852  0.5516
 4823TP3      O26287   4.401   3.371   1.235  0.1781 -0.4407  0.2574
 4823TP3     H126288   4.312   3.405   1.249 -0.2218 -2.2425  3.0866
 4823TP3     H226289   4.395   3.319   1.155 -1.0505  0.2320 -0.1135
 4824TP3      O26290   2.199   2.096   9.447  0.7739  0.0970 -0.1336
 4824TP3     H126291   2.217   2.166   9.509  1.0138  1.0623 -1.2512
 4824TP3     H226292   2.243   2.123   9.366 -1.0358 -0.1769 -1.2926
 4825TP3      O26293   4.345   3.806   8.185 -0.3487  0.2027 -0.4091
 4825TP3     H126294   4.407   3.872   8.216 -0.0298  0.4789 -1.5800
 4825TP3     H226295   4.264   3.855   8.168 -1.5382 -0.4374  2.8202
 4826TP3      O26296   1.017   1.465   8.834 -1.3714 -0.1982 -0.2684
 4826TP3     H126297   0.993   1.553   8.863 -0.3297 -0.0965  0.3386
 4826TP3     H226298   0.990   1.407   8.905 -2.9770 -0.5158 -1.0970
 4827TP3      O26299   0.866   1.791   6.532  0.0964  0.1257  0.0958
 4827TP3     H126300   0.791   1.744   6.569 -0.2233 -0.8876 -1.7048
 4827TP3     H226301   0.935   1.781   6.597 -0.8774 -0.2397  1.1017
 4828TP3      O26302   0.195   3.412   8.802 -0.5363  0.3213 -0.1186
 4828TP3     H126303   0.213   3.410   8.896  2.4114 -1.4994 -0.5835
 4828TP3     H226304   0.174   3.321   8.779  0.8532  0.2954 -1.4757
 4829TP3      O26305   2.109   2.342   1.600  0.5498 -0.2625 -0.2830
 4829TP3     H126306   2.047   2.270   1.613  0.7841 -0.7826 -1.7694
 4829TP3     H226307   2.165   2.312   1.528  2.2716  0.3672  0.7388
 4830TP3      O26308   0.824   0.865   3.210  0.1624 -0.1590  0.0618
 4830TP3     H126309   0.859   0.831   3.293  1.5604  1.7146  0.3089
 4830TP3     H226310   0.897   0.914   3.171 -1.2243  1.1750 -1.0155
 4831TP3      O26311   1.511   1.167   2.083 -0.2956  0.2425  0.3581
 4831TP3     H126312   1.445   1.233   2.105  1.2085  1.9298  0.0683
 4831TP3     H226313   1.543   1.195   1.997  0.3083 -0.9523  0.1912
 4832TP3      O26314   5.079   3.552   7.553 -0.2758 -0.7552 -0.3325
 4832TP3     H126315   5.015   3.614   7.517 -0.1268  0.0256  0.6942
 4832TP3     H226316   5.073   3.564   7.648  0.1700 -1.9155 -0.1473
 4833TP3      O26317   4.046   0.034   2.669 -0.4591  0.3909 -0.4455
 4833TP3     H126318   3.987   0.021   2.744  0.6680 -1.1831  0.2334
 4833TP3     H226319   4.044  -0.050   2.623  0.8449  0.4641 -0.6789
 4834TP3      O26320   4.650   4.740   0.741  0.0889  0.4531  0.0639
 4834TP3     H126321   4.654   4.645   0.754  1.9418  0.5973  0.9154
 4834TP3     H226322   4.594   4.771   0.812  0.0853  0.0574  0.2370
 4835TP3      O26323   1.328   4.044   1.746 -0.1081 -0.1979 -0.4052
 4835TP3     H126324   1.365   4.114   1.691  1.8865 -2.4582 -2.1472
 4835TP3     H226325   1.234   4.049   1.729  0.1754  0.9009 -1.9376
 4836TP3      O26326   2.280   2.502   2.075  0.8072 -0.3119 -0.3715
 4836TP3     H126327   2.357   2.543   2.115  0.6483  0.2072 -0.5856
 4836TP3     H226328   2.270   2.419   2.121  0.6081  0.2877  0.6787
 4837TP3      O26329   2.000   4.727   0.551  0.1446  0.9652  0.3085
 4837TP3     H126330   1.939   4.677   0.606  1.5124 -0.5253  0.5254
 4837TP3     H226331   2.051   4.779   0.613  1.8313 -0.8740  0.5510
 4838TP3      O26332   4.367   1.580   0.510  0.3989 -0.0667 -0.5322
 4838TP3     H126333   4.289   1.599   0.457 -0.6983 -0.3179  0.9322
 4838TP3     H226334   4.376   1.656   0.567  0.8482 -0.3209 -0.2604
 4839TP3      O26335   4.526   3.054   0.938 -0.1859 -0.2648 -0.0466
 4839TP3     H126336   4.495   3.116   0.872 -0.5844 -0.0223  0.3607
 4839TP3     H226337   4.564   3.108   1.007 -2.0571 -0.3282  1.1117
 4840TP3      O26338   1.973   0.501   8.567 -0.0905  0.3909  0.2494
 4840TP3     H126339   2.063   0.475   8.549 -0.6471 -1.1675 -0.4593
 4840TP3     H226340   1.920   0.431   8.530 -1.6913  2.1916 -1.0398
 4841TP3      O26341   3.830   4.619   9.854 -0.0230 -0.4205 -0.0605
 4841TP3     H126342   3.866   4.656   9.935  0.2418 -0.0357 -0.3528
 4841TP3     H226343   3.775   4.546   9.884 -1.3748  0.8260  0.5902
 4842TP3      O26344   3.645   1.019   0.725 -0.7415  0.3418  0.0172
 4842TP3     H126345   3.593   0.988   0.799 -1.7062 -2.5703 -1.7070
 4842TP3     H226346   3.588   1.084   0.682 -0.8919  0.7578  0.8211
 4843TP3      O26347   2.005   0.923   7.674 -0.2353 -0.6882  0.2773
 4843TP3     H126348   2.071   0.889   7.614 -0.2774 -1.0161  0.4141
 4843TP3     H226349   1.944   0.970   7.617 -0.3128 -1.0575  0.0504
 4844TP3      O26350   2.806   4.134   8.128  0.1544 -0.6164  0.5694
 4844TP3     H126351   2.791   4.040   8.139 -1.3606 -0.3524  1.0414
 4844TP3     H226352   2.720   4.173   8.144  0.5898  0.7917 -0.3723
 4845TP3      O26353   2.194   4.686   9.160  0.0242 -0.2186 -0.1595
 4845TP3     H126354   2.126   4.631   9.198 -0.1171  0.5367  0.7164
 4845TP3     H226355   2.229   4.635   9.087 -1.1564 -0.8151 -0.3243
 4846TP3      O26356   4.608   2.190   1.444 -0.2449 -0.6815 -0.3993
 4846TP3     H126357   4.585   2.280   1.468  0.3530 -0.4748 -0.6017
 4846TP3     H226358   4.669   2.162   1.512 -0.9693 -1.1861  0.0591
 4847TP3      O26359   2.965   4.318   2.032 -0.3784 -0.0984 -0.3608
 4847TP3     H126360   2.935   4.290   2.118 -1.0620  1.1968 -0.1530
 4847TP3     H226361   3.030   4.387   2.050  1.0750 -1.2783 -0.8537
 4848TP3      O26362   2.240   4.640   1.528  0.3707 -0.2265  0.2451
 4848TP3     H126363   2.189   4.580   1.582 -2.0621  1.1212 -0.4057
 4848TP3     H226364   2.292   4.691   1.591  0.7137 -1.4131  0.9530
 4849TP3      O26365   2.091   1.349   3.119 -0.5867  0.4343 -0.1393
 4849TP3     H126366   2.126   1.281   3.176  0.1108  2.5325  2.0896
 4849TP3     H226367   2.009   1.312   3.085 -0.2303 -1.4879  0.9700
 4850TP3      O26368   1.941   1.564   0.642 -0.5989  0.4723  0.0312
 4850TP3     H126369   1.976   1.535   0.726 -0.2865 -1.8971 -0.8341
 4850TP3     H226370   1.995   1.639   0.618 -1.6086  2.1396  2.5446
 4851TP3      O26371   1.121   0.044   1.164  0.7712 -0.2951 -0.4486
 4851TP3     H126372   1.041   0.088   1.134  0.0599 -0.4992  1.0803
 4851TP3     H226373   1.096  -0.049   1.169  1.0297 -0.3242  0.2795
 4852TP3      O26374   0.282   0.324   2.831 -0.0433 -0.2669 -1.3393
 4852TP3     H126375   0.358   0.368   2.793 -0.0693 -0.6096 -1.8126
 4852TP3     H226376   0.302   0.316   2.924  0.5633 -0.4771 -1.4839
 4853TP3      O26377   0.279   2.639   2.391  0.1864  0.2952  0.3314
 4853TP3     H126378   0.305   2.568   2.450  0.0519  0.4516  0.5835
 4853TP3     H226379   0.341   2.635   2.319  0.2031 -0.0558  0.3619
 4854TP3      O26380   2.302   4.086   0.722 -0.2686 -0.4004 -0.1493
 4854TP3     H126381   2.308   4.122   0.633  1.5266 -1.7176 -0.6189
 4854TP3     H226382   2.393   4.067   0.746 -0.6664  0.2547  2.1450
 4855TP3      O26383   1.371   4.992   9.014  0.2002  0.0323 -0.0603
 4855TP3     H126384   1.380   5.086   8.997  1.3280  0.3884  2.1174
 4855TP3     H226385   1.299   4.986   9.077  0.4609 -0.5040  0.1932
 4856TP3      O26386   4.510   4.667   1.392  0.1196  0.0090  0.2760
 4856TP3     H126387   4.553   4.583   1.377  1.1093  0.5407  0.0835
 4856TP3     H226388   4.448   4.650   1.463  1.8556 -0.3786  1.7688
 4857TP3      O26389   4.467   1.674   0.187  0.1537  0.2950  0.1575
 4857TP3     H126390   4.412   1.727   0.245  1.2731  1.1334  0.5069
 4857TP3     H226391   4.419   1.673   0.104 -0.1439  1.4720  0.2845
 4858TP3      O26392   3.564   1.518   1.254 -0.3168 -0.1123  0.1862
 4858TP3     H126393   3.481   1.511   1.302  0.2244 -1.7150  0.9520
 4858TP3     H226394   3.585   1.429   1.228  0.7719  0.3773 -0.7149
 4859TP3      O26395   0.336   4.409   9.607 -0.1615  0.8007  0.4337
 4859TP3     H126396   0.426   4.436   9.625  0.7709 -0.5288 -1.9176
 4859TP3     H226397   0.333   4.394   9.513 -2.4778 -0.5459  0.6412
 4860TP3      O26398   4.348   3.927   1.065  0.7087 -0.6412  0.0184
 4860TP3     H126399   4.387   3.860   1.120 -0.6299 -1.6991 -0.2667
 4860TP3     H226400   4.358   3.894   0.975  1.7489  0.4694 -0.3037
 4861TP3      O26401   1.116   1.001   9.723  0.3370  0.3543 -0.5074
 4861TP3     H126402   1.095   0.918   9.680  0.6114  0.6246 -1.1768
 4861TP3     H226403   1.145   1.058   9.652  0.4086  0.9419 -0.0155
 4862TP3      O26404   3.823   3.854   9.422  0.1165  0.2220  0.0611
 4862TP3     H126405   3.818   3.930   9.363  0.6629 -1.0908 -1.7745
 4862TP3     H226406   3.738   3.851   9.465 -1.1164  0.0929 -2.2080
 4863TP3      O26407   0.933   3.189   7.325  0.0396  1.0410 -0.1986
 4863TP3     H126408   0.944   3.221   7.415  2.3846  1.2023 -0.4892
 4863TP3     H226409   0.897   3.264   7.278 -1.3250  0.9200  0.5854
 4864TP3      O26410   3.532   2.313   0.191  0.0654 -0.2413  0.3794
 4864TP3     H126411   3.501   2.314   0.101 -2.4109 -0.3488  1.1619
 4864TP3     H226412   3.614   2.264   0.187  0.2738  0.1589 -1.8498
 4865TP3      O26413   3.475   2.264   2.724 -0.1065 -0.2194  0.3208
 4865TP3     H126414   3.519   2.345   2.697  0.6568 -0.8819 -0.4312
 4865TP3     H226415   3.536   2.194   2.702 -1.6515 -1.1873 -1.0637
 4866TP3      O26416   3.261   4.398   8.432  0.1259 -0.3070 -0.2592
 4866TP3     H126417   3.200   4.344   8.382  2.1648 -1.6823 -1.4267
 4866TP3     H226418   3.307   4.336   8.489  0.2455  0.7329  0.8308
 4867TP3      O26419   0.867   1.416   1.180  0.1027  0.0776 -0.6077
 4867TP3     H126420   0.862   1.480   1.251  0.6185  0.7765 -1.1941
 4867TP3     H226421   0.951   1.433   1.139  0.6986 -1.6360 -0.1660
 4868TP3      O26422   4.951   3.066   8.287 -0.2246 -0.0704  0.5765
 4868TP3     H126423   5.012   3.108   8.348  1.3733  1.3843 -1.8704
 4868TP3     H226424   4.882   3.131   8.273  1.6802  1.5118 -2.3664
 4869TP3      O26425   0.849   4.968   8.478 -0.0666  0.1228 -0.2276
 4869TP3     H126426   0.897   4.897   8.437 -0.3278  0.4891 -1.1971
 4869TP3     H226427   0.795   5.004   8.408 -0.9981  0.3711  0.5890
 4870TP3      O26428   2.845   2.971   6.384  0.2514 -0.3816 -0.4293
 4870TP3     H126429   2.900   2.896   6.408  1.3374  0.7127  0.5937
 4870TP3     H226430   2.757   2.934   6.376  0.3082 -1.3581  2.4773
 4871TP3      O26431   2.256   2.406   3.672  0.2730  0.3515  0.0471
 4871TP3     H126432   2.223   2.424   3.759  1.7644  1.4985  0.4238
 4871TP3     H226433   2.276   2.312   3.672 -1.2569  0.0020  0.3589
 4872TP3      O26434   1.614   0.195   9.832  0.3146  0.2119  0.0718
 4872TP3     H126435   1.611   0.287   9.861  0.9270  0.8329 -1.7063
 4872TP3     H226436   1.659   0.198   9.747  1.8574 -1.9506  0.7356
 4873TP3      O26437   3.614   3.550   2.562 -0.2782  0.4142 -0.0625
 4873TP3     H126438   3.535   3.596   2.589  0.2907 -0.0302  2.6846
 4873TP3     H226439   3.621   3.476   2.623  2.2857  0.5226 -0.1173
 4874TP3      O26440   0.206   4.958   2.111  0.3036  0.0934  0.6187
 4874TP3     H126441   0.200   4.867   2.081 -0.7600  0.2041  0.4591
 4874TP3     H226442   0.238   4.952   2.201  1.5426 -0.3569  0.1750
 4875TP3      O26443   3.829   5.231   0.002 -0.3821  0.4818  0.2546
 4875TP3     H126444   3.736   5.242  -0.020 -0.3865  0.0191  0.0227
 4875TP3     H226445   3.866   5.189  -0.075 -0.1699 -0.1705  0.7117
 4876TP3      O26446   2.553   2.026   3.671 -0.0133 -0.0200 -0.5032
 4876TP3     H126447   2.562   1.935   3.646 -0.3741 -0.2454  0.1524
 4876TP3     H226448   2.642   2.062   3.663 -0.0993 -0.0797 -2.0036
 4877TP3      O26449   4.820   4.469   2.838 -1.2624  0.0220 -0.2373
 4877TP3     H126450   4.864   4.547   2.870 -1.0771 -1.2233  2.8884
 4877TP3     H226451   4.859   4.453   2.752  0.6339  1.8512  0.2105
 4878TP3      O26452   5.168   1.001   2.614 -0.3373 -0.1590  0.1483
 4878TP3     H126453   5.195   1.071   2.555  0.0941 -0.3246  0.1457
 4878TP3     H226454   5.197   1.030   2.700  1.0102 -0.9063 -0.0200
 4879TP3      O26455   0.543   0.332   0.764 -0.0166 -0.6916 -0.2114
 4879TP3     H126456   0.564   0.259   0.823  1.1338 -0.8259 -0.7669
 4879TP3     H226457   0.571   0.302   0.678 -0.9837 -0.1907 -0.7174
 4880TP3      O26458   4.365   4.253   9.791  0.0155 -0.1898 -0.5828
 4880TP3     H126459   4.340   4.217   9.706  1.5965  0.6798 -1.4553
 4880TP3     H226460   4.288   4.302   9.820  0.3466  1.8738 -2.8728
 4881TP3      O26461   2.010   4.575   1.953  0.1658 -0.3041  0.1470
 4881TP3     H126462   1.932   4.527   1.980  0.1069  0.0084  0.5574
 4881TP3     H226463   1.978   4.663   1.934  0.4815 -0.0576  0.7389
 4882TP3      O26464   3.807   2.429   7.141  0.5914 -0.5318  0.1280
 4882TP3     H126465   3.875   2.469   7.196  0.7195 -1.0664  0.3637
 4882TP3     H226466   3.795   2.492   7.069 -0.2021  0.5985  1.2089
 4883TP3      O26467   4.413   4.500   2.023 -0.0500 -0.0660  0.6510
 4883TP3     H126468   4.451   4.508   2.110  0.4389  1.3796  0.3250
 4883TP3     H226469   4.487   4.502   1.964 -0.5193  1.7078  0.0687
 4884TP3      O26470   3.137   3.601   0.617  0.5105 -0.3446 -0.1572
 4884TP3     H126471   3.177   3.664   0.677 -0.8530 -0.3831  0.8254
 4884TP3     H226472   3.161   3.515   0.652  0.2595 -0.3675 -0.0397
 4885TP3      O26473   0.424   2.620   2.171  0.0516  0.1999  0.0508
 4885TP3     H126474   0.378   2.694   2.130 -1.8964 -0.7083  0.4712
 4885TP3     H226475   0.434   2.557   2.100 -1.2386 -0.4312  0.4053
 4886TP3      O26476   4.794   0.679   3.086 -0.5330  0.0862 -0.0120
 4886TP3     H126477   4.823   0.610   3.145 -1.7400 -0.2309  0.2527
 4886TP3     H226478   4.758   0.746   3.145 -1.4375 -0.0831 -0.3492
 4887TP3      O26479   5.225   0.612   2.054  0.3502  0.0913  0.2974
 4887TP3     H126480   5.233   0.704   2.027 -0.3881  0.4121  1.1351
 4887TP3     H226481   5.287   0.602   2.126 -0.1893  0.1643  0.7752
 4888TP3      O26482   4.883   0.762   9.666  0.0302 -0.0162 -0.1479
 4888TP3     H126483   4.844   0.677   9.684  1.4577 -0.5339  0.6933
 4888TP3     H226484   4.841   0.791   9.585 -1.6758 -0.7410  0.4222
 4889TP3      O26485   3.037   4.849   9.285  0.0928  0.5940 -0.1479
 4889TP3     H126486   2.996   4.845   9.371 -2.0751 -1.8584 -1.1445
 4889TP3     H226487   2.964   4.859   9.224  0.8817 -2.9873 -1.9610
 4890TP3      O26488   5.240   1.880   8.036  0.4202  0.4323  0.3558
 4890TP3     H126489   5.279   1.886   7.949 -0.1962 -0.1214  0.0281
 4890TP3     H226490   5.190   1.961   8.045 -1.7142 -0.6417 -0.9376
 4891TP3      O26491   4.048   1.878   9.624  0.0083  0.4102  0.7301
 4891TP3     H126492   4.045   1.791   9.665  0.0719 -0.0413 -0.2169
 4891TP3     H226493   4.052   1.861   9.530 -0.0101  1.4424  0.5295
 4892TP3      O26494   3.253   2.917   2.349 -0.7760 -0.6733  0.2054
 4892TP3     H126495   3.347   2.936   2.354 -0.8562 -0.4304  1.0667
 4892TP3     H226496   3.239   2.886   2.260 -0.0994  0.5211 -0.3498
 4893TP3      O26497   1.415   1.779   7.609 -0.1802 -0.5329 -0.1575
 4893TP3     H126498   1.425   1.860   7.558 -1.4221 -0.1972  0.0901
 4893TP3     H226499   1.386   1.714   7.546  1.3712 -0.9494 -0.4662
 4894TP3      O26500   3.668   2.599   8.770  0.3410 -0.3973 -0.2180
 4894TP3     H126501   3.596   2.662   8.780  0.8426 -0.1060  2.1223
 4894TP3     H226502   3.641   2.524   8.823  0.3014 -1.7064 -2.0209
 4895TP3      O26503   2.488   0.747   2.571  0.0096 -0.4188  0.2717
 4895TP3     H126504   2.509   0.833   2.535  2.5357 -0.7303  0.7752
 4895TP3     H226505   2.531   0.685   2.512 -1.7067 -1.3740 -0.0430
 4896TP3      O26506   3.576   3.447   7.552  0.4128 -0.5157 -0.8199
 4896TP3     H126507   3.545   3.466   7.641  1.9214 -0.5877 -0.2513
 4896TP3     H226508   3.511   3.488   7.495 -0.8149 -0.8427  0.3082
 4897TP3      O26509   0.727   2.448   9.390  0.4863 -0.0220 -0.0604
 4897TP3     H126510   0.736   2.500   9.310 -0.3686  0.4771  0.1574
 4897TP3     H226511   0.676   2.503   9.449 -0.7094 -1.2068  0.0696
 4898TP3      O26512   2.737   0.866   9.412 -0.4741 -0.0105 -0.2646
 4898TP3     H126513   2.788   0.919   9.473 -1.7946 -1.6172  2.4445
 4898TP3     H226514   2.646   0.881   9.438 -1.0029 -1.7887 -0.9243
 4899TP3      O26515   0.161   3.282   1.019  0.0092 -0.1945 -0.5347
 4899TP3     H126516   0.080   3.236   1.043 -1.1465  2.0663  0.1518
 4899TP3     H226517   0.132   3.350   0.958  1.1736  1.4397  0.6636
 4900TP3      O26518   1.853   4.630   8.079  0.0777 -0.4123  0.3256
 4900TP3     H126519   1.946   4.651   8.070 -0.0039 -0.4216 -0.7121
 4900TP3     H226520   1.843   4.604   8.170  1.0907 -0.4089  0.4531
 4901TP3      O26521   1.418   1.811   9.511 -0.2774 -0.0569 -0.1061
 4901TP3     H126522   1.436   1.719   9.531 -1.1903 -0.1318  0.4371
 4901TP3     H226523   1.468   1.829   9.431 -0.7281 -1.2544 -0.6793
 4902TP3      O26524   0.501   0.429   1.894  0.1813  0.1119  0.6277
 4902TP3     H126525   0.590   0.397   1.909 -0.6803 -1.8851  1.9970
 4902TP3     H226526   0.453   0.352   1.862 -0.4861  1.8086 -2.8846
 4903TP3      O26527   4.572   1.708   9.852  0.8091 -0.3028 -0.4230
 4903TP3     H126528   4.610   1.738   9.769  2.6576 -1.8747 -0.2210
 4903TP3     H226529   4.571   1.613   9.845 -2.0046 -0.3975  0.1525
 4904TP3      O26530   3.001   0.231   3.168 -0.0792 -0.5450  0.1945
 4904TP3     H126531   2.913   0.258   3.139  0.9574 -0.4741 -3.3715
 4904TP3     H226532   2.985   0.156   3.226 -2.4882 -0.6896 -0.5300
 4905TP3      O26533   1.699   2.845   9.025 -0.0816  0.1682  0.2097
 4905TP3     H126534   1.669   2.760   9.058  0.8524 -0.2757 -0.0453
 4905TP3     H226535   1.621   2.900   9.027 -0.5079 -0.4342  1.2217
 4906TP3      O26536   0.575   2.123   0.834 -0.4278  0.2199  0.4416
 4906TP3     H126537   0.670   2.112   0.836 -0.2291  1.6506  0.2862
 4906TP3     H226538   0.541   2.034   0.826  0.7864 -0.5569  2.7774
 4907TP3      O26539   1.455   0.030   3.241  0.0500  0.0363 -0.2153
 4907TP3     H126540   1.379  -0.023   3.266  0.6258 -0.7250 -0.0150
 4907TP3     H226541   1.505  -0.028   3.184 -0.3601  1.1347 -1.7326
 4908TP3      O26542   3.017   3.768   7.990 -0.1878 -0.6516 -0.2091
 4908TP3     H126543   3.111   3.769   8.008 -0.0133 -0.0981 -1.0728
 4908TP3     H226544   3.011   3.733   7.901 -0.6777  0.7315 -0.7383
 4909TP3      O26545   3.172   2.668   9.063 -0.0253  0.6850  0.0446
 4909TP3     H126546   3.160   2.579   9.032  0.8453  0.0822  1.3424
 4909TP3     H226547   3.169   2.722   8.984  1.5241 -0.6898 -1.0111
 4910TP3      O26548   4.579   3.629   7.547  0.2981  0.4371  0.0969
 4910TP3     H126549   4.576   3.606   7.640  0.7456 -1.9642 -0.4078
 4910TP3     H226550   4.512   3.697   7.536 -1.1390 -0.6230  1.8256
 4911TP3      O26551   1.513   2.772   7.783  0.5482 -0.6628 -0.4204
 4911TP3     H126552   1.500   2.859   7.819  0.5853 -1.2048  0.9875
 4911TP3     H226553   1.605   2.752   7.801  0.4737 -1.0836 -0.4912
 4912TP3      O26554   5.258   0.824   8.901  0.0039  0.1404 -0.0143
 4912TP3     H126555   5.168   0.852   8.887 -0.1534 -0.4260 -0.1493
 4912TP3     H226556   5.253   0.756   8.968  0.4630  0.8986  0.8072
 4913TP3      O26557   3.622   3.329   0.769  0.1594 -0.3181  0.2876
 4913TP3     H126558   3.542   3.318   0.822  0.3671 -1.4042  0.3982
 4913TP3     H226559   3.590   3.353   0.682 -0.2490  0.0685  0.5402
 4914TP3      O26560   4.934   3.283   7.845  0.2750 -0.6264  0.3528
 4914TP3     H126561   4.902   3.209   7.897 -0.5735 -1.8451 -1.7892
 4914TP3     H226562   4.875   3.288   7.771  1.3425  1.1581 -0.4494
 4915TP3      O26563   0.971   2.904   8.086  0.1604  0.8235  0.0831
 4915TP3     H126564   0.911   2.857   8.028  0.0457  1.5284 -0.3808
 4915TP3     H226565   1.058   2.885   8.050  0.1920  0.1404  0.5072
 4916TP3      O26566   4.080   0.602   1.325  0.2627 -0.1255 -0.2560
 4916TP3     H126567   4.077   0.510   1.299  2.0145 -0.4201  0.4638
 4916TP3     H226568   4.015   0.645   1.269  0.9987 -1.4072 -2.1705
 4917TP3      O26569   3.358   1.966   8.627 -0.0188 -0.3430 -0.2118
 4917TP3     H126570   3.367   2.032   8.558 -2.2095 -0.2758 -0.4865
 4917TP3     H226571   3.362   2.017   8.708  1.5931 -0.3126 -0.2698
 4918TP3      O26572   2.797   1.157   0.954  0.2189 -0.1126  0.7522
 4918TP3     H126573   2.889   1.150   0.928  0.2618 -1.3466  1.1820
 4918TP3     H226574   2.800   1.165   1.050 -0.1669 -2.0641  0.9635
 4919TP3      O26575   1.995   3.583   8.890 -0.2416  0.1486 -0.2099
 4919TP3     H126576   2.037   3.650   8.944  2.2579  0.6518 -2.5949
 4919TP3     H226577   1.953   3.631   8.819 -0.5470 -0.7028 -0.6240
 4920TP3      O26578   2.373   1.231   1.319  0.3339 -0.1586  0.7133
 4920TP3     H126579   2.288   1.201   1.349 -0.0111  0.2219  0.1332
 4920TP3     H226580   2.432   1.158   1.337 -0.6301 -1.5617 -1.4243
 4921TP3      O26581   2.515   3.695   2.531  0.3188 -0.5559  0.5476
 4921TP3     H126582   2.544   3.669   2.444 -0.3185  0.9675 -0.1592
 4921TP3     H226583   2.456   3.625   2.558 -0.3413 -0.5278 -0.7261
 4922TP3      O26584   2.843   0.095   0.490  0.0606  0.4276 -0.5386
 4922TP3     H126585   2.807   0.034   0.426  0.6992  0.1603 -0.6554
 4922TP3     H226586   2.821   0.182   0.456 -0.2361  0.2720 -0.7417
 4923TP3      O26587   1.577   0.343   8.452  0.4900  0.2554 -0.0628
 4923TP3     H126588   1.558   0.250   8.443  0.8864  0.3502 -2.5849
 4923TP3     H226589   1.492   0.385   8.458  0.2836 -0.2190  0.3194
 4924TP3      O26590   0.757   3.919   2.226  0.5091  0.4356 -0.6567
 4924TP3     H126591   0.738   3.826   2.212 -0.0731  0.4752 -0.2045
 4924TP3     H226592   0.848   3.921   2.256  0.6551  0.0506 -1.0703
 4925TP3      O26593   2.204   2.351   2.658  0.1014  0.0254  1.0533
 4925TP3     H126594   2.268   2.372   2.726 -0.3658 -0.2851  1.5816
 4925TP3     H226595   2.232   2.405   2.583  1.1045 -0.2590  1.2084
 4926TP3      O26596   2.518   0.550   1.251 -0.0210 -0.2256 -0.1020
 4926TP3     H126597   2.467   0.476   1.284 -1.6915 -0.1846 -2.3457
 4926TP3     H226598   2.456   0.623   1.251  0.3435  0.1154 -1.8414
 4927TP3      O26599   4.451   3.997   2.880  0.0217 -0.0956 -0.1046
 4927TP3     H126600   4.358   4.003   2.900  0.3142 -0.5806  1.6079
 4927TP3     H226601   4.492   3.974   2.964  1.7786  1.0062 -0.6012
 4928TP3      O26602   0.401   3.529   0.469  0.1898  0.5665  0.0913
 4928TP3     H126603   0.406   3.576   0.552 -0.1293 -0.3238  0.6342
 4928TP3     H226604   0.389   3.437   0.494  0.9840  0.1582 -0.9308
 4929TP3      O26605   3.202   2.605   1.330  0.4331  0.0356 -0.0418
 4929TP3     H126606   3.226   2.683   1.379  2.7725  1.1248 -2.6311
 4929TP3     H226607   3.274   2.544   1.345 -0.5666 -1.0202  0.6287
 4930TP3      O26608   2.133   1.866   3.047 -0.3211 -0.5605  0.0562
 4930TP3     H126609   2.209   1.892   2.995 -0.3127 -0.3990  0.1463
 4930TP3     H226610   2.085   1.805   2.992  0.8461 -2.1041  0.6997
 4931TP3      O26611   3.681   1.988   8.273  0.0977 -0.3570 -0.2770
 4931TP3     H126612   3.674   1.947   8.359  0.3904  0.3297  0.0841
 4931TP3     H226613   3.627   1.934   8.216  0.6397 -1.3569  0.1333
 4932TP3      O26614   1.079   2.496   7.864 -0.3283 -0.3144 -1.1726
 4932TP3     H126615   1.142   2.462   7.800 -0.4464 -1.5033 -0.6862
 4932TP3     H226616   1.009   2.534   7.811  0.2299 -0.0456 -1.7289
 4933TP3      O26617   4.997   4.620   1.362 -0.3668  0.0814 -0.1112
 4933TP3     H126618   4.969   4.711   1.373  0.6804  0.6903 -1.9503
 4933TP3     H226619   5.050   4.622   1.283  0.1178 -2.0575  0.1184
 4934TP3      O26620   2.290   0.318   1.779 -0.3540 -0.0473 -0.7826
 4934TP3     H126621   2.344   0.304   1.856 -0.8830 -0.3477 -0.4594
 4934TP3     H226622   2.290   0.234   1.734 -2.5995 -0.8553  0.5570
 4935TP3      O26623   1.354   5.256   8.929  0.0974  0.0179  0.8078
 4935TP3     H126624   1.441   5.293   8.921  0.2341 -0.5491 -0.8512
 4935TP3     H226625   1.321   5.254   8.839 -0.2408 -3.0031  0.8846
 4936TP3      O26626   2.608   1.764   3.585  0.4433  0.3897 -0.3618
 4936TP3     H126627   2.541   1.711   3.542 -0.8690  1.2713  0.5214
 4936TP3     H226628   2.689   1.743   3.537 -0.5231 -0.3695 -1.7521
 4937TP3      O26629   3.571   0.619   7.123  0.4670  0.3093 -0.4268
 4937TP3     H126630   3.490   0.666   7.103  1.6212  2.4750 -0.3640
 4937TP3     H226631   3.563   0.536   7.077 -0.7552  1.4789 -2.4983
 4938TP3      O26632   0.980   0.455   8.003  0.1012  0.0439 -0.6475
 4938TP3     H126633   0.977   0.483   8.094 -1.0920  0.3202 -0.7539
 4938TP3     H226634   1.056   0.397   7.998 -1.1155 -1.8393  1.0793
 4939TP3      O26635   4.811   5.211   1.515 -0.7526  0.1481  0.1566
 4939TP3     H126636   4.824   5.233   1.423  0.2363 -0.2265  0.1926
 4939TP3     H226637   4.718   5.189   1.521 -0.8991  0.4853 -0.6789
 4940TP3      O26638   3.109   3.107   9.520 -0.5448  0.1147 -0.5171
 4940TP3     H126639   3.128   3.188   9.472  0.0150 -0.3310 -1.0574
 4940TP3     H226640   3.029   3.074   9.480 -0.1645 -0.1749 -1.0435
 4941TP3      O26641   1.972   1.793  10.053 -0.0414 -0.0752 -0.0692
 4941TP3     H126642   2.046   1.850  10.030 -0.0900 -0.6285 -1.7129
 4941TP3     H226643   1.901   1.823   9.997 -0.5508 -0.7168  0.2227
 4942TP3      O26644   1.290   2.092   2.669  0.1584 -0.1615  0.0520
 4942TP3     H126645   1.383   2.086   2.693  0.7257  1.9927 -1.3337
 4942TP3     H226646   1.245   2.041   2.737  2.2822 -0.7726  1.1056
 4943TP3      O26647   4.605   4.543   1.825  0.0041 -0.1752 -0.6781
 4943TP3     H126648   4.607   4.637   1.808  0.8196 -0.2965 -1.3373
 4943TP3     H226649   4.652   4.504   1.751  1.3539 -0.9409  0.5338
 4944TP3      O26650   2.191   1.890   1.619  0.7169  0.2808  0.4818
 4944TP3     H126651   2.160   1.807   1.657  0.3103  0.7783  1.2844
 4944TP3     H226652   2.286   1.882   1.619  0.6908 -0.0771  0.8228
 4945TP3      O26653   0.652   0.867   9.560 -0.7313  0.2480  0.2951
 4945TP3     H126654   0.674   0.775   9.548 -1.6846  0.2252 -1.7963
 4945TP3     H226655   0.589   0.869   9.632 -1.6771 -0.9182 -0.4698
 4946TP3      O26656   4.964   0.367   7.668  0.0663 -0.7064  0.1687
 4946TP3     H126657   5.031   0.395   7.606  0.3240  1.1146  1.2194
 4946TP3     H226658   5.014   0.336   7.744 -0.1877  1.9636  1.5306
 4947TP3      O26659   4.498   1.312   2.401 -0.5237 -0.1457 -0.0129
 4947TP3     H126660   4.586   1.343   2.424 -0.3522 -0.6094 -0.0335
 4947TP3     H226661   4.440   1.360   2.460 -0.4745  1.8069 -1.4188
 4948TP3      O26662   2.359   0.326   2.567 -0.0555 -0.2129 -0.1749
 4948TP3     H126663   2.348   0.234   2.543 -0.1664 -0.1343 -0.4237
 4948TP3     H226664   2.290   0.343   2.631  0.3869 -0.4866  0.3885
 4949TP3      O26665   0.485   0.209   2.214  0.3292  0.3793 -0.0782
 4949TP3     H126666   0.427   0.206   2.137  0.2959  0.7118 -0.0665
 4949TP3     H226667   0.435   0.256   2.280 -0.3067 -1.3179  0.7200
 4950TP3      O26668   0.192   1.906   0.282  0.0805  0.0233 -0.0535
 4950TP3     H126669   0.211   1.874   0.370 -0.7815 -1.9147 -0.5371
 4950TP3     H226670   0.097   1.902   0.274  0.1151  0.5223 -0.9672
 4951TP3      O26671   3.956   1.908   2.377 -0.0016 -0.2675  0.1093
 4951TP3     H126672   4.050   1.922   2.379 -0.0563  0.0907  0.2029
 4951TP3     H226673   3.941   1.851   2.301  0.2332  0.0651 -0.1848
 4952TP3      O26674   3.071   4.647   9.926  0.2045 -0.5800 -0.2029
 4952TP3     H126675   2.977   4.663   9.926 -0.0987 -2.1666  0.3657
 4952TP3     H226676   3.080   4.554   9.907  1.7001 -0.3384 -0.8532
 4953TP3      O26677   3.869   4.984   9.394 -0.3207 -1.2584 -0.0219
 4953TP3     H126678   3.828   4.941   9.469  0.0788 -0.2248  0.8094
 4953TP3     H226679   3.829   5.071   9.392 -0.1060 -1.1720 -0.8372
 4954TP3      O26680   2.713   3.533   8.169  0.1872  0.0120 -0.1581
 4954TP3     H126681   2.645   3.504   8.231  0.1342 -1.0670 -0.6971
 4954TP3     H226682   2.729   3.625   8.192 -1.1655  0.1725  0.2418
 4955TP3      O26683   2.642   1.960   9.271 -0.7713 -0.1155 -0.2990
 4955TP3     H126684   2.645   1.883   9.215 -1.0273 -0.3910  0.0574
 4955TP3     H226685   2.727   1.963   9.314 -0.9629 -0.5257  0.1128
 4956TP3      O26686   4.876   0.183   7.945 -0.2667  0.0563 -0.5004
 4956TP3     H126687   4.806   0.122   7.970  0.6438 -0.5419  0.6323
 4956TP3     H226688   4.844   0.269   7.975 -1.0747  0.0032 -1.1509
 4957TP3      O26689   1.381   4.234   2.346 -0.0441  0.1497 -0.0711
 4957TP3     H126690   1.395   4.278   2.430  5.0937 -0.3753 -0.3654
 4957TP3     H226691   1.343   4.149   2.370 -0.3679  0.7074  1.5203
 4958TP3      O26692   4.672   3.435   3.470  0.1298  0.5899 -0.6750
 4958TP3     H126693   4.643   3.374   3.403 -1.4575  0.5825 -0.0297
 4958TP3     H226694   4.753   3.472   3.435 -0.7066  0.6910 -2.6574
 4959TP3      O26695   4.817   2.285   2.725  0.2482  0.1747 -0.1684
 4959TP3     H126696   4.857   2.321   2.646  1.8482 -3.0392 -1.0032
 4959TP3     H226697   4.729   2.259   2.697  0.2837  0.3962 -0.4902
 4960TP3      O26698   4.799   1.366   6.999 -0.2778 -0.1081  0.4420
 4960TP3     H126699   4.763   1.280   7.019  1.7416 -1.0230  0.2907
 4960TP3     H226700   4.735   1.428   7.036 -2.2873 -1.6100 -0.3415
 4961TP3      O26701   0.649   5.115   1.463  0.0966  0.4799 -0.2411
 4961TP3     H126702   0.730   5.109   1.411 -0.8675 -0.1272 -1.7337
 4961TP3     H226703   0.604   5.032   1.448 -1.2948  1.2079 -0.2711
 4962TP3      O26704   2.719   5.264   9.020  0.4927  0.4115  0.0597
 4962TP3     H126705   2.648   5.307   8.972 -1.2234 -1.5195  0.7415
 4962TP3     H226706   2.780   5.235   8.951  0.2913  1.4722 -0.5905
 4963TP3      O26707   0.134   3.455   0.562  0.1733 -0.0746 -0.5847
 4963TP3     H126708   0.215   3.406   0.577  0.9945  0.2833 -3.2938
 4963TP3     H226709   0.112   3.492   0.647  2.4665 -0.7807  0.3928
 4964TP3      O26710   4.091   5.126   9.155  0.4168 -0.6421  0.3187
 4964TP3     H126711   4.100   5.046   9.208 -1.5916 -0.0766  1.6460
 4964TP3     H226712   4.039   5.098   9.080  0.3449 -0.7458  0.4051
 4965TP3      O26713   2.042   4.569   3.356 -0.2898 -0.1027 -0.0115
 4965TP3     H126714   1.979   4.497   3.353  1.7340 -2.0588  1.2758
 4965TP3     H226715   2.127   4.526   3.362  1.1164  2.4291 -0.4370
 4966TP3      O26716   2.653   0.468   9.718 -0.5698 -0.1986  0.2031
 4966TP3     H126717   2.713   0.494   9.788  0.3347 -1.3131 -0.1200
 4966TP3     H226718   2.565   0.482   9.755 -0.1297 -1.3471  1.8135
 4967TP3      O26719   4.999   5.027   9.367  0.5226  0.4799 -0.3777
 4967TP3     H126720   4.974   4.948   9.318 -1.6901 -0.1610  1.5672
 4967TP3     H226721   4.957   5.016   9.452  1.4226  3.0844  0.4982
 4968TP3      O26722   1.058   1.100   7.883 -0.1195 -0.4100 -0.0540
 4968TP3     H126723   1.076   1.148   7.964  1.6731 -0.2034 -0.5441
 4968TP3     H226724   1.143   1.065   7.856 -0.9198 -1.5882 -1.1601
 4969TP3      O26725   1.408   0.386   1.366  0.0548 -0.3736 -0.2992
 4969TP3     H126726   1.415   0.479   1.384 -0.9212 -0.8038  2.9594
 4969TP3     H226727   1.340   0.379   1.300 -0.6903  1.1612  0.2631
 4970TP3      O26728   2.876   0.147   7.618  0.5344  0.0849  0.3243
 4970TP3     H126729   2.965   0.110   7.613  0.1697 -1.2604  2.4836
 4970TP3     H226730   2.844   0.143   7.528  1.4758 -2.5920  0.0163
 4971TP3      O26731   3.010   1.543   8.473 -0.3260  0.3070  0.5557
 4971TP3     H126732   2.925   1.548   8.517 -0.0100  2.0346  1.0372
 4971TP3     H226733   3.074   1.549   8.544  0.2555 -1.5334  0.2566
 4972TP3      O26734   0.995   0.987   8.581  0.0905  0.2092 -0.2302
 4972TP3     H126735   1.020   0.987   8.674 -0.4227 -3.1720  0.0145
 4972TP3     H226736   1.077   0.967   8.535  0.0925  0.6529 -0.4257
 4973TP3      O26737   4.309   5.080   1.899  0.0697  0.4050 -0.3999
 4973TP3     H126738   4.308   5.116   1.988  0.2912 -0.6098  0.0193
 4973TP3     H226739   4.381   5.127   1.856  1.2397 -0.4579  0.5411
 4974TP3      O26740   3.432   3.994   2.047 -0.0567 -0.2456  0.4506
 4974TP3     H126741   3.486   3.918   2.027 -2.3390 -1.8601  0.0225
 4974TP3     H226742   3.375   4.003   1.971 -0.0486  1.7474  0.6330
 4975TP3      O26743   4.794   1.774   2.756  0.6912  0.3080  0.1365
 4975TP3     H126744   4.791   1.862   2.794 -0.5600  0.0946  0.5531
 4975TP3     H226745   4.770   1.786   2.665  1.1002  0.4691  0.0479
 4976TP3      O26746   1.704   0.768   1.316 -0.3204  0.4740 -0.3910
 4976TP3     H126747   1.625   0.821   1.329  0.5888  2.1683 -1.4715
 4976TP3     H226748   1.759   0.820   1.257 -0.3023 -2.6731 -3.4490
 4977TP3      O26749   1.442   3.300   8.698  0.5541 -0.0837 -0.1270
 4977TP3     H126750   1.484   3.371   8.650  1.4336  0.3856  1.2848
 4977TP3     H226751   1.397   3.344   8.770 -1.3245 -0.7012 -0.8579
 4978TP3      O26752   5.168   2.955   0.055 -0.2446  0.3207 -0.4796
 4978TP3     H126753   5.237   3.000   0.007  0.9417  1.0381  1.7483
 4978TP3     H226754   5.086   2.994   0.024  0.5183  1.2317 -1.3790
 4979TP3      O26755   4.728   2.249   9.562  0.1946  0.4656  0.1763
 4979TP3     H126756   4.646   2.206   9.588  0.4936 -0.2436 -0.0415
 4979TP3     H226757   4.700   2.317   9.501 -0.1046 -0.9803 -1.3916
 4980TP3      O26758   5.150   0.291   8.292  0.4436 -0.6370  0.1475
 4980TP3     H126759   5.170   0.261   8.203  1.2030 -0.5855  0.2945
 4980TP3     H226760   5.205   0.368   8.305  0.4239 -0.7112  0.7073
 4981TP3      O26761   1.756   1.695   7.965 -0.0741 -0.0761  0.7246
 4981TP3     H126762   1.791   1.766   8.019  0.0101  1.6108 -1.4110
 4981TP3     H226763   1.702   1.739   7.899 -0.1309 -2.0163 -0.6163
 4982TP3      O26764   3.505   3.282   2.982  0.1004 -0.1786  0.3854
 4982TP3     H126765   3.434   3.325   3.031  0.8176  1.2909  0.1977
 4982TP3     H226766   3.465   3.203   2.946 -0.8785 -0.4486  1.9823
 4983TP3      O26767   1.357   2.661   9.308  0.2594  0.1326 -0.6996
 4983TP3     H126768   1.320   2.598   9.370  1.9086  2.5883  3.1609
 4983TP3     H226769   1.283   2.691   9.256 -0.9081 -3.3581 -1.3366
 4984TP3      O26770   0.571   2.284   9.060  0.1838 -0.0533 -0.3818
 4984TP3     H126771   0.543   2.375   9.053 -0.5372 -0.1609  0.8486
 4984TP3     H226772   0.666   2.287   9.051  0.1792  0.8449 -0.1629
 4985TP3      O26773   1.054   1.549   9.443 -0.1115  0.0110  0.1732
 4985TP3     H126774   0.965   1.580   9.459 -1.5710 -3.2127 -0.8338
 4985TP3     H226775   1.076   1.580   9.356 -0.8452 -0.3149 -0.1337
 4986TP3      O26776   3.677   0.603   0.227  0.0783 -0.3166 -0.4669
 4986TP3     H126777   3.685   0.569   0.138 -1.3687  0.6160 -0.9950
 4986TP3     H226778   3.752   0.662   0.237  0.5892 -0.8916 -0.8373
 4987TP3      O26779   4.346   1.507   1.968 -0.0194 -0.2700  0.1265
 4987TP3     H126780   4.427   1.535   2.011  0.1735 -2.9225  1.6924
 4987TP3     H226781   4.373   1.437   1.909 -0.9861 -0.0313 -0.6247
 4988TP3      O26782   4.858   1.834   6.895 -0.9762  0.0148 -0.2764
 4988TP3     H126783   4.777   1.786   6.912 -0.5238 -1.1131 -1.1582
 4988TP3     H226784   4.830   1.914   6.851 -1.8259  1.0983  2.0777
 4989TP3      O26785   4.464   0.393   9.381 -0.4057  0.2624 -0.0519
 4989TP3     H126786   4.451   0.351   9.296  0.4039  0.5858 -0.3522
 4989TP3     H226787   4.385   0.373   9.431 -1.1642  0.6026 -1.0945
 4990TP3      O26788   1.736   3.295   1.848 -0.0098 -0.4306 -0.8710
 4990TP3     H126789   1.664   3.264   1.904 -0.3881 -0.2513 -1.2482
 4990TP3     H226790   1.813   3.292   1.905 -0.1336 -1.5325 -0.7376
 4991TP3      O26791   4.498   4.067   7.332 -0.2910  0.0511 -0.6116
 4991TP3     H126792   4.408   4.065   7.299  0.3460 -0.5185 -2.4193
 4991TP3     H226793   4.522   4.160   7.329 -0.6496  0.1472 -0.5739
 4992TP3      O26794   3.536   3.829   1.609  0.4138  0.0660 -0.3787
 4992TP3     H126795   3.604   3.853   1.546  0.1492  0.0646 -0.6740
 4992TP3     H226796   3.455   3.835   1.558  0.1580  0.4068  0.0577
 4993TP3      O26797   4.333   4.115   0.379 -0.4030 -0.1532  0.1396
 4993TP3     H126798   4.299   4.072   0.300 -0.9708  2.2337 -1.0085
 4993TP3     H226799   4.428   4.120   0.365 -0.5409  0.5767 -0.5785
 4994TP3      O26800   3.224   2.200   1.440 -0.8094 -0.6222 -0.2031
 4994TP3     H126801   3.202   2.107   1.437 -0.6864 -0.6873  0.6123
 4994TP3     H226802   3.300   2.204   1.498 -1.4671  0.0975  0.6333
 4995TP3      O26803   5.009   2.163   2.972 -0.1583  0.2926  0.1892
 4995TP3     H126804   5.096   2.143   3.008  0.0881  0.7587 -0.1314
 4995TP3     H226805   4.980   2.239   3.022 -0.0803  0.5634 -0.1719
 4996TP3      O26806   2.138   3.266   0.737 -0.1842  0.2605 -0.1612
 4996TP3     H126807   2.098   3.353   0.734  0.3290  0.5068  0.0763
 4996TP3     H226808   2.098   3.219   0.663  0.5420  1.1384 -1.1385
 4997TP3      O26809   1.201   3.697   2.310  0.0975  0.1080 -0.0065
 4997TP3     H126810   1.278   3.646   2.286 -0.2144 -1.5840  2.2075
 4997TP3     H226811   1.129   3.656   2.260  0.3312  0.4472 -0.6256
 4998TP3      O26812   3.413   0.295   6.686 -0.0582  0.2285 -0.0962
 4998TP3     H126813   3.435   0.211   6.726  1.3811  0.6686  0.0906
 4998TP3     H226814   3.405   0.356   6.759 -0.2671  0.4336 -0.2881
 4999TP3      O26815   4.401   0.232   1.942  0.8336 -0.2431  0.0005
 4999TP3     H126816   4.421   0.325   1.949  1.1572 -0.2993 -0.1210
 4999TP3     H226817   4.486   0.189   1.953  0.9348 -0.4571 -1.3922
 5000TP3      O26818   0.879   1.423   8.144 -0.0897  0.0386  0.1368
 5000TP3     H126819   0.928   1.366   8.085  0.6244  0.7037  0.0697
 5000TP3     H226820   0.791   1.387   8.144  0.4158 -1.2540  0.3527
 5001TP3      O26821   4.508   1.924  10.004 -0.2450 -0.1332  0.6934
 5001TP3     H126822   4.553   1.991   9.953 -0.2943 -0.6222 -0.0039
 5001TP3     H226823   4.535   1.841   9.965  0.5228 -0.5932  2.1042
 5002TP3      O26824   0.738   3.556   0.384  0.0209 -0.0357  0.6410
 5002TP3     H126825   0.798   3.509   0.442 -0.2740 -0.7121  0.4084
 5002TP3     H226826   0.699   3.487   0.330 -1.6505  0.2930  1.3835
 5003TP3      O26827   1.888   0.585   1.637 -0.2878  0.1273 -0.0769
 5003TP3     H126828   1.982   0.571   1.629 -0.4881 -0.9139 -0.9421
 5003TP3     H226829   1.868   0.651   1.571 -0.3777 -0.8285 -1.0437
 5004TP3      O26830   3.585   4.139   3.150  0.2876 -0.6453 -0.3099
 5004TP3     H126831   3.524   4.084   3.100 -0.8466 -0.5758  0.9311
 5004TP3     H226832   3.583   4.103   3.238  2.1298 -0.6660 -0.2363
 5005TP3      O26833   5.097   0.346   2.105 -0.2964 -0.3701 -0.5066
 5005TP3     H126834   5.148   0.283   2.054 -0.2091  0.1549 -1.0686
 5005TP3     H226835   5.143   0.429   2.095  0.5672 -0.5268  1.6402
 5006TP3      O26836   2.066   3.822   7.386  0.0661  0.0329  0.0623
 5006TP3     H126837   2.036   3.760   7.320 -0.3810  0.2326  0.0793
 5006TP3     H226838   2.121   3.883   7.338 -2.3602  1.7695 -0.6678
 5007TP3      O26839   0.067   0.183   2.782 -0.2989 -0.2804  0.5325
 5007TP3     H126840   0.152   0.220   2.805  0.6557 -3.1189  2.0295
 5007TP3     H226841   0.026   0.163   2.866 -2.3980  0.7620 -0.1640
 5008TP3      O26842   0.801   5.199   3.146 -0.3874 -0.4439 -0.2923
 5008TP3     H126843   0.868   5.198   3.077  0.1902 -0.2878  0.2565
 5008TP3     H226844   0.722   5.166   3.103  0.0812 -0.7880 -0.9120
 5009TP3      O26845   0.365   1.642   1.596 -0.3612 -0.0194 -0.1438
 5009TP3     H126846   0.348   1.644   1.502  1.7407  0.2703 -0.5547
 5009TP3     H226847   0.320   1.719   1.631  1.5534  1.8104 -1.4620
 5010TP3      O26848   4.088   3.346   1.595 -0.0685 -0.0154 -0.5990
 5010TP3     H126849   4.126   3.264   1.563 -1.7662 -1.1371  0.0897
 5010TP3     H226850   4.158   3.410   1.586  1.9186 -1.8883  0.4531
 5011TP3      O26851   0.360   3.164   0.272  0.4749 -0.4287  0.1341
 5011TP3     H126852   0.348   3.178   0.178 -2.2778 -1.4882  0.2235
 5011TP3     H226853   0.352   3.069   0.283 -1.2104 -0.1736  1.5861
 5012TP3      O26854   4.321   5.221   2.117  0.0302 -0.7410 -0.3439
 5012TP3     H126855   4.367   5.297   2.152 -1.9107  1.4590 -2.2219
 5012TP3     H226856   4.238   5.218   2.165 -0.7987 -0.3283 -1.6779
 5013TP3      O26857   0.830   4.585   0.602  0.4403 -0.1319 -0.1671
 5013TP3     H126858   0.824   4.555   0.511  0.7332  0.0224 -0.2368
 5013TP3     H226859   0.921   4.610   0.613  0.0984  1.2411 -0.2737
 5014TP3      O26860   1.829   4.040   0.020  0.1371 -0.4695  0.4623
 5014TP3     H126861   1.897   4.083   0.072 -0.6778  1.6044 -0.0898
 5014TP3     H226862   1.761   4.019   0.084 -0.1378  0.5423  0.5225
 5015TP3      O26863   0.763   2.759   9.706 -0.1953  0.3166 -0.1546
 5015TP3     H126864   0.802   2.837   9.746  1.5500 -0.2623 -0.6391
 5015TP3     H226865   0.733   2.707   9.781 -3.0033  2.1768  0.1350
 5016TP3      O26866   2.735   1.630   7.677 -0.0580 -0.6309  0.2641
 5016TP3     H126867   2.678   1.562   7.641  0.6703 -2.4774  2.3901
 5016TP3     H226868   2.750   1.603   7.768  1.7781  1.4126  0.6434
 5017TP3      O26869   4.535   0.257  10.015 -0.2796 -0.5549 -0.1867
 5017TP3     H126870   4.508   0.277   9.925  0.6963 -1.1520 -0.6166
 5017TP3     H226871   4.598   0.186  10.007 -0.3784 -0.8026  0.9993
 5018TP3      O26872   2.638   1.297   8.374  0.3235 -0.1055  0.0899
 5018TP3     H126873   2.698   1.333   8.440 -0.5419 -0.3605  1.0307
 5018TP3     H226874   2.554   1.339   8.393 -0.4275 -1.7254  0.4664
 5019TP3      O26875   3.366   1.551   1.482 -0.2424  0.3561  0.5023
 5019TP3     H126876   3.321   1.611   1.541 -2.0320 -1.2664  0.8939
 5019TP3     H226877   3.428   1.504   1.540  0.4203  1.0734  0.3929
 5020TP3      O26878   0.703   3.482   9.840  0.3836  0.4444  0.3866
 5020TP3     H126879   0.754   3.562   9.829 -0.3968  0.8327 -0.5789
 5020TP3     H226880   0.627   3.509   9.892  0.5082  0.1424  0.7378
 5021TP3      O26881   1.775   4.687   7.522  0.7811 -0.0884 -0.3332
 5021TP3     H126882   1.740   4.729   7.444 -0.9318 -1.4691 -0.3790
 5021TP3     H226883   1.738   4.738   7.595 -0.3327 -0.7462 -0.4081
 5022TP3      O26884   0.348   4.439   0.798 -0.2778 -0.0862 -0.1017
 5022TP3     H126885   0.431   4.471   0.835 -0.2400 -0.1245 -0.1523
 5022TP3     H226886   0.288   4.437   0.872 -0.3920  0.4756 -0.1760
 5023TP3      O26887   1.698   1.602   8.981 -0.0732  0.4758  0.2969
 5023TP3     H126888   1.650   1.615   8.899 -1.9497 -0.5354  1.1593
 5023TP3     H226889   1.696   1.507   8.995  0.5532  0.5997  1.3160
 5024TP3      O26890   1.322   4.319   2.101  0.0139 -0.0268 -0.7982
 5024TP3     H126891   1.240   4.365   2.119  0.2956  0.5536 -0.9714
 5024TP3     H226892   1.348   4.283   2.186  0.7604  1.7442 -0.2365
 5025TP3      O26893   0.398   0.771   3.010 -0.2389 -0.3373  0.2813
 5025TP3     H126894   0.491   0.792   3.015  0.0367  0.4430 -3.9548
 5025TP3     H226895   0.392   0.680   3.038  1.9986 -0.7539 -0.4148
 5026TP3      O26896   5.111   0.634   7.859 -0.2250  0.4886  0.2633
 5026TP3     H126897   5.151   0.558   7.817 -1.0229 -0.2255  0.7576
 5026TP3     H226898   5.160   0.645   7.941  1.3086  1.8612 -0.7831
 5027TP3      O26899   1.196   0.202   8.947 -0.1843  0.1710 -0.7092
 5027TP3     H126900   1.236   0.117   8.963 -0.9734  0.1214  1.2547
 5027TP3     H226901   1.213   0.252   9.027 -0.1802  1.6849 -1.6204
 5028TP3      O26902   4.447   0.901   2.436  0.4219  0.0177 -0.0557
 5028TP3     H126903   4.460   0.965   2.506  0.3502  0.9223 -0.8486
 5028TP3     H226904   4.357   0.871   2.449  0.3000  0.4174  0.0532
 5029TP3      O26905   1.286   1.337   2.172 -0.1288 -0.3403  0.0009
 5029TP3     H126906   1.268   1.428   2.193 -1.0341 -0.5470  0.1395
 5029TP3     H226907   1.298   1.295   2.258  3.3235  0.2083 -0.0773
 5030TP3      O26908   2.073   2.985   2.658 -0.2168  0.0905  0.0978
 5030TP3     H126909   2.034   3.000   2.572 -1.1907  2.1365  0.8072
 5030TP3     H226910   2.101   2.894   2.657  0.3452  0.2127 -2.5754
 5031TP3      O26911   2.591   3.106   0.933 -0.2332  0.0822  0.1764
 5031TP3     H126912   2.658   3.041   0.953  0.3192  0.5479 -0.1276
 5031TP3     H226913   2.523   3.056   0.887  0.8359 -0.0377 -1.3477
 5032TP3      O26914   2.284   3.533   2.306  0.4750  0.3681 -0.0999
 5032TP3     H126915   2.208   3.506   2.357 -0.7091  1.8316 -1.0303
 5032TP3     H226916   2.283   3.476   2.229  0.8917 -0.2413  0.3327
 5033TP3      O26917   0.168   2.060   8.245 -0.2617 -0.3776  0.0488
 5033TP3     H126918   0.094   2.002   8.256 -1.3649  1.0793  0.6345
 5033TP3     H226919   0.148   2.110   8.165 -0.7113  1.0899  1.0339
 5034TP3      O26920   1.917   3.555   1.195  0.1032 -0.3203  0.0070
 5034TP3     H126921   1.954   3.473   1.162  1.0519 -0.1982  0.7266
 5034TP3     H226922   1.978   3.622   1.167 -0.3243  0.0694 -0.0103
 5035TP3      O26923   0.948   0.513   0.707  0.1779 -0.2629 -0.2188
 5035TP3     H126924   0.871   0.517   0.650 -1.4189 -0.2444  1.8189
 5035TP3     H226925   0.932   0.580   0.773  3.4267  1.8930 -1.3496
 5036TP3      O26926   2.447   3.276   0.252  0.6232 -0.4060 -0.0176
 5036TP3     H126927   2.536   3.241   0.252  1.5990  1.8277  1.6583
 5036TP3     H226928   2.423   3.281   0.344 -2.0487 -2.6667 -0.4591
 5037TP3      O26929   4.127   4.726   1.432  0.2089 -0.7195 -0.2408
 5037TP3     H126930   4.076   4.801   1.400  1.9914  0.2782 -0.9349
 5037TP3     H226931   4.075   4.649   1.409 -1.2919  0.2571 -0.2510
 5038TP3      O26932   2.450   4.511   8.291  0.7038  0.0458 -0.0289
 5038TP3     H126933   2.379   4.451   8.314 -0.1238  1.1700  0.4753
 5038TP3     H226934   2.523   4.485   8.346  1.0363 -1.7455 -1.2367
 5039TP3      O26935   3.239   4.424   2.324 -0.1330  0.3546 -0.5335
 5039TP3     H126936   3.264   4.413   2.415  0.8680 -1.5326 -0.9794
 5039TP3     H226937   3.165   4.485   2.326  0.3670  0.9518  1.4361
 5040TP3      O26938   2.215   0.064   1.690  0.5820  0.3294  0.6026
 5040TP3     H126939   2.215   0.066   1.594  0.0131  1.3365  0.6087
 5040TP3     H226940   2.133   0.019   1.712  0.0088  1.3442  0.6088
 5041TP3      O26941   2.513   0.803   9.794  0.1462  0.1486 -0.2557
 5041TP3     H126942   2.603   0.773   9.779  0.4395  2.1261 -3.5048
 5041TP3     H226943   2.508   0.820   9.888  2.4033 -2.1853  0.3765
 5042TP3      O26944   3.213   2.792   0.023 -0.1081  0.0266  0.7745
 5042TP3     H126945   3.180   2.880   0.040  1.2546  0.6036  0.5577
 5042TP3     H226946   3.305   2.795   0.048  0.7735 -0.4487 -2.0205
 5043TP3      O26947   4.749   3.289   8.620 -0.0464 -0.1430 -0.0387
 5043TP3     H126948   4.717   3.224   8.683 -0.7440  0.5681  0.3599
 5043TP3     H226949   4.823   3.330   8.664 -0.2616  0.0524  0.1440
 5044TP3      O26950   0.294   2.925   2.573  0.2492 -0.3600  0.2805
 5044TP3     H126951   0.228   2.983   2.612  0.8752  0.1347  0.6227
 5044TP3     H226952   0.273   2.839   2.609 -1.5504 -0.6593 -1.3134
 5045TP3      O26953   3.194   0.249   2.960  0.2252  0.0992  0.0563
 5045TP3     H126954   3.134   0.276   3.030 -0.2958 -1.0003  0.0469
 5045TP3     H226955   3.272   0.218   3.007 -0.3889 -1.2905  0.2087
 5046TP3      O26956   0.678   1.884   2.485 -0.0194 -0.0484  0.2086
 5046TP3     H126957   0.635   1.947   2.426  0.1744  0.1339  0.2617
 5046TP3     H226958   0.606   1.831   2.520 -0.2738  0.6541  0.7729
 5047TP3      O26959   0.400   3.733   6.670 -0.3493 -0.1254 -0.6778
 5047TP3     H126960   0.436   3.729   6.581 -1.3950  0.7720 -1.1681
 5047TP3     H226961   0.359   3.648   6.683  1.7391 -1.1060 -0.1707
 5048TP3      O26962   2.844   1.110   1.232 -0.0272 -0.0699  0.4685
 5048TP3     H126963   2.821   1.021   1.259  1.0328 -0.1465  1.2276
 5048TP3     H226964   2.774   1.165   1.266 -1.1695 -0.7004 -0.8032
 5049TP3      O26965   1.410   4.361   9.200 -0.0191 -0.0828  0.3079
 5049TP3     H126966   1.350   4.352   9.274 -0.4815 -2.4868 -0.2899
 5049TP3     H226967   1.370   4.429   9.145 -0.6300  0.4285  1.3520
 5050TP3      O26968   4.738   2.471   7.274  0.3215 -0.3269 -0.2204
 5050TP3     H126969   4.694   2.403   7.325 -1.5230 -0.7247 -2.1993
 5050TP3     H226970   4.669   2.535   7.254  0.7539 -0.5486 -2.7343
 5051TP3      O26971   1.195   4.847   2.742 -0.2083  0.1643  0.2497
 5051TP3     H126972   1.165   4.873   2.655  1.8960  2.4673  0.1028
 5051TP3     H226973   1.183   4.925   2.796  0.5647 -0.5290  1.4816
 5052TP3      O26974   0.153   2.890   8.826 -0.0793  0.4994  0.3849
 5052TP3     H126975   0.064   2.877   8.859 -0.1004  0.8723  0.4794
 5052TP3     H226976   0.192   2.803   8.828 -0.9279  0.0543 -1.0788
 5053TP3      O26977   4.305   2.886   9.644  0.3391  0.0513 -0.0885
 5053TP3     H126978   4.270   2.925   9.564  1.8683  0.0394 -0.7950
 5053TP3     H226979   4.256   2.805   9.655 -0.7717  0.6873 -0.2920
 5054TP3      O26980   2.885   4.181   3.447 -0.2214  0.5469 -0.4445
 5054TP3     H126981   2.913   4.119   3.514 -2.8596 -0.7925 -0.4533
 5054TP3     H226982   2.870   4.263   3.494  0.4454  0.3702  0.0953
 5055TP3      O26983   4.901   1.327   9.880 -0.2246  0.3174  0.1922
 5055TP3     H126984   4.938   1.394   9.937 -2.7016  0.2179  2.0456
 5055TP3     H226985   4.893   1.249   9.935  0.3318 -0.8317 -1.2506
 5056TP3      O26986   4.431   2.588   1.171 -0.1399 -0.0759 -0.2162
 5056TP3     H126987   4.459   2.504   1.136 -1.5541  0.0951 -1.9061
 5056TP3     H226988   4.506   2.646   1.160  0.4699 -0.8288 -0.0736
 5057TP3      O26989   2.993   3.051   2.978 -0.5398  0.0219  0.0715
 5057TP3     H126990   3.069   3.049   2.921  0.0764 -1.0221  0.8903
 5057TP3     H226991   2.918   3.053   2.919  0.0360 -2.2290 -0.8357
 5058TP3      O26992   4.599   1.562   2.053 -0.0971 -0.1637  0.0872
 5058TP3     H126993   4.589   1.652   2.020 -2.0342 -0.1755  0.4872
 5058TP3     H226994   4.691   1.542   2.040  0.9515  2.7035  2.0561
 5059TP3      O26995   3.716   1.994   2.441  0.3152 -0.0638  0.1813
 5059TP3     H126996   3.802   1.967   2.410 -0.1396 -2.0947  0.5633
 5059TP3     H226997   3.655   1.932   2.400 -0.9528  1.1968  0.0865
 5060TP3      O26998   0.377   0.410   9.934 -0.1218 -0.2732  0.9538
 5060TP3     H126999   0.387   0.440  10.024  0.8046 -0.9032  1.0837
 5060TP3     H227000   0.341   0.322   9.942  0.5579 -0.5770  0.7490
 5061TP3      O27001   3.627   2.767   3.330  0.0456 -0.6068  0.1565
 5061TP3     H127002   3.663   2.737   3.246 -1.5776  0.6696 -1.0534
 5061TP3     H227003   3.550   2.711   3.345  0.4400 -0.9670  0.9408
 5062TP3      O27004   0.462   3.696   2.092 -0.6320  0.1861  0.7657
 5062TP3     H127005   0.387   3.688   2.151 -1.1004  1.0001  0.2861
 5062TP3     H227006   0.425   3.727   2.010  0.3961  2.0363  0.9499
 5063TP3      O27007   3.731   0.236   0.707  0.0586  0.3057 -0.4953
 5063TP3     H127008   3.743   0.162   0.647 -1.0608 -0.3849  0.0902
 5063TP3     H227009   3.772   0.208   0.789 -0.6555  0.1864 -0.1716
 5064TP3      O27010   0.146   0.042   3.098 -0.0600  0.1900  0.0647
 5064TP3     H127011   0.059   0.073   3.074  0.3921  1.2165 -0.3453
 5064TP3     H227012   0.198   0.123   3.108  0.5802 -0.3570  1.3456
 5065TP3      O27013   2.569   4.203   9.762 -0.4551 -0.2348 -0.2820
 5065TP3     H127014   2.553   4.109   9.751 -0.2058 -0.4796  1.2116
 5065TP3     H227015   2.600   4.212   9.852  0.6191  1.1571 -0.7565
 5066TP3      O27016   3.080   1.741   0.362 -0.7181 -0.8207  0.1623
 5066TP3     H127017   3.050   1.772   0.277  1.3742 -1.7598 -1.0115
 5066TP3     H227018   3.006   1.754   0.421 -1.9877  0.5094 -1.6337
 5067TP3      O27019   2.550   4.859   2.063  0.3942  0.2368  0.5187
 5067TP3     H127020   2.468   4.893   2.098  0.4092 -0.5066  1.3155
 5067TP3     H227021   2.545   4.764   2.077  0.0629 -0.2452 -2.2489
 5068TP3      O27022   3.916   3.387   9.722 -0.4379 -0.5323  0.3472
 5068TP3     H127023   4.003   3.386   9.761 -0.2785 -0.8828 -0.0199
 5068TP3     H227024   3.930   3.409   9.630 -0.8413  0.5725  0.5359
 5069TP3      O27025   1.407   3.268   9.615  0.1951 -0.0360 -0.1972
 5069TP3     H127026   1.323   3.240   9.579  0.5094 -0.8331 -0.3283
 5069TP3     H227027   1.457   3.187   9.625  1.6036  0.5753 -1.7624
 5070TP3      O27028   2.134   5.084   9.405  0.1153  0.3750  0.2978
 5070TP3     H127029   2.151   4.999   9.447 -0.6226  0.3372  0.5482
 5070TP3     H227030   2.220   5.124   9.396  0.4543 -0.3258  0.3453
 5071TP3      O27031   1.163   4.929   9.786  0.0119 -0.1083 -0.1421
 5071TP3     H127032   1.224   4.918   9.714  2.2391  0.0371  1.6031
 5071TP3     H227033   1.145   4.840   9.816  0.9683 -0.0906  0.5457
 5072TP3      O27034   3.264   4.771   8.071 -0.0773  0.1893  0.2073
 5072TP3     H127035   3.243   4.753   8.162  0.2205 -0.1425  0.2130
 5072TP3     H227036   3.186   4.744   8.022 -0.8466  1.7550  0.4784
 5073TP3      O27037   2.990   4.432   2.524 -0.1227  0.2015 -0.1248
 5073TP3     H127038   2.998   4.519   2.487 -0.5026 -0.4473 -1.8373
 5073TP3     H227039   3.045   4.434   2.603  0.4252  1.7564 -0.5121
 5074TP3      O27040   1.579   2.100   2.336 -0.1200 -0.2950 -0.2814
 5074TP3     H127041   1.649   2.165   2.340  1.3245 -1.5452 -2.7559
 5074TP3     H227042   1.580   2.058   2.422  0.7929  1.0639  0.4049
 5075TP3      O27043   0.896   1.346   7.792 -0.1080 -0.3967  0.2058
 5075TP3     H127044   0.829   1.385   7.735  0.7542  0.6518 -0.1337
 5075TP3     H227045   0.856   1.266   7.825 -0.6563 -1.0399 -1.8640
 5076TP3      O27046   3.155   4.930   1.036  0.2799  0.2761  0.1084
 5076TP3     H127047   3.147   4.939   0.941 -2.9368  1.5517  0.3676
 5076TP3     H227048   3.099   4.856   1.058 -0.7083  1.2620  1.1121
 5077TP3      O27049   0.245   4.442   7.736  0.6231 -0.4550  0.3087
 5077TP3     H127050   0.202   4.439   7.821  2.5184  0.5116  1.3611
 5077TP3     H227051   0.212   4.522   7.695  0.6550 -0.2609  0.6659
 5078TP3      O27052   0.076   3.187   9.654 -0.1073  0.3910 -0.2991
 5078TP3     H127053   0.044   3.275   9.677 -2.9389 -0.4313 -0.7519
 5078TP3     H227054   0.025   3.128   9.710  0.8460 -1.0398 -0.9022
 5079TP3      O27055   0.945   4.114   0.190  0.2791  0.5882 -0.5269
 5079TP3     H127056   1.010   4.064   0.140 -1.3967 -1.9842 -0.3538
 5079TP3     H227057   0.865   4.061   0.183 -1.1982  2.4909  1.0977
 5080TP3      O27058   4.708   0.839   0.707 -0.1299 -0.3290 -0.1208
 5080TP3     H127059   4.783   0.884   0.747 -0.2348 -0.7477  0.5688
 5080TP3     H227060   4.634   0.899   0.719 -0.4442 -0.9890  1.5189
 5081TP3      O27061   1.162   2.002   1.507 -0.3842  0.0123 -0.0473
 5081TP3     H127062   1.066   1.998   1.504 -0.3288 -1.4776 -0.6696
 5081TP3     H227063   1.190   1.957   1.427  0.8510 -0.1206  0.4455
 5082TP3      O27064   4.478   3.065   8.530 -0.5800  0.0260  0.6285
 5082TP3     H127065   4.464   2.996   8.594 -3.4446 -0.5705 -0.4938
 5082TP3     H227066   4.569   3.091   8.543 -0.0209 -2.4594  2.5358
 5083TP3      O27067   2.739   3.012   2.905 -0.0513  0.4017 -0.0930
 5083TP3     H127068   2.689   3.050   2.977 -0.3830  3.1629 -1.6517
 5083TP3     H227069   2.674   2.994   2.837  0.6969  1.8527 -1.2596
 5084TP3      O27070   3.199   4.977   3.310 -0.2638 -0.1641 -0.1155
 5084TP3     H127071   3.262   4.999   3.379 -0.4841 -0.0954  0.0634
 5084TP3     H227072   3.156   4.897   3.341  0.8435 -1.1273 -0.9672
 5085TP3      O27073   0.151   3.513   2.964  0.6497 -0.0406 -0.7124
 5085TP3     H127074   0.220   3.489   3.026  0.4792  0.5239 -0.2941
 5085TP3     H227075   0.075   3.532   3.019 -0.0476 -1.3254 -1.2103
 5086TP3      O27076   2.208   0.040   1.137 -0.0775  0.4028 -0.1994
 5086TP3     H127077   2.298   0.065   1.113 -0.6418  2.2009 -0.6370
 5086TP3     H227078   2.192  -0.042   1.090  1.6821 -0.5612  0.7725
 5087TP3      O27079   2.075   2.399   8.553  0.5588 -0.1254  0.2116
 5087TP3     H127080   2.062   2.367   8.464  0.2728 -0.5062  0.3874
 5087TP3     H227081   1.989   2.434   8.578  0.4472 -0.6565  0.5878
 5088TP3      O27082   4.943   0.437   1.905  0.2418  0.4736 -0.0926
 5088TP3     H127083   4.964   0.374   1.835  1.5623  1.4279 -0.5972
 5088TP3     H227084   4.999   0.410   1.978 -0.5250 -0.0147  0.3246
 5089TP3      O27085   1.850   4.476   0.276 -0.3203 -0.5489 -0.0977
 5089TP3     H127086   1.804   4.542   0.328  0.6324 -0.4487  0.6260
 5089TP3     H227087   1.829   4.500   0.185 -0.4965  0.3851  0.1722
 5090TP3      O27088   0.098   0.473   7.403  0.0189 -0.6358 -0.2518
 5090TP3     H127089   0.189   0.480   7.432  0.3561  2.0069 -1.6616
 5090TP3     H227090   0.103   0.455   7.309 -0.7320  2.4624 -1.0086
 5091TP3      O27091   0.334   3.900   1.506  0.4353  0.1705  0.9061
 5091TP3     H127092   0.403   3.945   1.457  2.3573 -1.1653  2.2603
 5091TP3     H227093   0.309   3.827   1.449  0.1861  0.5916  0.4613
 5092TP3      O27094   4.443   3.355   9.456 -0.0557  0.3398  0.1491
 5092TP3     H127095   4.349   3.339   9.453  0.1228 -1.7810  2.4847
 5092TP3     H227096   4.466   3.343   9.548  2.2281  2.7914  0.0127
 5093TP3      O27097   3.370   3.343   0.894  0.4282  0.0017 -0.8396
 5093TP3     H127098   3.290   3.338   0.842 -0.7600 -1.2053  0.9807
 5093TP3     H227099   3.350   3.293   0.974  3.2823 -1.0959 -0.6857
 5094TP3      O27100   0.899   0.707   7.909 -0.2297  0.0853  1.1490
 5094TP3     H127101   0.930   0.621   7.938 -0.7663  0.4306  2.8874
 5094TP3     H227102   0.976   0.747   7.869  0.1999 -0.9469  0.8936
 5095TP3      O27103   4.975   1.610   0.372 -0.0267  0.1403 -0.1767
 5095TP3     H127104   4.947   1.665   0.445  0.2821  1.4053 -0.9874
 5095TP3     H227105   5.067   1.630   0.360  0.4446 -1.5615  0.3573
 5096TP3      O27106   3.729   3.840   9.875 -0.5874  0.3954  0.2089
 5096TP3     H127107   3.724   3.897   9.799 -1.9932  0.3084  0.2145
 5096TP3     H227108   3.808   3.787   9.861 -0.1668  1.2121 -0.5736
 5097TP3      O27109   3.931   2.383   6.861  0.3514 -0.1179 -0.2100
 5097TP3     H127110   3.991   2.382   6.936 -0.0716 -0.0011  0.1324
 5097TP3     H227111   3.897   2.293   6.857  1.4512 -0.5123 -1.1442
 5098TP3      O27112   3.497   2.593   2.245 -0.8325  0.3893 -0.2814
 5098TP3     H127113   3.572   2.590   2.305 -0.0861 -0.7418 -1.2154
 5098TP3     H227114   3.537   2.607   2.159 -1.7518  0.4705 -0.7018
 5099TP3      O27115   1.214   2.281   7.361  0.3058  0.2254  0.1907
 5099TP3     H127116   1.150   2.257   7.429  0.5274 -0.5109  0.1523
 5099TP3     H227117   1.163   2.330   7.296 -0.0227  0.4531  0.6162
 5100TP3      O27118   4.697   2.049   8.124  0.0247 -0.0970 -0.1035
 5100TP3     H127119   4.616   2.012   8.159 -1.0954  1.7412 -0.6261
 5100TP3     H227120   4.677   2.065   8.032  1.9044 -2.0353 -0.9471
 5101TP3      O27121   4.445   0.637   3.157  0.3153 -0.0548 -0.3457
 5101TP3     H127122   4.468   0.727   3.134 -2.4359  0.9404  0.3434
 5101TP3     H227123   4.351   0.641   3.176  0.5156 -2.6597  1.7458
 5102TP3      O27124   2.595   5.278   3.015 -0.0908  0.3329 -0.4902
 5102TP3     H127125   2.554   5.259   2.930 -0.7276  0.0478 -0.1307
 5102TP3     H227126   2.551   5.219   3.076  0.2182  0.6794  0.0766
 5103TP3      O27127   0.642   1.113   2.282  0.4762 -0.6769 -0.1157
 5103TP3     H127128   0.670   1.073   2.200  0.4090 -0.0312 -0.4513
 5103TP3     H227129   0.546   1.111   2.278  0.4023  1.8693 -1.3154
 5104TP3      O27130   0.255   0.409   2.123  0.5623 -0.3537 -0.1109
 5104TP3     H127131   0.287   0.320   2.110 -1.1199 -1.1398  0.7328
 5104TP3     H227132   0.241   0.443   2.034 -1.0842 -1.8584 -0.4826
 5105TP3      O27133   2.975   4.569   9.579 -0.0655 -0.1639 -0.3193
 5105TP3     H127134   2.955   4.592   9.489  1.3139  0.4411 -0.4969
 5105TP3     H227135   2.961   4.650   9.629  0.7668 -0.0307 -0.2770
 5106TP3      O27136   4.899   4.662   3.361 -0.5088  0.4899 -0.2038
 5106TP3     H127137   4.990   4.678   3.335 -0.0732 -1.6628 -0.1610
 5106TP3     H227138   4.850   4.736   3.325  1.2496  1.7071 -0.1976
 5107TP3      O27139   1.807   3.586   7.035  0.6924 -0.6083  0.0238
 5107TP3     H127140   1.806   3.640   6.956  1.3507  0.7071  0.8689
 5107TP3     H227141   1.717   3.589   7.067  0.6003 -0.4730 -0.2421
 5108TP3      O27142   1.900   4.202   0.249 -0.2205 -0.2732  0.2845
 5108TP3     H127143   1.817   4.159   0.271  0.2257 -0.9571  0.6894
 5108TP3     H227144   1.896   4.286   0.294 -1.7595  0.8463 -1.7427
 5109TP3      O27145   4.937   4.580   9.719 -0.0367  0.0976 -0.2322
 5109TP3     H127146   5.007   4.603   9.657  0.1058  0.6922  0.1357
 5109TP3     H227147   4.858   4.577   9.666  0.0005  1.1058 -0.3639
 5110TP3      O27148   0.125   5.208   7.832 -0.3903  0.7932 -0.1847
 5110TP3     H127149   0.074   5.200   7.751 -1.6308 -0.6504  0.6840
 5110TP3     H227150   0.117   5.301   7.856  0.9843  1.5373 -2.2719
 5111TP3      O27151   1.702   1.588   2.404  0.0694 -0.2040  0.2875
 5111TP3     H127152   1.663   1.562   2.487  0.0287  0.8000  0.6050
 5111TP3     H227153   1.643   1.554   2.338  0.0333 -0.9057  0.6765
 5112TP3      O27154   5.119   0.421   9.930 -0.2563  0.3217  0.0648
 5112TP3     H127155   5.191   0.361   9.950  1.3088  2.1377  0.1886
 5112TP3     H227156   5.138   0.451   9.841 -0.7252  0.9999  0.1877
 5113TP3      O27157   1.899   1.409   8.564 -1.0209  0.8657  0.8112
 5113TP3     H127158   1.943   1.471   8.506  0.9641 -1.7277 -0.6738
 5113TP3     H227159   1.945   1.417   8.647  3.3901 -2.4094 -0.9149
 5114TP3      O27160   2.361   1.190   6.671  0.2288  0.1857 -0.3176
 5114TP3     H127161   2.423   1.241   6.723  0.5014  0.6566 -1.0795
 5114TP3     H227162   2.386   1.099   6.686  0.7767  0.3523 -0.2027
 5115TP3      O27163   3.016   4.681   0.840 -0.3262  0.0193  0.0617
 5115TP3     H127164   2.946   4.616   0.844  0.8492 -1.2573  0.9688
 5115TP3     H227165   3.082   4.649   0.902  0.5434  1.8016  0.1253
 5116TP3      O27166   4.576   3.166   2.708 -0.5591  0.1503 -0.3584
 5116TP3     H127167   4.622   3.230   2.653  0.1304  1.6497  1.8286
 5116TP3     H227168   4.642   3.135   2.769 -1.9369  0.9229  1.6384
 5117TP3      O27169   3.228   0.232   8.490  0.1112 -0.2085  0.1755
 5117TP3     H127170   3.203   0.227   8.583 -0.9815  0.6460 -0.0464
 5117TP3     H227171   3.154   0.192   8.444  0.7676 -0.8623 -0.3236
 5118TP3      O27172   0.918   4.472   0.871  0.7308 -0.2811  0.1075
 5118TP3     H127173   0.887   4.459   0.781  0.2668  0.2303  0.1925
 5118TP3     H227174   0.867   4.546   0.904  0.8204 -0.5352  0.8339
 5119TP3      O27175   3.591   4.918   1.913 -0.4706 -0.2197 -0.6445
 5119TP3     H127176   3.565   4.886   1.999  0.4194  2.0468  0.5623
 5119TP3     H227177   3.605   5.012   1.926  1.7895 -0.1558 -2.7323
 5120TP3      O27178   3.977   4.459   0.619 -0.3846  0.6624 -0.2302
 5120TP3     H127179   3.997   4.372   0.585  0.2068  0.4269  0.6713
 5120TP3     H227180   4.025   4.464   0.702  0.1816  2.1321 -0.6170
 5121TP3      O27181   3.546   5.071   1.424  0.4005 -0.4903 -0.3001
 5121TP3     H127182   3.626   5.120   1.407  1.1276 -1.4961  0.1512
 5121TP3     H227183   3.520   5.038   1.338  0.5546 -0.3057 -0.4188
 5122TP3      O27184   3.816   4.804   0.177  0.5765  0.0418 -0.0437
 5122TP3     H127185   3.781   4.745   0.244 -1.3554  0.4409 -0.6395
 5122TP3     H227186   3.862   4.872   0.227 -1.1447  0.5447  0.9358
 5123TP3      O27187   4.111   3.094   0.183  0.1347 -0.1384 -0.3679
 5123TP3     H127188   4.033   3.143   0.210  0.7247  0.5001  0.2084
 5123TP3     H227189   4.082   3.003   0.181 -1.0319  0.2121 -1.6240
 5124TP3      O27190   4.383   4.304   8.891  0.4232 -0.2009  0.3266
 5124TP3     H127191   4.291   4.278   8.894  0.0418  1.0937  0.5789
 5124TP3     H227192   4.395   4.359   8.969  0.3869  2.7341 -1.5899
 5125TP3      O27193   1.672   2.822   7.545  0.6965  0.2463 -0.9418
 5125TP3     H127194   1.606   2.779   7.599  0.6796 -2.3521 -2.8394
 5125TP3     H227195   1.653   2.915   7.554 -0.0269 -0.0834  2.4868
 5126TP3      O27196   4.568   1.089   1.166 -0.1931  0.1629  0.0859
 5126TP3     H127197   4.606   1.009   1.203  2.1905  1.0148 -0.3311
 5126TP3     H227198   4.631   1.117   1.099 -1.6942  1.5983 -0.8036
 5127TP3      O27199   0.177   1.602   1.181  0.1589 -0.2396  0.2110
 5127TP3     H127200   0.106   1.559   1.132  0.8675  0.0631 -1.1455
 5127TP3     H227201   0.137   1.681   1.217 -0.6625 -1.0265  1.0957
 5128TP3      O27202   0.984   0.613   9.904  0.1092 -0.2026  0.3805
 5128TP3     H127203   0.889   0.616   9.908 -0.1802  2.3019 -3.6963
 5128TP3     H227204   1.003   0.541   9.844  0.8116 -0.5297  0.9778
 5129TP3      O27205   3.811   1.588   0.670  0.4502 -0.0708 -0.5906
 5129TP3     H127206   3.818   1.587   0.575 -1.6955  1.2705 -0.8252
 5129TP3     H227207   3.777   1.502   0.693 -1.3089  0.3873 -1.3204
 5130TP3      O27208   2.438   0.503   9.880 -0.0205 -0.3381  0.9546
 5130TP3     H127209   2.369   0.442   9.904 -1.1144  0.6273  0.3658
 5130TP3     H227210   2.461   0.547   9.961  0.0770 -0.8342  1.1980
 5131TP3      O27211   0.553   4.485   2.233  0.1456 -0.5405  0.0894
 5131TP3     H127212   0.595   4.510   2.315 -2.2464  0.2768  1.1703
 5131TP3     H227213   0.578   4.554   2.171  0.8052 -0.3685  0.5354
 5132TP3      O27214   2.820   5.047   1.472  0.4217  0.5672  0.4563
 5132TP3     H127215   2.864   5.046   1.387 -0.0998  0.0038  0.1821
 5132TP3     H227216   2.741   4.995   1.458  0.4932  0.1968  1.3772
 5133TP3      O27217   1.944   1.265   0.461 -0.1995 -0.2952 -0.1224
 5133TP3     H127218   1.939   1.341   0.402 -0.7632 -0.0313  0.2504
 5133TP3     H227219   1.865   1.272   0.514  0.3691 -0.4445  0.7612
 5134TP3      O27220   4.436   3.787   0.639  0.0079 -0.2001 -0.4511
 5134TP3     H127221   4.483   3.813   0.560  1.9842  4.3559  1.8754
 5134TP3     H227222   4.346   3.818   0.625 -0.1467 -1.0359 -1.4891
 5135TP3      O27223   4.433   0.101   2.921 -0.1964 -0.3338  0.2985
 5135TP3     H127224   4.360   0.144   2.876  0.2223  1.6865  1.4168
 5135TP3     H227225   4.511   0.138   2.880  0.1765 -0.0654  1.2132
 5136TP3      O27226   4.118   0.787   8.158  0.3236  0.6095 -0.0733
 5136TP3     H127227   4.055   0.741   8.214  1.1973  0.8893  1.1589
 5136TP3     H227228   4.175   0.718   8.124 -0.2984  0.4213 -0.7737
 5137TP3      O27229   0.106   1.110   9.213  0.6564  0.7777 -0.5173
 5137TP3     H127230   0.018   1.075   9.230  0.9526 -0.4083 -1.3515
 5137TP3     H227231   0.126   1.083   9.123  1.2065  2.4775 -0.9429
 5138TP3      O27232   3.669   5.060   9.026  0.1935  0.4683  0.4079
 5138TP3     H127233   3.613   5.028   9.097 -0.8152 -0.5746 -0.8038
 5138TP3     H227234   3.721   5.130   9.066 -1.3303  0.8599  1.8183
 5139TP3      O27235   3.855   2.324   8.523  0.1446  0.1209 -0.1957
 5139TP3     H127236   3.880   2.265   8.451  0.8422 -1.0771  0.9910
 5139TP3     H227237   3.761   2.309   8.534  0.6560 -2.4936  1.5091
 5140TP3      O27238   4.001   3.545   8.033  0.2679 -0.0078  0.0441
 5140TP3     H127239   3.926   3.517   7.980 -1.0753 -0.3736  2.0058
 5140TP3     H227240   4.018   3.635   8.005 -2.2611  0.8191  0.8998
 5141TP3      O27241   0.641   2.785   0.688 -0.7555  0.2195  0.0708
 5141TP3     H127242   0.601   2.734   0.618  0.2716 -1.5351  0.6988
 5141TP3     H227243   0.660   2.721   0.757 -1.1298  1.7860  1.6927
 5142TP3      O27244   3.396   4.059   8.820  0.2019 -1.2619 -0.1713
 5142TP3     H127245   3.489   4.042   8.804  1.0490  1.3954  1.2639
 5142TP3     H227246   3.391   4.075   8.914 -1.5894 -0.6595 -0.3409
 5143TP3      O27247   3.723   2.205   0.011  0.0130  1.1389 -0.2111
 5143TP3     H127248   3.701   2.198  -0.082  1.3812  0.6964 -0.5215
 5143TP3     H227249   3.803   2.153   0.021 -1.2444 -0.6397  1.6286
 5144TP3      O27250   0.908   4.910   1.626  0.2464 -0.3820 -0.1239
 5144TP3     H127251   0.909   4.862   1.543  1.0096  0.8617 -0.8779
 5144TP3     H227252   0.989   4.885   1.670 -0.7703 -2.0403  0.8829
 5145TP3      O27253   3.851   2.882   8.077 -0.1990 -0.3355 -0.1633
 5145TP3     H127254   3.831   2.963   8.123  1.0937  0.0274 -0.1945
 5145TP3     H227255   3.907   2.833   8.137  1.0955 -0.0750 -1.1052
 5146TP3      O27256   1.716   0.697   8.607  0.0891 -0.8059  0.0127
 5146TP3     H127257   1.764   0.623   8.570  0.6011 -1.0997  1.2354
 5146TP3     H227258   1.700   0.672   8.698 -0.6144  0.1642  0.1654
 5147TP3      O27259   0.765   0.034   3.423 -0.2814  0.4998  0.2174
 5147TP3     H127260   0.797  -0.009   3.344  1.4848  1.1031  0.5539
 5147TP3     H227261   0.788  -0.025   3.494  1.0197  1.3545  0.5539
 5148TP3      O27262   2.280   0.883   9.060  0.5299  0.7223 -0.7651
 5148TP3     H127263   2.287   0.936   8.980 -1.1699  1.0669 -0.7061
 5148TP3     H227264   2.283   0.947   9.131 -0.9018  0.7224 -0.6738
 5149TP3      O27265   0.413   1.276   9.123 -0.2550 -1.0833 -1.0469
 5149TP3     H127266   0.333   1.300   9.169  0.5174  1.5631 -0.9017
 5149TP3     H227267   0.482   1.284   9.189  0.3285 -1.7181 -1.5648
 5150TP3      O27268   0.376   1.249   1.255  0.5928  0.3088  0.2546
 5150TP3     H127269   0.420   1.165   1.242  1.1057  0.6287 -0.0665
 5150TP3     H227270   0.313   1.231   1.326 -0.1217 -0.6498 -0.5891
 5151TP3      O27271   1.559   2.125   1.840  0.4110 -0.0139 -0.5495
 5151TP3     H127272   1.551   2.214   1.875  0.9809  0.3543 -1.3114
 5151TP3     H227273   1.490   2.120   1.773  1.1371  0.2885 -1.3444
 5152TP3      O27274   1.325   1.748   8.922  0.1249 -0.6665 -0.3772
 5152TP3     H127275   1.261   1.816   8.902  0.9456 -0.0539 -1.0445
 5152TP3     H227276   1.373   1.735   8.839  1.0543 -0.8762  0.1724
 5153TP3      O27277   4.803   3.461   0.709  0.5132  0.2249 -0.1106
 5153TP3     H127278   4.809   3.519   0.634 -0.6337  0.3681 -0.1110
 5153TP3     H227279   4.754   3.385   0.677 -0.9981  0.7924  0.7661
 5154TP3      O27280   0.862   1.677   2.549  0.3888  0.2462  0.0966
 5154TP3     H127281   0.845   1.692   2.642  0.4688 -1.2099  0.3654
 5154TP3     H227282   0.813   1.747   2.505 -1.1518 -0.1099  1.1432
 5155TP3      O27283   4.502   5.113   8.172  0.6967 -0.1804  0.0135
 5155TP3     H127284   4.524   5.040   8.114 -1.8716 -0.6623 -0.4764
 5155TP3     H227285   4.477   5.071   8.255  0.1656  0.1961  0.0502
 5156TP3      O27286   3.759   1.370  10.062  0.5798 -0.4628 -0.4139
 5156TP3     H127287   3.730   1.309   9.994 -0.0227 -1.7175  0.9050
 5156TP3     H227288   3.845   1.400  10.033 -0.9199  1.5542 -3.3074
 5157TP3      O27289   1.385   4.414   3.408 -0.4904  0.3400 -0.2920
 5157TP3     H127290   1.446   4.460   3.466  0.3527 -1.0041 -0.0681
 5157TP3     H227291   1.368   4.476   3.337  3.3910 -0.1755 -1.9272
 5158TP3      O27292   5.080   4.748   7.513  0.1890  0.3056 -0.8953
 5158TP3     H127293   5.066   4.818   7.450 -2.6695 -1.1419 -2.0476
 5158TP3     H227294   5.005   4.753   7.573  0.7409 -0.8281 -0.0691
 5159TP3      O27295   3.041   2.639   1.111 -0.1610 -0.2454 -0.3725
 5159TP3     H127296   3.109   2.655   1.045  1.4789  2.6346  1.7540
 5159TP3     H227297   3.089   2.631   1.193 -2.3093  2.4858  1.3216
 5160TP3      O27298   3.105   4.094   1.356  0.2133  0.1515 -0.3936
 5160TP3     H127299   3.104   4.042   1.436  1.3511 -0.2796 -0.6445
 5160TP3     H227300   3.197   4.115   1.341 -0.0863  1.1234 -1.0274
 5161TP3      O27301   1.447   5.147   0.410  0.0005 -0.2572  0.2735
 5161TP3     H127302   1.454   5.108   0.322  4.2980  0.5567  0.0404
 5161TP3     H227303   1.466   5.074   0.469 -0.1003 -0.2012  0.3749
 5162TP3      O27304   2.274   5.008   1.093 -0.1890  0.7906 -0.4879
 5162TP3     H127305   2.189   5.000   1.048 -0.2650  0.7639 -0.3420
 5162TP3     H227306   2.252   4.997   1.185 -0.0922  1.2872 -0.4082
 5163TP3      O27307   4.490   3.627   9.671 -0.7137  0.1947  0.1868
 5163TP3     H127308   4.522   3.538   9.660  0.3831  0.0881  3.2057
 5163TP3     H227309   4.561   3.683   9.637  0.1471 -0.1093  1.4051
 5164TP3      O27310   3.179   1.269   7.778 -0.4492 -0.0233  0.7874
 5164TP3     H127311   3.216   1.334   7.838 -3.4568  1.5134  1.1326
 5164TP3     H227312   3.122   1.215   7.834  0.1986 -1.5324  0.0638
 5165TP3      O27313   3.416   0.932   1.547 -0.4378 -0.2296  0.4078
 5165TP3     H127314   3.351   0.866   1.521 -1.0805  0.1721  0.9546
 5165TP3     H227315   3.441   0.907   1.636 -1.1283  0.5975  0.8422
 5166TP3      O27316   1.982   5.157   2.887 -0.2507 -0.2669 -0.0909
 5166TP3     H127317   2.061   5.104   2.892 -0.3056 -0.4669 -1.0797
 5166TP3     H227318   1.913   5.102   2.924  0.3425  0.5598  2.4453
 5167TP3      O27319   2.195   4.215   6.915 -0.3297 -0.4066 -0.1352
 5167TP3     H127320   2.280   4.257   6.898 -0.7973  0.0952 -1.3059
 5167TP3     H227321   2.218   4.128   6.948  0.7174 -1.1786 -2.6019
 5168TP3      O27322   0.550   3.686   2.497  0.1478  0.5741 -0.1131
 5168TP3     H127323   0.576   3.627   2.568 -2.8115  0.1123  0.7053
 5168TP3     H227324   0.566   3.774   2.532  2.9149  0.3811 -0.6729
 5169TP3      O27325   1.721   5.234   0.318  0.0487  0.6679 -0.2588
 5169TP3     H127326   1.630   5.248   0.343 -0.4999  2.3910 -2.7728
 5169TP3     H227327   1.727   5.140   0.301 -1.3550  0.5704 -0.3465
 5170TP3      O27328   4.292   2.510   9.499 -0.0462  0.3640  0.7963
 5170TP3     H127329   4.282   2.522   9.404 -2.0777  0.9055  1.0308
 5170TP3     H227330   4.260   2.421   9.515 -2.8647  1.3656  1.3015
 5171TP3      O27331   4.262   0.247   2.764  0.1418 -0.3826 -0.6669
 5171TP3     H127332   4.167   0.246   2.752  0.0617  0.4060 -0.1785
 5171TP3     H227333   4.290   0.330   2.725  0.5546 -0.3624 -0.3350
 5172TP3      O27334   4.930   1.637   2.006  0.1000  0.1685  0.0811
 5172TP3     H127335   5.014   1.663   1.968 -0.5841  3.0209  0.3044
 5172TP3     H227336   4.937   1.662   2.098 -0.2930 -1.5133  0.6064
 5173TP3      O27337   1.570   5.137   2.325 -0.3449  0.0526 -0.3892
 5173TP3     H127338   1.542   5.229   2.331  0.0818  0.2734 -1.4375
 5173TP3     H227339   1.594   5.126   2.233  1.7906 -0.4684  0.1792
 5174TP3      O27340   5.266   4.206   9.992 -0.2224 -0.1678 -0.2886
 5174TP3     H127341   5.274   4.110   9.999 -2.6222 -0.3514  0.9655
 5174TP3     H227342   5.343   4.232   9.941  2.1516 -2.4188  1.8080
 5175TP3      O27343   3.412   3.586   7.397  0.4597  0.1925 -0.1424
 5175TP3     H127344   3.425   3.665   7.344 -0.8453  1.6963  1.6332
 5175TP3     H227345   3.355   3.531   7.343  1.0807  0.5926 -1.2573
 5176TP3      O27346   1.412   1.158   0.279 -0.1164 -0.1005 -0.0969
 5176TP3     H127347   1.489   1.208   0.307 -0.1763 -0.1030  0.0736
 5176TP3     H227348   1.404   1.088   0.344 -0.6895  0.3275  0.3083
 5177TP3      O27349   0.792   1.989   2.721 -0.0108 -0.0868  0.3504
 5177TP3     H127350   0.781   1.905   2.765 -0.7311  0.2816  0.9001
 5177TP3     H227351   0.757   1.976   2.633  0.4751 -0.5313  0.2161
 5178TP3      O27352   0.235   1.271   2.761 -0.2264  0.1857  0.1408
 5178TP3     H127353   0.248   1.345   2.820  1.9534  0.6340 -0.8236
 5178TP3     H227354   0.197   1.310   2.682  1.4073  0.4012 -0.5657
 5179TP3      O27355   4.756   3.916   2.626 -0.0955  0.1600 -0.8105
 5179TP3     H127356   4.820   3.949   2.688  0.1908 -1.2890 -0.2970
 5179TP3     H227357   4.802   3.847   2.578 -0.8625  0.0309 -1.3802
 5180TP3      O27358   4.193   4.966   8.571 -0.1920  0.1077 -0.3042
 5180TP3     H127359   4.147   5.020   8.507 -0.9603  1.5105  1.3329
 5180TP3     H227360   4.268   5.019   8.598 -1.7602  1.1431  2.4058
 5181TP3      O27361   2.767   2.225   1.854 -0.2666 -0.0806 -0.0303
 5181TP3     H127362   2.676   2.251   1.836 -0.2776  0.9385  1.2877
 5181TP3     H227363   2.815   2.308   1.854  0.5699 -0.5616 -0.1945
 5182TP3      O27364   2.235   2.207   2.963 -0.5145  0.1138  0.3884
 5182TP3     H127365   2.268   2.126   2.925 -1.3971  0.2600 -0.7715
 5182TP3     H227366   2.286   2.276   2.921  0.3776  0.1763  1.5245
 5183TP3      O27367   2.374   0.670   2.259  0.2646  1.1241  0.4304
 5183TP3     H127368   2.290   0.628   2.277 -0.0316  0.8449 -1.4335
 5183TP3     H227369   2.439   0.606   2.287 -0.1721  0.4511 -0.0539
 5184TP3      O27370   3.330   2.195   8.445 -0.4050  0.0613  0.1915
 5184TP3     H127371   3.315   2.207   8.351 -2.3011  1.4927  0.6305
 5184TP3     H227372   3.361   2.280   8.476 -0.9362 -0.0398  1.0455
 5185TP3      O27373   4.896   3.789   1.346  0.2654 -0.2839  0.5360
 5185TP3     H127374   4.811   3.809   1.307 -0.6682 -1.8897  1.6557
 5185TP3     H227375   4.934   3.723   1.288  0.1249 -0.5908  0.7912
 5186TP3      O27376   3.049   3.300   6.456  0.3174  0.7827  0.6252
 5186TP3     H127377   3.008   3.213   6.449  1.3859  0.2373  0.9764
 5186TP3     H227378   2.977   3.361   6.441 -0.4721 -0.1618  0.4510
 5187TP3      O27379   1.245   4.837   8.152  0.1142 -0.5190  0.0732
 5187TP3     H127380   1.248   4.755   8.101  0.7748 -2.7868  3.4372
 5187TP3     H227381   1.291   4.901   8.097  0.1365 -2.5388 -2.4508
 5188TP3      O27382   3.213   4.808   2.971 -0.1238 -0.0190  0.6247
 5188TP3     H127383   3.177   4.889   2.935 -0.8668 -0.4954  0.2559
 5188TP3     H227384   3.139   4.766   3.015  0.7210  0.4696  2.6243
 5189TP3      O27385   2.131   4.174   9.733 -0.5346 -0.1463 -0.8170
 5189TP3     H127386   2.216   4.214   9.712 -0.1694  0.0036  0.7947
 5189TP3     H227387   2.080   4.182   9.653 -0.1731  2.7482 -0.8614
 5190TP3      O27388   3.818   2.057   8.961 -0.0834  0.0674 -0.0190
 5190TP3     H127389   3.752   1.998   8.925  1.1686 -0.0249 -2.3353
 5190TP3     H227390   3.898   2.004   8.965  0.8181  1.2621 -1.1946
 5191TP3      O27391   0.094   3.000   3.516  0.7654  0.3093  0.2015
 5191TP3     H127392   0.042   3.075   3.489  1.0222  0.1189 -0.8760
 5191TP3     H227393   0.180   3.037   3.536  1.2864  0.1710 -1.5972
 5192TP3      O27394   0.680   2.742   7.664  0.0873 -0.0456 -0.9345
 5192TP3     H127395   0.728   2.769   7.586 -0.1711 -2.5615 -2.0271
 5192TP3     H227396   0.588   2.757   7.642  0.1126  1.6846 -0.0655
 5193TP3      O27397   0.879   4.359   2.858  0.1695 -0.4226  0.3327
 5193TP3     H127398   0.962   4.384   2.817  0.2424 -1.3385 -0.0941
 5193TP3     H227399   0.813   4.407   2.809  0.4698  0.7941  1.0650
 5194TP3      O27400   3.083   3.939   1.605 -0.3349  0.2338  0.2065
 5194TP3     H127401   3.027   4.004   1.647 -2.7288 -0.0122 -2.3537
 5194TP3     H227402   3.054   3.855   1.641  1.0970  0.3369  1.7053
 5195TP3      O27403   0.296   4.681   6.797  0.0541  0.2592 -0.2299
 5195TP3     H127404   0.307   4.759   6.852 -1.3062  0.6790 -0.5333
 5195TP3     H227405   0.386   4.649   6.784  0.4242  0.0127  2.4020
 5196TP3      O27406   5.021   1.165   9.071  0.5019  0.3585  0.1427
 5196TP3     H127407   5.065   1.137   9.151  1.8467 -2.0793 -1.2971
 5196TP3     H227408   5.050   1.255   9.057  3.8340 -0.5741  0.1916
 5197TP3      O27409   2.109   3.543   2.680  0.4415  0.6029  0.3091
 5197TP3     H127410   2.042   3.534   2.747  0.4600  0.1538  0.2697
 5197TP3     H227411   2.187   3.504   2.720  0.1555 -0.7570 -0.4081
 5198TP3      O27412   0.797   3.377   9.336 -0.3720  0.2073 -0.2888
 5198TP3     H127413   0.822   3.299   9.387  0.2005  0.0179 -0.8492
 5198TP3     H227414   0.736   3.424   9.393 -1.6066 -1.2067 -0.3901
 5199TP3      O27415   1.254   1.027   1.901  0.0644  0.0028 -0.6534
 5199TP3     H127416   1.160   1.044   1.907  0.4501  2.0873  0.5002
 5199TP3     H227417   1.292   1.110   1.873  1.7948  0.0248  1.5085
 5200TP3      O27418   3.943   0.161   0.881 -0.0597  0.4964 -0.3249
 5200TP3     H127419   3.986   0.180   0.797 -0.8235  1.0363 -0.6108
 5200TP3     H227420   4.004   0.192   0.947  0.0909  1.0328 -0.7117
 5201TP3      O27421   4.255   2.255   9.819 -0.2402 -0.3054 -0.2642
 5201TP3     H127422   4.248   2.280   9.911  1.0351 -0.8670  0.0011
 5201TP3     H227423   4.164   2.247   9.790 -0.7361  2.3752  0.2202
 5202TP3      O27424   2.288   0.887   7.614  0.4270  0.2566 -0.1195
 5202TP3     H127425   2.277   0.818   7.679 -1.7267 -0.1285 -0.7861
 5202TP3     H227426   2.254   0.966   7.656  0.9137  0.4449 -0.0807
 5203TP3      O27427   5.013   4.897   1.493 -0.4238  0.2315  0.3600
 5203TP3     H127428   4.969   4.873   1.574  0.5790  0.8539  1.1157
 5203TP3     H227429   5.107   4.892   1.514 -0.0922 -1.0416 -1.1868
 5204TP3      O27430   1.738   3.886   0.728 -0.0137  0.0204 -0.0730
 5204TP3     H127431   1.663   3.913   0.780  0.8962  0.5616  0.9946
 5204TP3     H227432   1.750   3.956   0.664  0.4995  0.6801  0.7367
 5205TP3      O27433   3.242   4.231   0.067 -0.1413  0.0035 -0.3918
 5205TP3     H127434   3.290   4.310   0.093 -0.3499 -0.4869  1.6520
 5205TP3     H227435   3.281   4.206  -0.016  0.5002  1.7863 -0.6755
 5206TP3      O27436   2.930   2.982   7.705 -0.4355 -0.0347  0.1872
 5206TP3     H127437   2.909   2.889   7.707 -0.4675 -0.0224  0.3899
 5206TP3     H227438   2.845   3.025   7.696 -0.5331  0.0271  1.2607
 5207TP3      O27439   0.096   0.793   8.647  0.2250 -0.2742 -0.3764
 5207TP3     H127440   0.113   0.745   8.728  0.5973  1.3179  0.5111
 5207TP3     H227441   0.024   0.851   8.668 -2.2398 -2.3882 -2.2841
 5208TP3      O27442   4.757   1.517   8.727  0.3319 -0.4056 -0.0537
 5208TP3     H127443   4.737   1.460   8.653  0.7885 -0.4141 -0.1787
 5208TP3     H227444   4.729   1.469   8.804  0.1026 -0.5133 -0.2047
 5209TP3      O27445   2.923   4.108   9.138  0.0395  0.2159 -0.2085
 5209TP3     H127446   2.919   4.181   9.076  0.5268  0.3207 -0.1253
 5209TP3     H227447   3.012   4.112   9.173  1.0180 -2.0669 -2.1857
 5210TP3      O27448   0.281   2.775   1.996  0.6347  0.1394 -0.5169
 5210TP3     H127449   0.302   2.833   1.923  0.0318 -0.4097 -1.1404
 5210TP3     H227450   0.212   2.718   1.962  0.3754 -0.1507  0.4737
 5211TP3      O27451   0.718   1.122   7.905  0.4948  0.3208  0.5186
 5211TP3     H127452   0.642   1.064   7.909  0.5157  0.3011  0.6217
 5211TP3     H227453   0.706   1.184   7.976 -1.3394  2.7016 -1.6524
 5212TP3      O27454   4.332   4.679   9.824  0.0869  0.0232  0.5033
 5212TP3     H127455   4.424   4.653   9.817 -0.7149 -3.2783  0.7461
 5212TP3     H227456   4.314   4.678   9.918 -0.1516  0.9753  0.4801
 5213TP3      O27457   2.886   4.408   0.785 -0.0952  0.0349 -0.3477
 5213TP3     H127458   2.792   4.418   0.771 -0.2238 -1.6478 -0.8281
 5213TP3     H227459   2.923   4.409   0.696  0.1698 -0.8650 -0.2499
 5214TP3      O27460   2.312   2.648  10.014  0.0209 -0.1198  0.3757
 5214TP3     H127461   2.308   2.675  10.105  0.4886  0.7979  0.1342
 5214TP3     H227462   2.361   2.718   9.970  0.9067 -1.1559 -0.3450
 5215TP3      O27463   0.355   2.556   1.208 -0.3445 -0.1618 -0.0675
 5215TP3     H127464   0.432   2.537   1.155 -0.8158 -1.5616 -0.2984
 5215TP3     H227465   0.356   2.651   1.219  1.3665 -0.1455 -0.1190
 5216TP3      O27466   2.492   3.067   8.661  0.0073  0.0804  1.0669
 5216TP3     H127467   2.523   2.976   8.657 -0.3196 -0.0597  1.7016
 5216TP3     H227468   2.408   3.065   8.617 -0.8122 -0.2824  2.5829
 5217TP3      O27469   3.732   5.242   1.750  0.2720 -0.2429  0.1807
 5217TP3     H127470   3.731   5.338   1.755 -0.7955 -0.2540  0.4539
 5217TP3     H227471   3.691   5.214   1.832  0.4138 -0.9285  0.0209
 5218TP3      O27472   3.144   4.679   0.179 -0.0857  0.2806 -0.0292
 5218TP3     H127473   3.149   4.773   0.168  0.4868  0.4213  1.2262
 5218TP3     H227474   3.057   4.656   0.146 -0.4609  1.3330  0.1777
 5219TP3      O27475   2.340   4.284   9.600 -0.1697 -0.0956  0.0304
 5219TP3     H127476   2.335   4.257   9.508  0.5279 -1.5203  0.3880
 5219TP3     H227477   2.431   4.267   9.625 -0.0649  1.3174  0.6949
 5220TP3      O27478   1.222   3.905   8.486  0.2357 -0.0805 -0.4190
 5220TP3     H127479   1.208   3.944   8.400 -0.5527 -1.7764 -1.0954
 5220TP3     H227480   1.160   3.951   8.543 -1.0138 -0.6384 -1.2916
 5221TP3      O27481   3.806   2.702   0.435 -0.3859  0.8495  0.2327
 5221TP3     H127482   3.729   2.650   0.457  0.3371 -0.0845  0.6727
 5221TP3     H227483   3.788   2.737   0.348 -0.7017 -0.5615 -0.2915
 5222TP3      O27484   2.211   4.377   8.319 -0.4369  0.6792  0.1602
 5222TP3     H127485   2.155   4.326   8.261 -0.5119 -0.6101  1.3066
 5222TP3     H227486   2.150   4.429   8.372 -0.5387 -0.1639  0.8961
 5223TP3      O27487   3.286   2.103   2.482  0.4882 -0.5092  0.2159
 5223TP3     H127488   3.270   2.047   2.558 -0.0158 -0.2544  0.2985
 5223TP3     H227489   3.282   2.192   2.516 -0.2366 -0.3746 -0.1943
 5224TP3      O27490   4.628   2.051   0.611  0.2401 -0.7880  0.0243
 5224TP3     H127491   4.655   1.959   0.615  1.2773 -0.4915  0.0180
 5224TP3     H227492   4.687   2.096   0.672 -0.3150 -0.1373  0.0896
 5225TP3      O27493   1.575   4.904   9.812 -0.1187  0.2197 -0.1710
 5225TP3     H127494   1.517   4.828   9.807  2.1571 -1.6914  0.7626
 5225TP3     H227495   1.578   4.938   9.723 -2.0702 -0.0450 -0.3762
 5226TP3      O27496   3.740   0.970  10.058  0.2690 -0.2465 -0.0280
 5226TP3     H127497   3.733   0.991  10.151  0.9527  1.0235 -0.2390
 5226TP3     H227498   3.650   0.951  10.031  0.2292 -2.0236  1.1752
 5227TP3      O27499   2.704   0.137   9.891 -0.4208  0.5368  0.1070
 5227TP3     H127500   2.675   0.183   9.970 -1.0308  1.2062 -0.4889
 5227TP3     H227501   2.790   0.101   9.914 -0.3859  1.1165  0.9174
 5228TP3      O27502   4.583   2.266   0.017  0.0619 -0.1726  0.1127
 5228TP3     H127503   4.545   2.246  -0.068  0.3309 -2.4150  0.4477
 5228TP3     H227504   4.634   2.188   0.040  1.8916  1.2632  1.3147
 5229TP3      O27505   4.752   1.274   9.438 -0.6233 -0.2393 -0.3464
 5229TP3     H127506   4.808   1.197   9.426  1.4994  0.4365  3.4663
 5229TP3     H227507   4.802   1.346   9.400 -0.4784 -0.1373  0.0286
 5230TP3      O27508   2.821   2.726   0.109  0.9389  0.9524  0.6075
 5230TP3     H127509   2.811   2.774   0.026 -0.2566  1.1524  0.8448
 5230TP3     H227510   2.748   2.663   0.108  1.7550 -0.0124  0.8717
 5231TP3      O27511   0.710   0.844   2.192  0.3020  0.1561  0.0419
 5231TP3     H127512   0.764   0.765   2.195 -0.6110 -0.5514 -1.0301
 5231TP3     H227513   0.757   0.904   2.135 -1.4446 -1.6930 -3.7197
 5232TP3      O27514   2.943   4.612   2.878 -0.0142 -0.0862 -0.3420
 5232TP3     H127515   2.848   4.602   2.869 -0.1582 -0.4209  1.2954
 5232TP3     H227516   2.956   4.633   2.970  1.4459  0.8594 -0.7401
 5233TP3      O27517   4.508   4.312   2.667  0.1992 -0.0153 -1.0389
 5233TP3     H127518   4.537   4.329   2.756  0.4666 -2.0453 -0.7028
 5233TP3     H227519   4.480   4.221   2.667 -1.1083  0.3303 -2.6982
 5234TP3      O27520   1.311   4.625   3.228  0.2278  0.1390  0.0900
 5234TP3     H127521   1.285   4.711   3.259  1.9041  0.2377  1.3378
 5234TP3     H227522   1.347   4.641   3.140 -0.3098  0.5458 -0.0624
 5235TP3      O27523   3.663   3.350   9.642 -0.3346 -0.1929 -0.1072
 5235TP3     H127524   3.742   3.378   9.689 -0.0319 -2.5646  0.9392
 5235TP3     H227525   3.669   3.394   9.557  0.1605  2.6053  1.2687
 5236TP3      O27526   5.143   3.265   1.368 -0.0595  0.3186 -0.0651
 5236TP3     H127527   5.107   3.226   1.288 -0.4673 -0.2164  0.3732
 5236TP3     H227528   5.184   3.192   1.414 -0.2126  0.5374  0.4234
 5237TP3      O27529   2.691   3.144   0.171  0.1050 -0.0160 -1.0653
 5237TP3     H127530   2.649   3.095   0.101 -0.5703 -0.1734 -0.5596
 5237TP3     H227531   2.736   3.216   0.126  0.7877 -0.8602 -1.7755
 5238TP3      O27532   3.908   0.069   8.439 -0.0491 -0.3412 -0.0580
 5238TP3     H127533   3.818   0.036   8.437  0.0678 -0.6512 -0.2305
 5238TP3     H227534   3.898   0.164   8.449 -0.3634 -0.5458  1.9380
 5239TP3      O27535   0.504   3.321   8.574  0.1166  0.0926 -0.2716
 5239TP3     H127536   0.511   3.356   8.662 -1.4618 -1.2340  0.4418
 5239TP3     H227537   0.581   3.265   8.564  0.3966  0.3884  0.1910
 5240TP3      O27538   2.737   1.581   1.764 -0.0462 -0.5189 -0.0278
 5240TP3     H127539   2.832   1.576   1.772 -0.2050 -1.2361  2.1414
 5240TP3     H227540   2.720   1.665   1.723  1.5070  0.0877  0.5038
 5241TP3      O27541   1.368   0.427   1.809  0.1809  0.3274  0.3513
 5241TP3     H127542   1.447   0.460   1.765  0.5423  1.2252  1.6077
 5241TP3     H227543   1.317   0.506   1.828 -1.2331 -0.2630 -0.7665
 5242TP3      O27544   0.463   2.423   2.000 -0.0877  0.3486 -0.2556
 5242TP3     H127545   0.439   2.349   1.944 -0.4026 -0.3684  0.7896
 5242TP3     H227546   0.552   2.446   1.973 -0.6101  0.7032 -1.7398
 5243TP3      O27547   2.489   4.201   0.296  0.3342 -0.0345 -0.5609
 5243TP3     H127548   2.572   4.200   0.343  0.1188 -3.2272 -0.0138
 5243TP3     H227549   2.515   4.205   0.203  1.1019 -0.7322 -0.3898
 5244TP3      O27550   3.765   1.982   0.779  0.6278  0.3339 -0.3977
 5244TP3     H127551   3.754   1.907   0.837  1.3337 -0.2901 -1.0551
 5244TP3     H227552   3.689   1.979   0.721  0.9205 -0.1781 -0.7564
 5245TP3      O27553   0.334   5.022   2.358  0.1487 -0.3766 -0.1973
 5245TP3     H127554   0.306   5.029   2.449  2.4255 -1.8276  0.6717
 5245TP3     H227555   0.390   5.098   2.343 -0.8219  0.2710 -0.6604
 5246TP3      O27556   1.053   2.973   1.497  0.5212  0.4865  0.5982
 5246TP3     H127557   1.041   3.026   1.576 -1.2189 -0.4170  1.0060
 5246TP3     H227558   1.143   2.988   1.471  0.3035  3.0648  1.0859
 5247TP3      O27559   1.294   3.962   2.288  0.5429 -0.0169  0.6238
 5247TP3     H127560   1.301   3.875   2.328  1.3011  0.7730  2.3041
 5247TP3     H227561   1.205   3.964   2.252 -0.4909 -0.5565  2.9210
 5248TP3      O27562   2.509   0.864  10.052  0.2494  0.3478 -0.4399
 5248TP3     H127563   2.469   0.824  10.130 -2.0200 -0.1429 -1.7476
 5248TP3     H227564   2.478   0.954  10.053  0.7630  0.5273 -0.4403
 5249TP3      O27565   2.831   1.691   2.701  0.3243 -0.3831  0.5750
 5249TP3     H127566   2.740   1.663   2.689  0.4623 -0.7858  0.4375
 5249TP3     H227567   2.843   1.762   2.637 -0.2981  0.6348  1.5708
 5250TP3      O27568   4.428   2.939   2.427 -0.3722  0.0659  0.1674
 5250TP3     H127569   4.421   2.872   2.359  1.6851 -0.4093  0.3722
 5250TP3     H227570   4.409   3.021   2.383 -2.0233 -0.5245 -0.2919
 5251TP3      O27571   2.515   5.228   7.450 -0.1954  0.3371  0.8181
 5251TP3     H127572   2.505   5.133   7.453  0.8144  0.2368  2.0455
 5251TP3     H227573   2.427   5.262   7.462 -0.4715 -0.4469  1.0762
 5252TP3      O27574   2.748   3.974   0.018 -0.0285  0.1175  0.2735
 5252TP3     H127575   2.715   3.937   0.099  1.1044  1.4267  1.3925
 5252TP3     H227576   2.843   3.957   0.021  0.2860  1.6968  0.0927
 5253TP3      O27577   2.901   2.771   8.136  0.2830  0.0249  0.3087
 5253TP3     H127578   2.893   2.851   8.084  0.9203 -0.1315 -0.0445
 5253TP3     H227579   2.864   2.702   8.080 -0.8119  0.1545  0.8480
 5254TP3      O27580   3.701   0.814   1.420 -0.3197  0.0343  0.1986
 5254TP3     H127581   3.667   0.901   1.442  0.0477  0.2895 -0.2346
 5254TP3     H227582   3.635   0.777   1.362 -0.4308  0.0554  0.3086
 5255TP3      O27583   0.783   3.433   1.733 -0.1799 -0.0113 -0.4880
 5255TP3     H127584   0.733   3.368   1.783 -2.0703  1.9533  0.3091
 5255TP3     H227585   0.763   3.413   1.641 -1.2040 -0.2160 -0.2327
 5256TP3      O27586   2.292   3.571   9.075 -0.0525 -0.3562  0.0256
 5256TP3     H127587   2.362   3.594   9.137 -0.5502  0.0997  0.4301
 5256TP3     H227588   2.281   3.476   9.086  1.6210 -0.7335 -1.2363
 5257TP3      O27589   1.344   3.155   8.018  0.2691 -0.4365 -0.0352
 5257TP3     H127590   1.387   3.085   7.968  3.1917  1.3194 -0.1558
 5257TP3     H227591   1.340   3.121   8.107 -0.6161 -1.6802 -0.5121
 5258TP3      O27592   1.610   4.096   1.016  0.1005  0.3495  0.4048
 5258TP3     H127593   1.695   4.116   0.977  0.1513 -0.2509  0.2022
 5258TP3     H227594   1.631   4.045   1.095 -0.0853 -0.2300  0.0865
 5259TP3      O27595   3.616   5.223   2.020  0.4448  0.5313  0.1988
 5259TP3     H127596   3.640   5.202   2.110  0.0657 -1.7908 -0.1914
 5259TP3     H227597   3.555   5.296   2.029  0.5563  0.4700  1.8013
 5260TP3      O27598   1.308   4.926   3.269  0.8178  0.1369 -0.5698
 5260TP3     H127599   1.291   5.019   3.286 -2.0992 -0.5194  0.7412
 5260TP3     H227600   1.297   4.917   3.174 -0.8979  0.8376 -0.4776
 5261TP3      O27601   3.486   0.910   0.987 -0.9333 -0.6760 -0.2487
 5261TP3     H127602   3.435   0.902   1.067 -0.4795  1.1337  0.2516
 5261TP3     H227603   3.564   0.857   1.003 -0.5291  0.1953  0.8005
 5262TP3      O27604   2.970   0.789   2.596  0.3480  0.3047 -0.3764
 5262TP3     H127605   3.013   0.787   2.511  0.1932 -0.2299 -0.4449
 5262TP3     H227606   2.919   0.709   2.599 -0.9948  1.1275 -0.4793
 5263TP3      O27607   0.075   1.108   8.415  0.0843  0.2116  0.2701
 5263TP3     H127608   0.061   1.184   8.470  1.1189 -0.1350  1.0537
 5263TP3     H227609   0.168   1.087   8.427  0.2897 -0.0055 -1.4457
 5264TP3      O27610   4.932   2.021   9.620 -0.3759 -0.3321  0.1941
 5264TP3     H127611   4.895   2.101   9.655 -0.1795 -0.2283  0.1668
 5264TP3     H227612   4.949   1.966   9.697  0.2674 -0.0147  0.2872
 5265TP3      O27613   3.838   3.516   2.923  0.0418  0.0988  0.5153
 5265TP3     H127614   3.845   3.585   2.989  0.7181  0.2190  0.3276
 5265TP3     H227615   3.842   3.435   2.973 -0.7603  0.1865  0.7388
 5266TP3      O27616   1.890   5.260   2.659 -0.0086  0.0363 -0.0492
 5266TP3     H127617   1.866   5.198   2.590  0.8878 -0.5656  0.1529
 5266TP3     H227618   1.925   5.205   2.729 -0.2805  0.6936  0.6076
 5267TP3      O27619   4.725   0.541   8.690  0.4401  0.1221  0.6430
 5267TP3     H127620   4.638   0.579   8.680  0.7693  0.9630  0.8666
 5267TP3     H227621   4.775   0.572   8.614  1.0394  1.1014  1.4093
 5268TP3      O27622   4.353   0.452   1.078  0.3365  0.3842 -0.3333
 5268TP3     H127623   4.279   0.420   1.130 -0.2051  0.9683 -0.7292
 5268TP3     H227624   4.314   0.477   0.994  1.1473 -0.2319 -0.9034
 5269TP3      O27625   3.246   2.957   7.059  0.4380 -0.1399 -0.4001
 5269TP3     H127626   3.235   2.880   7.003 -2.3330  0.5825 -0.9799
 5269TP3     H227627   3.269   2.921   7.145  1.3404 -1.4435 -1.1408
 5270TP3      O27628   4.971   3.775   9.995 -0.3808  0.0501  0.1254
 5270TP3     H127629   5.005   3.706   9.938 -2.1913 -1.1838  0.4330
 5270TP3     H227630   5.039   3.788  10.061 -0.3663 -2.1782  0.6304
 5271TP3      O27631   3.418   2.456   2.519 -0.0596 -0.2376  0.2097
 5271TP3     H127632   3.506   2.476   2.485 -0.5496  0.0401 -0.9514
 5271TP3     H227633   3.367   2.534   2.499 -0.7009 -0.6036  0.4037
 5272TP3      O27634   0.838   3.890   1.034  0.1234  0.2972 -0.3804
 5272TP3     H127635   0.849   3.980   1.064 -2.3106  0.0206  1.6934
 5272TP3     H227636   0.757   3.891   0.985 -0.8980 -1.0195  1.1716
 5273TP3      O27637   1.769   2.332   1.171 -0.2167  0.0369  0.6289
 5273TP3     H127638   1.711   2.408   1.183  0.0662  0.1972  0.9794
 5273TP3     H227639   1.780   2.326   1.076 -1.9148 -0.8316  0.4509
 5274TP3      O27640   4.660   1.585   1.353  0.9729  0.8664 -0.2771
 5274TP3     H127641   4.627   1.630   1.431 -0.5711  1.3768 -1.1817
 5274TP3     H227642   4.752   1.570   1.372  0.2233 -1.0784  2.6442
 5275TP3      O27643   2.483   4.430   7.956  0.6197  0.4324  0.1487
 5275TP3     H127644   2.418   4.374   7.996  0.5393  0.4431  0.0336
 5275TP3     H227645   2.560   4.422   8.012  0.5319  0.3908  0.2626
 5276TP3      O27646   4.013   5.187   8.829 -0.0642  0.8823 -0.0001
 5276TP3     H127647   4.077   5.207   8.762  0.4792  1.3163  0.6299
 5276TP3     H227648   3.939   5.150   8.782  0.2997  1.1964 -0.8320
 5277TP3      O27649   3.228   1.175   9.494  0.6556  0.4664  0.3366
 5277TP3     H127650   3.168   1.245   9.468  0.5684 -0.1192 -1.1282
 5277TP3     H227651   3.291   1.169   9.422  0.4852 -1.1368  0.2684
 5278TP3      O27652   5.276   4.146   9.538 -0.1771 -0.9365 -0.0494
 5278TP3     H127653   5.317   4.221   9.580 -1.6583 -0.8223  1.2696
 5278TP3     H227654   5.183   4.169   9.531 -0.3600 -1.9101 -1.2838
 5279TP3      O27655   2.338   5.036   2.393 -0.0517 -0.4608 -0.1766
 5279TP3     H127656   2.387   4.976   2.448 -1.6158 -2.4666 -0.8401
 5279TP3     H227657   2.318   4.985   2.314 -1.5729  0.8800 -0.7142
 5280TP3      O27658   3.090   1.312   8.777  0.6513  0.4198  0.2165
 5280TP3     H127659   3.080   1.269   8.692  1.6222 -2.3847  1.4028
 5280TP3     H227660   3.155   1.380   8.762 -0.6140  1.3186 -1.6600
 5281TP3      O27661   0.969   0.314   9.231 -0.9668 -0.1387  0.1165
 5281TP3     H127662   1.006   0.382   9.173 -1.7035 -0.5342 -0.8481
 5281TP3     H227663   1.037   0.301   9.298 -0.5391  1.0944 -0.0339
 5282TP3      O27664   2.320   0.106   9.165 -0.4218  0.0188  0.4799
 5282TP3     H127665   2.244   0.163   9.159 -0.1839  0.2261 -0.7486
 5282TP3     H227666   2.395   0.166   9.163 -0.2033 -0.2026  1.4013
 5283TP3      O27667   3.581   1.314   9.631  0.0277  0.1832  0.4521
 5283TP3     H127668   3.520   1.250   9.594  1.2769 -0.2694 -0.9250
 5283TP3     H227669   3.661   1.264   9.649  1.0569  1.3100 -0.7169
 5284TP3      O27670   0.356   1.225   0.365 -0.3611 -0.5386 -0.2956
 5284TP3     H127671   0.361   1.140   0.409  1.1289 -0.3673 -0.0838
 5284TP3     H227672   0.442   1.236   0.324  0.4594  1.9888  1.8352
 5285TP3      O27673   3.543   1.942   0.646 -0.0237 -0.0663 -0.0741
 5285TP3     H127674   3.576   1.883   0.578  0.9156  1.0407 -0.6107
 5285TP3     H227675   3.448   1.946   0.631  0.1720  0.1753 -1.3377
 5286TP3      O27676   0.821   2.522   0.339 -0.1793  0.0959 -0.5766
 5286TP3     H127677   0.882   2.451   0.317 -0.5378 -1.0026  1.7073
 5286TP3     H227678   0.735   2.479   0.340 -0.2428  0.0790  2.3549
 5287TP3      O27679   4.525   4.894   0.955  0.0950  0.5083 -0.6644
 5287TP3     H127680   4.543   4.988   0.950  2.8921  0.0638 -0.8235
 5287TP3     H227681   4.510   4.877   1.048 -0.6331  1.1332 -0.6636
 5288TP3      O27682   4.268   1.027   1.191 -0.1068  0.0158  0.1953
 5288TP3     H127683   4.259   0.954   1.253 -2.4837  0.7634  0.8768
 5288TP3     H227684   4.290   0.986   1.108 -2.5247 -1.6898  0.2884
 5289TP3      O27685   1.639   2.675   2.278 -0.2001 -0.2023 -0.2062
 5289TP3     H127686   1.558   2.716   2.247 -1.3787 -0.8652  1.8175
 5289TP3     H227687   1.619   2.582   2.282  0.1716 -0.2525  1.5346
 5290TP3      O27688   2.563   1.707   7.285  0.6349  0.4645 -1.4932
 5290TP3     H127689   2.477   1.713   7.326  0.8260  0.4337 -1.0808
 5290TP3     H227690   2.589   1.616   7.296  0.6512  0.4366 -1.7593
 5291TP3      O27691   2.906   1.257   3.085 -0.3356 -0.2320  0.0301
 5291TP3     H127692   2.998   1.248   3.110 -0.1350  0.0506 -0.5772
 5291TP3     H227693   2.885   1.348   3.106 -0.1943 -0.0205 -0.6987
 5292TP3      O27694   0.533   3.047   9.763 -0.0145 -0.5030  0.1424
 5292TP3     H127695   0.558   3.095   9.842  1.9141  0.1944 -0.8194
 5292TP3     H227696   0.503   2.962   9.795 -3.3789  1.1462  1.8988
 5293TP3      O27697   4.384   1.843   0.596 -0.2424 -0.0619  0.0596
 5293TP3     H127698   4.429   1.928   0.593 -0.9444  0.4333  2.1081
 5293TP3     H227699   4.305   1.859   0.648 -1.4615 -1.5311 -1.2269
 5294TP3      O27700   1.185   4.323   7.099 -0.0337 -0.8555  0.3157
 5294TP3     H127701   1.099   4.346   7.064  0.2061  1.7452  1.2344
 5294TP3     H227702   1.245   4.334   7.026 -0.3336 -1.6351 -0.0525
 5295TP3      O27703   4.116   1.859   1.377  0.2401 -0.2343 -0.3057
 5295TP3     H127704   4.127   1.798   1.450 -1.6538  0.0566  0.2680
 5295TP3     H227705   4.149   1.811   1.301  3.8632  0.0458  0.8718
 5296TP3      O27706   3.466   4.358   3.303  0.2437  0.6397 -0.9889
 5296TP3     H127707   3.442   4.333   3.392 -0.6566  3.3479 -0.3737
 5296TP3     H227708   3.495   4.276   3.262  1.2252 -0.6066  1.9174
 5297TP3      O27709   0.914   4.874   2.004  0.4179 -0.5472  0.4341
 5297TP3     H127710   0.883   4.959   2.034  0.4315 -0.5143  0.3547
 5297TP3     H227711   1.000   4.892   1.967  0.3812 -0.5808  0.3327
 5298TP3      O27712   0.754   4.921   9.969 -0.1708  0.7616 -0.0727
 5298TP3     H127713   0.723   4.832   9.953 -0.4775  0.8901 -0.2019
 5298TP3     H227714   0.849   4.912   9.983 -0.4936  0.1440  1.9968
 5299TP3      O27715   4.439   2.251   7.929 -0.6655  0.2491 -0.1390
 5299TP3     H127716   4.508   2.186   7.911  0.1959  1.8571 -3.5083
 5299TP3     H227717   4.358   2.200   7.932  0.2908 -1.3028  0.4578
 5300TP3      O27718   1.195   5.277   8.103  0.0079  0.2849  0.5366
 5300TP3     H127719   1.270   5.229   8.069 -1.1914 -1.0542 -0.3742
 5300TP3     H227720   1.182   5.244   8.191 -0.1183 -0.2461  0.3222
 5301TP3      O27721   4.797   2.319   9.139  0.1970  0.9224  0.4417
 5301TP3     H127722   4.841   2.280   9.214 -0.9074  0.4692  0.8828
 5301TP3     H227723   4.704   2.303   9.155 -0.0630  0.6963 -1.0937
 5302TP3      O27724   5.085   0.427   0.310  0.4171 -0.1673 -0.5608
 5302TP3     H127725   5.171   0.417   0.351  0.4082  0.8416 -0.2897
 5302TP3     H227726   5.089   0.511   0.266 -0.7226  0.2718  0.1439
 5303TP3      O27727   4.485   2.511   8.889  0.3510 -0.0521  0.6388
 5303TP3     H127728   4.556   2.498   8.826 -0.9922 -0.7536 -0.8141
 5303TP3     H227729   4.503   2.596   8.928  0.2866  1.3273 -2.0793
 5304TP3      O27730   0.238   5.185   0.039 -0.1331 -0.0253 -0.3504
 5304TP3     H127731   0.310   5.147  -0.011 -0.9542  1.1857 -2.5958
 5304TP3     H227732   0.281   5.241   0.104  0.9643 -1.8084  0.5690
 5305TP3      O27733   0.277   4.942   1.542  0.4761 -0.4190  0.2745
 5305TP3     H127734   0.269   4.995   1.622 -0.5521 -0.2825  0.0972
 5305TP3     H227735   0.268   5.006   1.471 -0.1219 -0.7346  0.0594
 5306TP3      O27736   0.269   4.422   2.709 -0.0619 -0.0968 -0.5909
 5306TP3     H127737   0.182   4.383   2.702 -0.4069  0.8772 -2.3074
 5306TP3     H227738   0.301   4.424   2.619  1.6701 -0.2535 -0.0119
 5307TP3      O27739   2.336   3.632   7.202 -0.2787 -0.5570  0.2209
 5307TP3     H127740   2.290   3.683   7.136 -1.4847 -1.1449  0.5784
 5307TP3     H227741   2.284   3.552   7.211  2.0238 -2.2751 -0.9595
 5308TP3      O27742   4.506   4.190   3.411  0.2195  0.1443  1.0836
 5308TP3     H127743   4.523   4.179   3.317 -1.9844 -0.7166  0.7084
 5308TP3     H227744   4.528   4.105   3.449 -2.4396 -0.8303  0.6615
 5309TP3      O27745   4.472   3.620   1.549 -0.4414 -0.0080  0.1896
 5309TP3     H127746   4.556   3.609   1.595  0.0878 -1.4069 -1.0187
 5309TP3     H227747   4.415   3.663   1.613  0.2514 -1.8577  2.1684
 5310TP3      O27748   2.520   3.454   1.777 -0.0167  0.4195 -0.0128
 5310TP3     H127749   2.425   3.459   1.766 -0.4795 -1.2014  2.3840
 5310TP3     H227750   2.554   3.446   1.688 -1.9637  2.3334 -1.0240
 5311TP3      O27751   4.850   4.521   7.667 -0.4683 -0.2217 -0.4524
 5311TP3     H127752   4.847   4.616   7.677 -1.4313 -0.2788 -0.0571
 5311TP3     H227753   4.843   4.507   7.573 -3.5506  0.0652 -0.3933
 5312TP3      O27754   1.006   2.333   0.286  0.5882  0.3862 -0.1968
 5312TP3     H127755   1.057   2.402   0.245  1.7374 -0.0945  0.3687
 5312TP3     H227756   1.070   2.263   0.302 -0.6243 -0.9918 -1.1691
 5313TP3      O27757   2.870   4.124   1.636  0.3728 -0.2253 -0.5061
 5313TP3     H127758   2.874   4.119   1.732  2.0636  1.2472 -0.4554
 5313TP3     H227759   2.777   4.135   1.617  0.1973  2.0604  1.1890
 5314TP3      O27760   0.823   1.401   9.019  0.0852 -0.9525 -0.7349
 5314TP3     H127761   0.747   1.400   8.961 -0.2655 -3.4149 -0.3556
 5314TP3     H227762   0.787   1.418   9.106  0.0761 -1.1892 -0.6913
 5315TP3      O27763   0.529   3.494   8.177 -0.2884  0.3172  0.0563
 5315TP3     H127764   0.531   3.451   8.091 -0.4466  0.1766  0.1236
 5315TP3     H227765   0.555   3.585   8.158 -1.9564  0.7359 -0.3985
 5316TP3      O27766   3.778   0.380   1.649  0.3356 -0.0967  0.3845
 5316TP3     H127767   3.873   0.365   1.648  0.5653  0.9948 -1.7976
 5316TP3     H227768   3.747   0.338   1.568 -0.9933 -0.1231  0.8930
 5317TP3      O27769   0.804   1.573   1.409 -0.3374 -0.4051 -0.1308
 5317TP3     H127770   0.775   1.658   1.443 -1.4209 -1.1559  0.9238
 5317TP3     H227771   0.766   1.510   1.470 -1.8511 -1.8116 -2.3818
 5318TP3      O27772   0.917   5.088   2.283  0.4525 -0.2569 -0.3545
 5318TP3     H127773   0.854   5.017   2.296  1.6120 -1.0474  1.4830
 5318TP3     H227774   0.885   5.160   2.337  1.1133 -0.7103  0.6994
 5319TP3      O27775   3.030   3.232   7.739 -0.6904  0.1429  0.0143
 5319TP3     H127776   3.122   3.228   7.711 -0.2341  0.4219  1.3788
 5319TP3     H227777   2.995   3.145   7.718  0.0074 -0.1070 -0.1433
 5320TP3      O27778   0.342   0.607   8.405 -0.4119 -0.5268 -0.3448
 5320TP3     H127779   0.263   0.651   8.375 -1.2899 -1.0254  1.1149
 5320TP3     H227780   0.312   0.551   8.476  1.2775 -0.6697  0.2970
 5321TP3      O27781   1.277   4.447   1.163  0.6786  0.3892  0.1777
 5321TP3     H127782   1.247   4.501   1.089  1.1213  1.5359  0.8098
 5321TP3     H227783   1.372   4.440   1.151  0.8331  1.0604  0.9323
 5322TP3      O27784   1.044   3.259   7.558  0.2383  0.2816 -0.3438
 5322TP3     H127785   1.086   3.345   7.565  1.2738 -0.2552  0.2272
 5322TP3     H227786   1.063   3.216   7.642 -0.7967 -0.2768 -0.3809
 5323TP3      O27787   2.675   4.590   2.873 -0.0508 -0.1515 -0.4871
 5323TP3     H127788   2.609   4.648   2.910 -0.8911 -0.5230 -1.3601
 5323TP3     H227789   2.638   4.502   2.882  0.1680 -0.3381 -1.2837
 5324TP3      O27790   1.978   3.932   1.902 -0.1451  0.0767  0.3686
 5324TP3     H127791   1.888   3.941   1.933  0.3035  0.2953  1.6600
 5324TP3     H227792   1.969   3.895   1.814 -1.5558  1.4329 -0.1190
 5325TP3      O27793   1.640   1.212   0.819 -0.0722 -0.1885 -0.0379
 5325TP3     H127794   1.649   1.249   0.907  1.0313  2.1351 -1.0219
 5325TP3     H227795   1.547   1.196   0.808 -0.2693 -0.1134  1.3820
 5326TP3      O27796   2.675   1.229   0.189 -0.6769  0.6989 -0.2337
 5326TP3     H127797   2.620   1.210   0.266 -0.1161 -0.2906 -0.0580
 5326TP3     H227798   2.759   1.255   0.226  0.2178 -1.6336 -0.4576
 5327TP3      O27799   3.166   2.100   0.631  0.5164  0.1536 -0.1530
 5327TP3     H127800   3.162   2.144   0.716  0.2082  0.4463 -0.3158
 5327TP3     H227801   3.116   2.157   0.572 -1.0803 -1.1018 -0.0700
 5328TP3      O27802   5.279   1.224   0.149 -0.3715 -0.4178 -0.3420
 5328TP3     H127803   5.304   1.301   0.097 -2.4295  0.2352 -0.4841
 5328TP3     H227804   5.280   1.152   0.087 -2.1632  0.2345 -1.2011
 5329TP3      O27805   3.396   3.383   1.196  0.4970  0.2935 -0.5363
 5329TP3     H127806   3.402   3.457   1.256  0.3002  0.6181 -0.9197
 5329TP3     H227807   3.476   3.333   1.211  0.8060  0.7857 -0.5504
 5330TP3      O27808   2.696   1.839   1.669 -0.0334 -0.0671 -0.1330
 5330TP3     H127809   2.609   1.868   1.643 -1.1123 -0.5618  2.5380
 5330TP3     H227810   2.708   1.875   1.757  1.6719 -1.5168  0.2971
 5331TP3      O27811   4.354   0.816   0.490  0.1079  0.7200 -0.9952
 5331TP3     H127812   4.327   0.898   0.448 -0.1442  0.2891 -1.6816
 5331TP3     H227813   4.430   0.787   0.440  0.3930  0.6872 -0.5526
 5332TP3      O27814   2.107   0.409   2.734 -0.0585  0.2383 -0.2880
 5332TP3     H127815   2.061   0.475   2.786  0.4932 -0.2198  0.8153
 5332TP3     H227816   2.167   0.367   2.796  0.1998 -0.7304 -1.1649
 5333TP3      O27817   2.008   4.344   1.106 -0.2554 -0.0369  0.8627
 5333TP3     H127818   2.009   4.327   1.200 -0.7799  0.3195  0.9341
 5333TP3     H227819   2.029   4.437   1.099  0.7404 -0.2734  0.5738
 5334TP3      O27820   2.911   0.836   7.236  0.4233 -0.2343  0.0191
 5334TP3     H127821   2.828   0.800   7.204  0.1278  0.2056  0.2772
 5334TP3     H227822   2.940   0.894   7.165  0.3285 -0.1141  0.0779
 5335TP3      O27823   4.585   5.238   0.488 -0.4866 -0.1278  0.1966
 5335TP3     H127824   4.556   5.319   0.447  0.1042  0.4809  0.9642
 5335TP3     H227825   4.505   5.198   0.522 -0.6367  0.7545  0.9046
 5336TP3      O27826   3.580   3.999   7.729 -0.2017 -0.1064  0.5342
 5336TP3     H127827   3.623   3.938   7.669 -0.0826  0.7880 -0.3042
 5336TP3     H227828   3.651   4.034   7.783  0.0331  0.8069 -0.3477
 5337TP3      O27829   0.686   3.156   2.249  0.3916 -0.0061 -0.3426
 5337TP3     H127830   0.703   3.081   2.192  1.3968  0.2357 -0.3914
 5337TP3     H227831   0.686   3.120   2.337 -1.6430 -0.4627 -0.4840
 5338TP3      O27832   1.190   4.095   9.377  0.4695  0.0398 -0.3170
 5338TP3     H127833   1.221   4.162   9.439 -0.5866 -0.9060  1.3157
 5338TP3     H227834   1.262   4.032   9.374 -0.1532 -0.8385  1.4530
 5339TP3      O27835   0.468   3.684   6.943  0.7648  0.5922  0.3430
 5339TP3     H127836   0.449   3.705   6.852 -0.3250  0.0716  0.4363
 5339TP3     H227837   0.562   3.662   6.944  0.6775  0.1403 -0.7399
 5340TP3      O27838   2.279   2.777   2.909  0.0120  0.4345  0.1290
 5340TP3     H127839   2.270   2.707   2.972 -2.5358  0.1577 -0.4545
 5340TP3     H227840   2.250   2.856   2.956 -0.3568  0.5007 -0.2031
 5341TP3      O27841   0.873   0.143   1.768 -0.3524 -0.0734  0.2074
 5341TP3     H127842   0.952   0.141   1.823 -0.0550  1.3738 -0.1368
 5341TP3     H227843   0.891   0.079   1.700  0.2850 -0.1815  0.4622
 5342TP3      O27844   4.690   1.952   1.329 -0.1662  0.1335  0.2691
 5342TP3     H127845   4.647   2.035   1.350 -2.4446 -0.8783 -0.0139
 5342TP3     H227846   4.632   1.885   1.365  0.0615 -1.4172 -1.9700
 5343TP3      O27847   3.987   4.169   9.199  0.1314 -0.1110  0.0219
 5343TP3     H127848   3.937   4.222   9.137 -0.3133 -1.4084 -0.7730
 5343TP3     H227849   4.003   4.087   9.153  0.0966 -0.9924  1.4854
 5344TP3      O27850   1.199   4.463   8.702  0.2762 -0.1657 -0.4195
 5344TP3     H127851   1.220   4.476   8.609  2.3701  0.5849  0.0996
 5344TP3     H227852   1.265   4.515   8.748 -0.3242 -1.0545  1.5149
 5345TP3      O27853   2.554   3.965   9.370  0.2357 -0.1026 -0.6201
 5345TP3     H127854   2.478   4.009   9.332 -0.6822 -1.1360 -0.0293
 5345TP3     H227855   2.607   3.940   9.295 -1.0009 -1.1240 -1.1886
 5346TP3      O27856   1.997   4.398   2.406  0.0341 -0.0350  0.6247
 5346TP3     H127857   2.044   4.362   2.331 -0.2106 -0.6562  0.7584
 5346TP3     H227858   1.904   4.379   2.387 -0.2707  1.9477 -0.0516
 5347TP3      O27859   0.644   2.625   2.551  0.1911  0.4100 -0.5009
 5347TP3     H127860   0.622   2.552   2.609 -0.6291  1.8825  1.1137
 5347TP3     H227861   0.678   2.582   2.472  2.2858 -1.6581  1.3518
 5348TP3      O27862   3.309   1.170   9.945  0.0335  0.3526  0.0842
 5348TP3     H127863   3.365   1.093   9.958 -0.0935  0.4214  1.0978
 5348TP3     H227864   3.249   1.143   9.876  0.1349 -0.3840  0.2661
 5349TP3      O27865   0.287   0.997   1.699  0.3473  0.3303 -0.4718
 5349TP3     H127866   0.230   0.920   1.695 -0.3341  0.8124 -0.3558
 5349TP3     H227867   0.240   1.064   1.648  0.1530  1.1412  0.7276
 5350TP3      O27868   5.142   3.033   1.547 -0.8432  0.0333  0.5704
 5350TP3     H127869   5.092   2.958   1.514  1.0538 -0.6003 -1.0972
 5350TP3     H227870   5.200   2.995   1.613  0.7719 -0.2033 -0.9316
 5351TP3      O27871   3.936   2.303   8.112 -0.1659 -0.0719  0.3023
 5351TP3     H127872   4.002   2.327   8.047  1.4511 -0.3100  1.7703
 5351TP3     H227873   3.857   2.348   8.083  1.0640  1.6281 -0.6338
 5352TP3      O27874   1.771   0.928   1.088  0.1150  0.6512  0.0141
 5352TP3     H127875   1.817   0.942   1.005 -1.1675  2.2902 -0.4861
 5352TP3     H227876   1.775   1.013   1.131 -0.0904  0.0714  1.1952
 5353TP3      O27877   5.212   1.105   3.299  0.7521  0.1502  0.0275
 5353TP3     H127878   5.275   1.148   3.356  1.7783 -1.1767 -0.0890
 5353TP3     H227879   5.228   1.144   3.213 -0.3594  1.6754  0.4631
 5354TP3      O27880   2.998   3.904   0.023 -0.2427  0.2625  0.0842
 5354TP3     H127881   3.075   3.892   0.078 -0.2225  0.1716  0.0362
 5354TP3     H227882   3.033   3.907  -0.067 -0.4883 -1.8521 -0.1199
 5355TP3      O27883   0.744   4.890   3.371 -0.4163 -0.2417 -0.3777
 5355TP3     H127884   0.741   4.984   3.389 -1.4823 -0.0824 -1.3269
 5355TP3     H227885   0.711   4.850   3.451  1.0374  0.1115  0.4389
 5356TP3      O27886   0.830   1.071   2.465  0.1938  0.0820  0.2853
 5356TP3     H127887   0.757   1.066   2.404  0.2564 -1.8248  0.3021
 5356TP3     H227888   0.901   1.024   2.420  0.3752 -0.9569  1.6117
 5357TP3      O27889   1.885   5.288   1.231  0.1772  0.1548 -0.2833
 5357TP3     H127890   1.901   5.334   1.313 -1.8889  0.8887 -0.2476
 5357TP3     H227891   1.897   5.355   1.164 -3.1959  1.0094 -0.2117
 5358TP3      O27892   3.083   4.209   8.341  0.3624 -0.3309 -1.1825
 5358TP3     H127893   3.018   4.140   8.327 -0.8476  0.7715 -1.2116
 5358TP3     H227894   3.153   4.189   8.279  0.4846 -2.0352 -0.5376
 5359TP3      O27895   3.536   3.438   1.874  0.0374  0.6813  0.6754
 5359TP3     H127896   3.507   3.529   1.874  1.3050  1.1144  0.5409
 5359TP3     H227897   3.543   3.415   1.782  0.9845  0.9029  0.6747
 5360TP3      O27898   4.591   2.598   2.350 -0.4053 -0.3101  0.3799
 5360TP3     H127899   4.513   2.568   2.397  0.6521 -1.4103  1.5267
 5360TP3     H227900   4.664   2.551   2.392  0.8944  0.7744 -0.5622
 5361TP3      O27901   2.916   4.888   8.202  0.3606  0.4630 -0.0189
 5361TP3     H127902   2.934   4.946   8.128  3.5532  2.0283  1.7920
 5361TP3     H227903   2.963   4.808   8.181  0.6775  0.6464 -0.0170
 5362TP3      O27904   1.807   2.842   9.504  0.5061  0.2194 -0.0013
 5362TP3     H127905   1.887   2.789   9.499 -0.4920 -1.9972  3.8093
 5362TP3     H227906   1.743   2.794   9.451  0.8019  0.1351 -0.2869
 5363TP3      O27907   3.412   5.153   7.978 -0.0209 -0.5044 -1.0347
 5363TP3     H127908   3.428   5.204   7.899  0.6512  0.8473 -0.0647
 5363TP3     H227909   3.322   5.176   8.004  0.2488  0.1618 -0.6501
 5364TP3      O27910   2.209   0.674   8.830 -0.3329  0.4095  0.8907
 5364TP3     H127911   2.128   0.721   8.845 -0.3899 -0.1501  2.4610
 5364TP3     H227912   2.235   0.640   8.916  1.6716  0.7430  0.4785
 5365TP3      O27913   0.099   4.356   3.038  0.4365  0.1248 -0.2087
 5365TP3     H127914   0.078   4.372   3.130 -0.0595  0.5286 -0.3899
 5365TP3     H227915   0.179   4.407   3.023  0.5380  0.0301  0.0102
 5366TP3      O27916   3.560   1.900   3.092 -0.4157 -0.2331  0.2547
 5366TP3     H127917   3.640   1.850   3.104 -0.9121 -0.9485  0.6259
 5366TP3     H227918   3.491   1.846   3.130 -0.6928  1.6428  2.7115
 5367TP3      O27919   2.423   4.027   3.087  0.7662 -0.0957  0.0903
 5367TP3     H127920   2.470   4.103   3.120 -0.8641  0.8843  0.2395
 5367TP3     H227921   2.337   4.061   3.061 -0.9295 -2.2104  2.3769
 5368TP3      O27922   1.143   2.808   0.065  0.2429 -0.4658 -0.0318
 5368TP3     H127923   1.164   2.815  -0.028 -2.6017  1.5734 -0.6491
 5368TP3     H227924   1.157   2.896   0.099  0.6066 -1.0352  1.3491
 5369TP3      O27925   2.046   4.892   1.981 -0.1410  0.3913  0.3611
 5369TP3     H127926   1.996   4.930   2.054  1.0988 -1.1534  2.0998
 5369TP3     H227927   2.135   4.886   2.014  0.7444  0.7777 -1.7832
 5370TP3      O27928   4.891   0.851   7.840  0.1644 -0.2355  0.0314
 5370TP3     H127929   4.963   0.788   7.839  0.1885 -0.2480  1.2174
 5370TP3     H227930   4.813   0.798   7.824  0.2526 -0.4746  0.3824
 5371TP3      O27931   1.479   3.705   2.272  0.2519 -0.2980 -0.1162
 5371TP3     H127932   1.554   3.646   2.273  0.2433 -0.3016  0.3131
 5371TP3     H227933   1.517   3.793   2.276  0.3813 -0.1425 -2.8744
 5372TP3      O27934   1.641   1.297   0.342 -0.5274  0.5784  0.3204
 5372TP3     H127935   1.636   1.350   0.421  0.9079  0.7089  0.3562
 5372TP3     H227936   1.693   1.349   0.281  2.0489 -1.2270  0.8057
 5373TP3      O27937   4.298   2.295   3.007  0.7054 -0.0733  0.1134
 5373TP3     H127938   4.259   2.229   3.065 -0.2509  1.2349  1.0208
 5373TP3     H227939   4.275   2.379   3.047  1.6080  0.8363 -1.1851
 5374TP3      O27940   5.246   5.163   7.626  0.1350  0.0792  0.7777
 5374TP3     H127941   5.216   5.227   7.560  0.6401 -0.2302  0.2432
 5374TP3     H227942   5.165   5.124   7.659 -0.1015 -0.4778 -0.3860
 5375TP3      O27943   3.497   0.975   2.059 -0.0210  0.4936 -0.4197
 5375TP3     H127944   3.524   1.016   2.142 -0.0267 -0.8706  0.2965
 5375TP3     H227945   3.403   0.961   2.069 -0.0685  0.5529 -0.7692
 5376TP3      O27946   0.279   2.147   1.367  0.3068 -0.0570 -0.2163
 5376TP3     H127947   0.194   2.161   1.325 -0.1560  0.2545  0.8055
 5376TP3     H227948   0.325   2.231   1.356 -0.6795  0.8256  1.8116
 5377TP3      O27949   1.728   1.378   0.598 -0.5512 -0.3136 -0.1746
 5377TP3     H127950   1.791   1.436   0.640 -2.4095  1.4587  0.3328
 5377TP3     H227951   1.684   1.334   0.671 -1.2198 -0.0721 -0.4271
 5378TP3      O27952   4.684   2.615   9.209  0.5986 -0.1964 -0.7185
 5378TP3     H127953   4.684   2.668   9.129 -0.3040  0.9551 -0.0009
 5378TP3     H227954   4.728   2.534   9.185 -0.5187 -0.2905 -2.6606
 5379TP3      O27955   3.586   4.936   1.029  0.5548  0.3183  0.3170
 5379TP3     H127956   3.514   4.995   1.050  0.6937  0.6238 -0.0660
 5379TP3     H227957   3.613   4.960   0.941  0.0549 -0.8807 -0.1941
 5380TP3      O27958   0.001   2.061   9.560 -0.0316 -0.2687  0.0274
 5380TP3     H127959  -0.056   2.058   9.637  0.5745  0.3380  0.5167
 5380TP3     H227960   0.006   2.154   9.538 -0.1206 -0.4284 -0.6903
 5381TP3      O27961   3.196   0.330   1.722  0.4024  0.4738 -0.1934
 5381TP3     H127962   3.234   0.302   1.806  0.5577 -0.9685 -0.7145
 5381TP3     H227963   3.115   0.279   1.715  0.4818  0.4583 -1.0127
 5382TP3      O27964   0.672   3.887   6.609 -0.1622 -0.3939 -0.1089
 5382TP3     H127965   0.611   3.833   6.659 -0.0490  0.2365  0.7330
 5382TP3     H227966   0.754   3.837   6.611 -0.3251 -0.6661 -0.1960
 5383TP3      O27967   3.681   1.501   2.166  0.0078  0.1895 -0.1377
 5383TP3     H127968   3.750   1.563   2.189  0.2643 -0.3614  0.6261
 5383TP3     H227969   3.708   1.419   2.206 -0.6832 -0.2411 -0.5307
 5384TP3      O27970   3.137   1.726   2.571  0.7117 -0.9664 -0.3031
 5384TP3     H127971   3.125   1.635   2.544 -0.2089 -0.5254 -1.4731
 5384TP3     H227972   3.061   1.772   2.535  0.9468  0.1976  0.6239
 5385TP3      O27973   3.790   1.272   0.193 -0.2454 -0.5498 -0.6015
 5385TP3     H127974   3.770   1.307   0.106  2.8298  0.2203 -1.0899
 5385TP3     H227975   3.770   1.178   0.186 -0.5837 -0.3985 -1.9515
 5386TP3      O27976   2.023   3.659   7.158 -0.2986 -0.1803 -0.2865
 5386TP3     H127977   2.081   3.687   7.087  0.3084  0.6066  0.4965
 5386TP3     H227978   1.952   3.613   7.114 -0.5561  1.3224 -1.5196
 5387TP3      O27979   2.805   4.009   3.119 -0.2582  0.3788  0.1173
 5387TP3     H127980   2.748   3.961   3.179 -1.1620  3.2666  1.7652
 5387TP3     H227981   2.892   3.974   3.137 -0.7243  0.0270  1.9855
 5388TP3      O27982   0.063   3.073   2.646 -0.1192 -0.3525 -0.2607
 5388TP3     H127983   0.057   3.060   2.551  0.0021  1.1142 -0.4848
 5388TP3     H227984   0.062   3.168   2.658  0.2780 -0.5032  1.1871
 5389TP3      O27985   4.124   4.969   9.364 -0.2675  0.7670  0.3349
 5389TP3     H127986   4.032   4.991   9.379 -0.0333  1.6640  0.5221
 5389TP3     H227987   4.146   4.908   9.435 -0.2839  1.8169  1.2691
 5390TP3      O27988   4.564   2.306   7.451  0.7571  0.4087 -0.2576
 5390TP3     H127989   4.469   2.308   7.436  0.5103  1.2087  1.1331
 5390TP3     H227990   4.592   2.220   7.421 -0.5505 -0.1274 -0.0260
 5391TP3      O27991   0.545   4.991   9.497 -0.3049 -0.1336  0.0260
 5391TP3     H127992   0.574   4.901   9.512  0.1331 -0.0818 -0.4772
 5391TP3     H227993   0.572   5.010   9.407 -3.3215 -0.6231 -1.0879
 5392TP3      O27994   4.583   2.960   3.031  0.2061  0.1131 -0.2310
 5392TP3     H127995   4.567   2.957   3.125  1.4797 -1.7973 -0.0079
 5392TP3     H227996   4.496   2.955   2.991 -0.4612  2.4660  0.7998
 5393TP3      O27997   2.081   3.044   8.929  0.1492  0.3343 -0.2917
 5393TP3     H127998   2.046   3.123   8.970 -0.7273 -0.8089  1.2316
 5393TP3     H227999   2.075   3.063   8.835  0.6975  2.3704  0.0247
 5394TP3      O28000   5.032   3.723   7.294 -0.1683  0.7661 -0.0704
 5394TP3     H128001   4.959   3.735   7.355  0.6710  0.1820  1.0855
 5394TP3     H228002   5.110   3.740   7.347  0.5699  0.5086 -1.0585
 5395TP3      O28003   1.889   0.419   3.189 -0.6998 -0.2913  0.6066
 5395TP3     H128004   1.981   0.432   3.164 -0.8873  1.7746  0.8014
 5395TP3     H228005   1.845   0.396   3.108 -0.3095  0.5744  0.1347
 5396TP3      O28006   1.244   3.448   1.492  0.0831  0.0488 -0.4876
 5396TP3     H128007   1.156   3.437   1.528 -0.5703 -1.8587 -2.4182
 5396TP3     H228008   1.302   3.410   1.558 -0.4604  1.6227  0.9521
 5397TP3      O28009   5.230   1.557   0.300 -0.3508  0.0374 -0.1024
 5397TP3     H128010   5.294   1.553   0.372 -0.4008 -0.1909 -0.0698
 5397TP3     H228011   5.284   1.568   0.222 -0.3603  1.7969  0.1012
 5398TP3      O28012   3.402   5.282   7.713  0.2979 -0.2709  0.0627
 5398TP3     H128013   3.398   5.193   7.677 -0.3862 -0.5269  0.7688
 5398TP3     H228014   3.419   5.337   7.636 -1.1194 -0.8129 -0.6793
 5399TP3      O28015   5.234   4.608   1.921  0.3388  0.0011  0.0485
 5399TP3     H128016   5.147   4.577   1.893 -0.5335  2.7030 -0.5060
 5399TP3     H228017   5.217   4.652   2.004  1.1152  0.8262 -0.2229
 5400TP3      O28018   0.690   2.437   1.385 -0.3885 -0.2606  0.1304
 5400TP3     H128019   0.654   2.358   1.345 -1.4943 -0.5590  1.6579
 5400TP3     H228020   0.785   2.425   1.380 -0.4815 -0.5090 -1.8977
 5401TP3      O28021   4.662   0.456   2.005  0.0206 -0.1376  0.4503
 5401TP3     H128022   4.742   0.425   1.962  0.0790  0.0234  0.4431
 5401TP3     H228023   4.601   0.473   1.932 -0.0590 -0.3676  0.4624
 5402TP3      O28024   1.755   1.871   7.008 -0.4066  0.1064  0.0817
 5402TP3     H128025   1.704   1.949   6.989  0.3552  0.4759 -0.4756
 5402TP3     H228026   1.692   1.810   7.046 -0.8049  1.3675  1.5385
 5403TP3      O28027   1.460   0.741   2.469  0.0271 -0.4373 -0.8816
 5403TP3     H128028   1.495   0.830   2.458 -1.5062  0.2516 -0.5156
 5403TP3     H228029   1.463   0.703   2.381  0.7060 -0.0246 -1.0440
 5404TP3      O28030   1.974   0.864   8.502  0.5578  0.2373  0.5409
 5404TP3     H128031   1.947   0.800   8.568  0.3619 -0.5030 -0.2225
 5404TP3     H228032   1.907   0.855   8.433 -1.2331  3.4107  1.6962
 5405TP3      O28033   1.043   4.481   0.322 -0.2804  0.4294  0.2311
 5405TP3     H128034   0.999   4.442   0.397 -1.5664  0.7592 -0.3226
 5405TP3     H228035   0.986   4.460   0.247  0.8253  0.3385 -0.6133
 5406TP3      O28036   3.590   4.108   3.440 -0.1107 -0.0533 -0.4527
 5406TP3     H128037   3.636   4.038   3.485 -1.0823  0.5469  1.5906
 5406TP3     H228038   3.505   4.113   3.483 -0.1738  2.1673 -0.6916
 5407TP3      O28039   1.995   3.542   1.737 -0.2792 -0.2471  0.2343
 5407TP3     H128040   1.963   3.540   1.647  1.8294  0.9019 -0.6064
 5407TP3     H228041   2.089   3.527   1.730 -0.0884 -0.3163  2.2740
 5408TP3      O28042   3.933   2.892   2.418  0.1249  0.2908 -0.3626
 5408TP3     H128043   3.978   2.809   2.400 -1.4040 -0.4245 -1.0601
 5408TP3     H228044   3.867   2.898   2.349 -1.0346  1.1685  0.7933
 5409TP3      O28045   1.082   0.308   2.908  0.2173 -0.4723 -0.5344
 5409TP3     H128046   1.153   0.342   2.961  0.8059 -1.8652 -0.3965
 5409TP3     H228047   1.096   0.346   2.821 -0.5008  1.4636  0.1503
 5410TP3      O28048   3.052   0.841   8.879  0.2169  0.1210 -0.1291
 5410TP3     H128049   3.023   0.932   8.871  0.1663  0.2103  0.9338
 5410TP3     H228050   3.091   0.836   8.966 -0.2657 -1.0113  0.0396
 5411TP3      O28051   1.204   1.011   2.177 -0.4940 -0.0431  0.0204
 5411TP3     H128052   1.242   1.015   2.090  0.8763 -1.4914  0.4960
 5411TP3     H228053   1.262   1.065   2.231 -1.0685  0.4725  0.1330
 5412TP3      O28054   2.722   0.006   8.452  0.1783  0.1374 -0.0373
 5412TP3     H128055   2.757  -0.078   8.421 -0.2750  0.0094 -0.2126
 5412TP3     H228056   2.798   0.053   8.486  0.3094 -0.7173  0.9065
 5413TP3      O28057   3.256   3.486   8.022 -1.0779 -0.3815  0.1664
 5413TP3     H128058   3.279   3.579   8.025  0.0205 -0.5515 -1.4638
 5413TP3     H228059   3.170   3.485   7.979 -1.6372 -0.0735  1.2397
 5414TP3      O28060   1.513   2.653   8.572 -0.2581  0.3162 -0.0811
 5414TP3     H128061   1.471   2.569   8.554  1.1090 -0.0693 -1.7699
 5414TP3     H228062   1.447   2.704   8.619 -0.8580 -1.9648  1.7154
 5415TP3      O28063   5.169   4.466   7.572 -0.3425  0.0000  0.4068
 5415TP3     H128064   5.250   4.453   7.524  0.3910 -0.0643  1.6199
 5415TP3     H228065   5.133   4.548   7.539 -0.5950 -0.7376 -1.2257
 5416TP3      O28066   2.890   3.749   2.128  0.2306  0.5444  0.1397
 5416TP3     H128067   2.900   3.769   2.035  1.0867  0.9181  0.3027
 5416TP3     H228068   2.797   3.733   2.139  0.2247 -0.3095 -0.9407
 5417TP3      O28069   1.224   5.067   1.429  0.1617 -0.2337 -0.7851
 5417TP3     H128070   1.139   5.047   1.389 -1.1820 -0.5248  1.9776
 5417TP3     H228071   1.236   5.161   1.415 -0.3072 -0.2986 -1.7098
 5418TP3      O28072   0.599   1.474   1.047 -0.1367 -0.1475  0.2986
 5418TP3     H128073   0.674   1.462   1.105  1.0902 -0.4948 -1.3037
 5418TP3     H228074   0.526   1.494   1.107  0.8395 -1.4333  2.0301
 5419TP3      O28075   3.534   0.723   9.858  0.1118  0.3551 -0.4176
 5419TP3     H128076   3.459   0.664   9.843 -1.7097  2.4973 -0.2775
 5419TP3     H228077   3.581   0.723   9.775 -0.4802 -0.4352 -0.7720
 5420TP3      O28078   3.751   2.979  10.011 -0.2017 -0.1954 -0.2246
 5420TP3     H128079   3.709   3.003   9.929 -1.5396  1.9587  0.9839
 5420TP3     H228080   3.771   3.063  10.052 -2.3443 -1.0835  2.9994
 5421TP3      O28081   1.663   4.862   8.713  0.0403  0.6016 -0.0003
 5421TP3     H128082   1.652   4.862   8.808  0.2049  0.2697  0.0202
 5421TP3     H228083   1.758   4.864   8.700  0.0141  0.8241 -0.1580
 5422TP3      O28084   2.603   0.424   8.494 -1.0061  0.6851 -0.1460
 5422TP3     H128085   2.519   0.467   8.513 -0.2708  3.2410 -2.1350
 5422TP3     H228086   2.654   0.435   8.574 -1.8504  0.9149  0.3762
 5423TP3      O28087   4.480   0.452   0.413  0.4896  0.1969  0.2588
 5423TP3     H128088   4.544   0.511   0.454 -0.1644  0.7664  0.4826
 5423TP3     H228089   4.495   0.463   0.319 -0.5524  1.8190  0.2410
 5424TP3      O28090   4.334   3.236   0.237 -0.2890 -0.1177  0.3030
 5424TP3     H128091   4.257   3.181   0.225 -0.5343 -0.3440  2.5085
 5424TP3     H228092   4.390   3.215   0.162 -1.5853 -1.2829 -0.3882
 5425TP3      O28093   2.137   3.861   7.826  0.3856 -0.5308 -0.1304
 5425TP3     H128094   2.073   3.865   7.898 -1.0143 -1.9886 -1.2263
 5425TP3     H228095   2.084   3.867   7.747  2.0055  2.5852 -1.1397
 5426TP3      O28096   0.031   1.329   0.526 -0.0895 -0.1528  0.1794
 5426TP3     H128097   0.084   1.402   0.494 -0.8504 -0.0486 -0.8641
 5426TP3     H228098   0.071   1.251   0.486 -3.2038  0.2150 -4.3274
 5427TP3      O28099   0.385   3.141   1.159  0.4386 -0.7424 -0.0304
 5427TP3     H128100   0.303   3.184   1.132 -0.4360 -2.0211  0.4838
 5427TP3     H228101   0.454   3.200   1.129 -0.6732  0.4358 -0.3696
 5428TP3      O28102   3.785   3.774   2.640  0.0591  0.1259  0.2972
 5428TP3     H128103   3.806   3.805   2.552  1.8525  0.0971  0.6706
 5428TP3     H228104   3.749   3.687   2.628 -0.5858  0.4898 -0.4553
 5429TP3      O28105   0.882   1.107   2.877  0.0127 -0.2750 -0.1122
 5429TP3     H128106   0.953   1.113   2.813 -0.4368  2.0145 -0.4936
 5429TP3     H228107   0.821   1.044   2.840  0.3943  0.0372 -1.3208
 5430TP3      O28108   3.930   2.315   2.783 -0.0714  0.0864 -0.2346
 5430TP3     H128109   3.937   2.278   2.871 -0.7881 -0.1019 -0.2545
 5430TP3     H228110   3.907   2.241   2.727  1.2881  0.0155 -0.7491
 5431TP3      O28111   0.114   0.491   9.660  0.1098 -0.0920 -0.0937
 5431TP3     H128112   0.054   0.548   9.709 -0.9520 -1.2252 -0.0425
 5431TP3     H228113   0.059   0.421   9.626  1.3407 -0.9399 -0.4098
 5432TP3      O28114   2.004   0.414   0.206 -0.0352  0.6096  0.1906
 5432TP3     H128115   2.057   0.493   0.191 -1.1943  1.5402  0.8708
 5432TP3     H228116   1.957   0.402   0.124  0.5031  0.3269 -0.0848
 5433TP3      O28117   0.406   3.268   8.980  0.1770 -0.2334  0.1064
 5433TP3     H128118   0.480   3.325   8.959  0.6802  0.3784  3.0873
 5433TP3     H228119   0.342   3.327   9.020 -0.7213 -1.2165  0.1568
 5434TP3      O28120   2.688   3.703   1.124 -0.0476  0.4112 -0.0708
 5434TP3     H128121   2.689   3.674   1.033 -1.9382 -0.1055  0.0466
 5434TP3     H228122   2.771   3.671   1.160 -0.0746 -0.9402 -1.1479
 5435TP3      O28123   3.767   0.370   6.782 -0.0848 -0.1078 -0.3755
 5435TP3     H128124   3.850   0.410   6.758 -0.4599  0.8418 -0.1061
 5435TP3     H228125   3.790   0.309   6.853  0.0655  1.8615  1.3535
 5436TP3      O28126   3.736   2.270   1.580 -0.2019 -0.1364  0.2059
 5436TP3     H128127   3.668   2.220   1.536 -0.9329  0.3395  0.7709
 5436TP3     H228128   3.701   2.359   1.587  0.6972  0.2436  0.0354
 5437TP3      O28129   0.352   3.264   2.063  0.2361 -0.2409  0.0539
 5437TP3     H128130   0.422   3.210   2.027 -0.1242 -1.3384  0.9785
 5437TP3     H228131   0.338   3.332   1.996  1.5132 -0.5686 -0.5694
 5438TP3      O28132   1.969   1.486   0.909 -0.1133  0.1469  0.3751
 5438TP3     H128133   2.043   1.484   0.969  0.1053  1.8883  0.2247
 5438TP3     H228134   1.896   1.517   0.962 -0.2205  0.4764  0.0359
 5439TP3      O28135   0.016   2.521   2.064  0.5602  0.6065  0.4070
 5439TP3     H128136  -0.052   2.470   2.019  1.3795 -0.8468  0.7578
 5439TP3     H228137   0.002   2.502   2.157  1.3560  0.4032  0.4917
 5440TP3      O28138   1.132   4.216  10.025 -0.2990 -0.4514  0.2918
 5440TP3     H128139   1.117   4.170   9.942  2.5190  1.3772 -1.3972
 5440TP3     H228140   1.200   4.164  10.069 -1.1661 -0.9311  1.1104
 5441TP3      O28141   3.932   1.975   9.886 -0.4461 -0.0099 -0.1724
 5441TP3     H128142   3.954   1.931   9.804 -2.0682 -1.5501  0.1340
 5441TP3     H228143   3.943   1.908   9.953 -2.0075  0.2964  0.4535
 5442TP3      O28144   0.824   0.534   0.135  0.0992  0.2050  0.5291
 5442TP3     H128145   0.786   0.488   0.060  0.3122  1.0806 -0.1304
 5442TP3     H228146   0.916   0.508   0.134  0.1647  0.4399  0.3083
 5443TP3      O28147   0.534   0.905   7.867 -0.1345 -0.3135  0.6183
 5443TP3     H128148   0.593   0.886   7.794  1.0398  1.7459  0.9649
 5443TP3     H228149   0.447   0.902   7.828  0.4699  0.7464 -0.8925
 5444TP3      O28150   5.176   4.960   0.794  0.1787 -0.5277  0.0758
 5444TP3     H128151   5.192   4.867   0.780  1.3237 -0.2416 -0.6429
 5444TP3     H228152   5.196   4.974   0.887 -4.1946 -1.7769  1.4438
 5445TP3      O28153   3.867   4.796   2.240 -0.6399 -0.2005  0.2277
 5445TP3     H128154   3.787   4.840   2.268 -0.2707  0.5925  0.0510
 5445TP3     H228155   3.925   4.802   2.316  0.1462  1.4297 -0.4566
 5446TP3      O28156   4.838   0.893   8.312  0.0428 -0.2655  0.2302
 5446TP3     H128157   4.845   0.928   8.223 -0.4704 -1.0632 -0.1343
 5446TP3     H228158   4.769   0.945   8.353  1.4978  1.3209  0.7773
 5447TP3      O28159   4.095   2.637   2.541  0.3484 -0.5288  0.0472
 5447TP3     H128160   4.055   2.622   2.626  0.9919 -0.3922  0.3769
 5447TP3     H228161   4.140   2.554   2.521  2.3987  0.2675  1.0526
 5448TP3      O28162   3.444   2.223   0.519 -0.4169  0.8862 -0.2078
 5448TP3     H128163   3.416   2.181   0.601  1.4542 -0.2167 -0.0694
 5448TP3     H228164   3.388   2.185   0.452 -2.1640  2.0044  0.5409
 5449TP3      O28165   1.410   4.893   2.437 -0.2573 -0.0914 -0.1084
 5449TP3     H128166   1.451   4.976   2.413  1.1259 -1.0480 -1.1872
 5449TP3     H228167   1.319   4.917   2.457  0.3388  1.8255  0.6379
 5450TP3      O28168   4.192   3.132   1.476  0.4165 -0.1843 -0.2573
 5450TP3     H128169   4.271   3.100   1.434  1.0323 -0.7224  1.2299
 5450TP3     H228170   4.151   3.054   1.513  0.7392  0.4163  1.4640
 5451TP3      O28171   4.009   2.078   2.615  0.3305  0.7525  0.3935
 5451TP3     H128172   4.076   2.031   2.663 -0.4127  1.1714  1.9054
 5451TP3     H228173   3.956   2.009   2.574 -0.5669  0.2340  2.3299
 5452TP3      O28174   4.166   3.865   2.945 -0.3662  0.3181  0.1188
 5452TP3     H128175   4.207   3.851   3.030 -0.6817 -0.7296  0.1146
 5452TP3     H228176   4.125   3.781   2.924 -0.7012  0.7059 -0.8467
 5453TP3      O28177   4.361   0.747   1.642 -0.7694 -0.1585  0.0845
 5453TP3     H128178   4.447   0.736   1.602 -0.5929 -3.2810  1.0447
 5453TP3     H228179   4.323   0.824   1.598  0.6802 -1.3655 -3.6262
 5454TP3      O28180   1.911   4.892   0.024 -0.1935  0.2845 -0.4577
 5454TP3     H128181   1.868   4.971  -0.010 -1.7767  0.7411  2.3011
 5454TP3     H228182   1.933   4.914   0.115  2.9395 -1.1570 -0.7388
 5455TP3      O28183   4.675   3.745   8.131 -0.5201 -0.8197  0.0318
 5455TP3     H128184   4.631   3.667   8.164  0.6949 -1.5794 -0.1099
 5455TP3     H228185   4.760   3.715   8.102  1.0852  0.9892  2.4527
 5456TP3      O28186   0.624   2.154   1.297 -0.0706  0.1126  0.0913
 5456TP3     H128187   0.653   2.090   1.232  1.9059  0.5786  0.4239
 5456TP3     H228188   0.583   2.101   1.366 -1.7117 -0.4278 -1.2370
 5457TP3      O28189   4.505   3.937   2.237  0.3511 -0.0412  0.2880
 5457TP3     H128190   4.466   4.009   2.286  0.6377  0.0109  0.4398
 5457TP3     H228191   4.595   3.931   2.270 -0.0357 -1.2963  1.1867
 5458TP3      O28192   0.223   0.867   1.149  0.0659 -0.1407 -0.1944
 5458TP3     H128193   0.141   0.912   1.130  0.5226  1.0660  0.5636
 5458TP3     H228194   0.215   0.782   1.106 -1.6402 -0.1051  0.0082
 5459TP3      O28195   4.155   2.479   0.649 -0.3231  0.0713  0.2555
 5459TP3     H128196   4.139   2.468   0.743 -1.2236  0.9633  0.2145
 5459TP3     H228197   4.111   2.561   0.626 -0.7198 -0.4913 -1.0927
 5460TP3      O28198   5.062   2.214   2.447 -0.3627 -0.1353  0.2555
 5460TP3     H128199   4.984   2.166   2.476 -1.2298  0.9204 -0.2879
 5460TP3     H228200   5.029   2.300   2.421  0.8946  0.0983 -0.6157
 5461TP3      O28201   0.432   0.065   3.184 -0.2732 -0.1298 -0.4061
 5461TP3     H128202   0.372   0.030   3.250 -0.4002  0.6918 -0.0747
 5461TP3     H228203   0.384   0.138   3.144  0.1252 -0.0914 -0.8265
 5462TP3      O28204   5.045   0.758   8.407 -0.1746  0.3941  0.5123
 5462TP3     H128205   5.118   0.810   8.374  0.1553 -0.1703  0.3554
 5462TP3     H228206   4.970   0.788   8.356  0.1984  0.0263 -0.2626
 5463TP3      O28207   2.050   2.051   8.642 -0.1279 -0.3313  0.1310
 5463TP3     H128208   2.141   2.026   8.627  0.2292 -0.1880  1.8264
 5463TP3     H228209   2.046   2.072   8.736 -1.8411 -0.0630  0.0341
 5464TP3      O28210   1.452   2.147   6.729 -0.0135 -0.0622  0.1787
 5464TP3     H128211   1.484   2.231   6.695  0.8541 -0.7365 -0.7282
 5464TP3     H228212   1.384   2.121   6.667  0.6592 -0.6641 -0.3216
 5465TP3      O28213   1.976   4.352   9.999 -0.5319 -0.1964  0.2824
 5465TP3     H128214   2.024   4.335  10.080  0.0175  0.1008  0.0267
 5465TP3     H228215   1.899   4.402  10.026 -0.1453  0.2446  0.5725
 5466TP3      O28216   3.769   5.149   7.879  0.1294 -0.2395  0.2051
 5466TP3     H128217   3.719   5.068   7.870 -1.7390  0.8285  0.4159
 5466TP3     H228218   3.857   5.120   7.905 -0.1801 -2.2200 -0.7815
 5467TP3      O28219   0.979   4.677   9.050  0.0285 -0.0360  0.2971
 5467TP3     H128220   0.917   4.608   9.027 -0.9978  1.5152 -2.0803
 5467TP3     H228221   1.028   4.693   8.969  3.8164 -1.3279  2.1243
 5468TP3      O28222   1.547   2.389   9.913 -0.6177  0.1829 -0.0217
 5468TP3     H128223   1.456   2.411   9.930 -0.4601 -0.1663  1.4022
 5468TP3     H228224   1.582   2.466   9.868 -1.4755  0.5235 -0.1272
 5469TP3      O28225   1.953   3.629   2.305 -0.0216 -0.2729 -0.4598
 5469TP3     H128226   1.998   3.654   2.224  0.4886 -2.0098 -0.7730
 5469TP3     H228227   1.991   3.544   2.327  0.1749  0.3623  1.8808
 5470TP3      O28228   2.829   1.260   8.005  0.4441 -0.3811  0.1154
 5470TP3     H128229   2.900   1.198   7.986  1.2000  0.6213 -0.4427
 5470TP3     H228230   2.757   1.205   8.038  1.3322 -1.4617  0.3065
 5471TP3      O28231   2.504   2.618   7.118 -0.7980  0.5795 -0.1094
 5471TP3     H128232   2.536   2.653   7.201 -0.0472  1.0302 -0.5779
 5471TP3     H228233   2.505   2.523   7.130  0.5231  0.5836 -0.0193
 5472TP3      O28234   2.002   4.509   1.641 -0.2371  0.3158  0.5032
 5472TP3     H128235   1.912   4.529   1.664  0.1924  0.6432  1.9946
 5472TP3     H228236   2.046   4.494   1.724  1.3566  1.3529 -0.0955
 5473TP3      O28237   1.178   5.228   7.530 -0.3929  0.1252  0.1334
 5473TP3     H128238   1.262   5.205   7.491 -0.4913 -0.0413  0.0219
 5473TP3     H228239   1.129   5.147   7.533 -0.0996 -0.0369  1.3387
 5474TP3      O28240   2.576   1.228   6.807  0.1130 -1.0116 -0.0603
 5474TP3     H128241   2.665   1.222   6.773  0.0936 -1.7298 -0.0013
 5474TP3     H228242   2.586   1.257   6.897  0.2186 -0.0225 -0.3781
 5475TP3      O28243   0.035   2.231   1.226  0.3774 -0.1351  0.1616
 5475TP3     H128244   0.033   2.323   1.202 -0.4354  0.0081  0.7303
 5475TP3     H228245   0.058   2.185   1.144  1.4793  0.6042  0.0406
 5476TP3      O28246   1.293   2.546   9.968 -0.3400 -0.2701  0.0823
 5476TP3     H128247   1.281   2.609   9.897  2.4350  1.4651  0.9768
 5476TP3     H228248   1.306   2.601  10.046  0.8259 -1.9677  1.1579
 5477TP3      O28249   2.443   1.477   9.190  0.3764 -0.4484  0.3937
 5477TP3     H128250   2.410   1.477   9.100 -1.3810  2.2553  0.9376
 5477TP3     H228251   2.368   1.453   9.243  1.1916 -1.2191  1.2453
 5478TP3      O28252   3.586   4.871   8.517  0.1375  0.0727 -0.1951
 5478TP3     H128253   3.517   4.867   8.583  0.5276  1.0062  0.2929
 5478TP3     H228254   3.552   4.933   8.452  0.3515  0.2428 -0.1450
 5479TP3      O28255   0.529   0.135   1.364 -0.2436  0.0740  0.1320
 5479TP3     H128256   0.503   0.213   1.413 -1.2987  0.2665 -0.6811
 5479TP3     H228257   0.484   0.144   1.280  0.3741 -0.9530 -0.3290
 5480TP3      O28258   3.511   3.379   0.538 -0.1586 -0.0942 -0.0680
 5480TP3     H128259   3.555   3.447   0.487 -0.1632 -0.2847 -0.3309
 5480TP3     H228260   3.420   3.382   0.507 -0.3293  0.2746  0.4466
 5481TP3      O28261   1.511   0.904   1.990 -0.4986 -0.5805 -0.0565
 5481TP3     H128262   1.539   0.990   1.959  1.7477 -1.6200 -1.1390
 5481TP3     H228263   1.419   0.898   1.963 -0.1244  0.6939 -1.8102
 5482TP3      O28264   3.843   4.633   9.344 -0.1023 -0.5341 -0.6914
 5482TP3     H128265   3.872   4.643   9.253  1.1930  1.8920 -0.0832
 5482TP3     H228266   3.752   4.664   9.343  0.0327 -0.1466 -1.0717
 5483TP3      O28267   4.288   2.934   0.942 -0.1676  0.1603  0.2332
 5483TP3     H128268   4.376   2.971   0.935 -0.7528  1.9915  1.5582
 5483TP3     H228269   4.300   2.840   0.930  2.1639  0.1953  1.6305
 5484TP3      O28270   0.825   1.042   0.646 -0.1735  0.2906 -0.2272
 5484TP3     H128271   0.736   1.015   0.669 -0.7194  0.7857 -1.6638
 5484TP3     H228272   0.833   1.023   0.553  0.3374  2.6191 -0.7201
 5485TP3      O28273   2.111   2.739   2.254 -0.2402 -0.7931  0.4790
 5485TP3     H128274   2.196   2.782   2.265 -0.6271  1.2606 -3.1548
 5485TP3     H228275   2.047   2.805   2.281 -0.7691 -1.5202  1.0427
 5486TP3      O28276   4.547   2.615   7.525  0.3956 -1.0417  0.2718
 5486TP3     H128277   4.560   2.620   7.431 -1.9298 -1.1348 -0.1198
 5486TP3     H228278   4.467   2.563   7.536  0.1123 -0.2985  2.2291
 5487TP3      O28279   4.371   0.529   2.227 -0.3430 -0.3915  0.5600
 5487TP3     H128280   4.298   0.476   2.196  0.5094 -1.1492 -0.2350
 5487TP3     H228281   4.440   0.465   2.247  1.2813  0.4194 -1.9086
 5488TP3      O28282   3.652   3.039   1.720 -0.0526  0.0827  0.8150
 5488TP3     H128283   3.572   3.091   1.708 -0.2473 -0.5932 -1.1018
 5488TP3     H228284   3.658   3.027   1.815 -1.7974  0.8138  1.0614
 5489TP3      O28285   5.037   4.644   3.020 -0.0252 -0.2751  0.6417
 5489TP3     H128286   4.944   4.655   3.037  0.0915 -0.7065  1.6185
 5489TP3     H228287   5.078   4.652   3.106  0.7949 -0.5452  0.2833
 5490TP3      O28288   1.007   2.830   1.831  0.3720  0.0625  0.4537
 5490TP3     H128289   0.941   2.856   1.766  0.2790 -1.0526  0.0662
 5490TP3     H228290   1.037   2.912   1.870  0.9572  0.8615 -1.5188
 5491TP3      O28291   2.854   4.886   8.932 -0.0623  0.0491  0.2958
 5491TP3     H128292   2.759   4.891   8.927 -0.3274 -3.5078 -0.7443
 5491TP3     H228293   2.884   4.975   8.914 -3.1495  1.0481 -0.3405
 5492TP3      O28294   0.654   3.509   0.803 -0.2749 -0.6288  0.3310
 5492TP3     H128295   0.563   3.528   0.781 -0.1743  0.7702  1.0522
 5492TP3     H228296   0.662   3.534   0.895  1.2582  0.8296 -0.1697
 5493TP3      O28297   3.504   4.381   1.726 -0.3460  0.3302  0.5645
 5493TP3     H128298   3.429   4.382   1.667  0.9612 -0.4210 -1.1765
 5493TP3     H228299   3.480   4.443   1.795 -2.3532  0.4711 -0.1829
 5494TP3      O28300   1.689   2.600   3.217 -0.2837  0.6059  0.4187
 5494TP3     H128301   1.597   2.602   3.243 -0.2242  0.8279  0.6151
 5494TP3     H228302   1.700   2.515   3.173 -0.1577 -0.2019  1.9502
 5495TP3      O28303   0.274   2.333   2.893 -0.3480  0.2437  0.2115
 5495TP3     H128304   0.369   2.338   2.879 -0.1695  0.2998  1.3355
 5495TP3     H228305   0.263   2.357   2.985 -1.5404  1.0876 -0.1385
 5496TP3      O28306   0.015   4.309   0.254 -0.8927  0.6062  0.4434
 5496TP3     H128307  -0.048   4.254   0.207  0.4741 -0.7676  0.1289
 5496TP3     H228308   0.040   4.376   0.190  0.9852 -1.2755 -0.9380
 5497TP3      O28309   1.954   2.720   0.617 -0.2414  0.3009  0.0206
 5497TP3     H128310   1.922   2.806   0.644  0.8732  0.5336  0.6429
 5497TP3     H228311   2.012   2.738   0.543  1.4474  0.3129  1.2911
 5498TP3      O28312   0.450   2.269   9.589 -0.0285 -0.3894 -0.6393
 5498TP3     H128313   0.403   2.343   9.550 -0.0683  0.8071  1.5322
 5498TP3     H228314   0.532   2.265   9.539 -0.3842  0.5831 -1.3395
 5499TP3      O28315   0.116   3.875   1.732 -0.0177  0.4301 -0.3782
 5499TP3     H128316   0.144   3.957   1.772 -0.4146 -0.5083  1.9861
 5499TP3     H228317   0.126   3.890   1.638 -0.6085  3.3737 -0.0895
 5500TP3      O28318   5.227   1.681   2.739 -0.4380 -0.4716 -0.2257
 5500TP3     H128319   5.310   1.641   2.711  0.5611  0.2900  1.4857
 5500TP3     H228320   5.192   1.722   2.660  0.8669 -0.7162 -0.9577
 5501TP3      O28321   4.724   4.504   3.725 -0.4670 -0.0788  0.4452
 5501TP3     H128322   4.683   4.486   3.810  0.6554  1.6297  1.4164
 5501TP3     H228323   4.761   4.592   3.735  1.3783 -0.6112 -1.1427
 5502TP3      O28324   0.032   1.178   2.477  0.2245  0.2127  0.0065
 5502TP3     H128325   0.127   1.175   2.491  0.3426 -0.3039 -0.8184
 5502TP3     H228326   0.018   1.258   2.427  0.0686  0.8986  1.1052
 5503TP3      O28327   3.503   1.860   8.122 -0.3223  0.5748 -0.1741
 5503TP3     H128328   3.442   1.803   8.167 -0.8957  1.0935 -0.2752
 5503TP3     H228329   3.538   1.806   8.051 -0.4718  0.1906  0.0432
 5504TP3      O28330   4.761   2.932   1.889  0.8319 -0.3731  0.1287
 5504TP3     H128331   4.791   3.018   1.859 -0.2912 -0.5696 -1.6729
 5504TP3     H228332   4.765   2.937   1.985 -0.0110  1.9945  0.0944
 5505TP3      O28333   1.628   5.109   9.255 -0.3031  0.2268  0.2797
 5505TP3     H128334   1.691   5.149   9.314 -0.8877  2.2422 -0.3624
 5505TP3     H228335   1.632   5.163   9.176 -1.1823 -0.9889 -0.6302
 5506TP3      O28336   4.979   3.542   8.394  0.7119  0.3843 -0.1581
 5506TP3     H128337   4.981   3.491   8.475 -0.4825  1.6511  0.7144
 5506TP3     H228338   5.071   3.561   8.376  1.2051 -2.0302 -0.5245
 5507TP3      O28339   0.517   3.382   1.101  0.3460  0.1735  0.4198
 5507TP3     H128340   0.480   3.391   1.189  2.1969  0.8829  1.1827
 5507TP3     H228341   0.569   3.461   1.089  2.0009 -0.9766 -0.3540
 5508TP3      O28342   0.497   1.007   9.336 -0.5719  0.4860 -0.0481
 5508TP3     H128343   0.457   0.960   9.263 -0.2644  0.7292 -0.3728
 5508TP3     H228344   0.533   0.937   9.392 -0.2263  0.3234 -0.4637
 5509TP3      O28345   0.052   2.010   0.632 -0.0073  0.1963  0.5313
 5509TP3     H128346   0.059   2.100   0.599  1.6628 -0.9470 -2.6684
 5509TP3     H228347  -0.010   1.968   0.572 -1.1829 -0.7091  2.3161
 5510TP3      O28348   4.608   3.968   0.013 -0.0204  0.3282  0.7216
 5510TP3     H128349   4.574   4.044  -0.034 -2.7620  0.6370  2.9490
 5510TP3     H228350   4.655   4.005   0.087  1.6771 -0.2023 -0.0218
 5511TP3      O28351   0.822   3.188   8.725  0.2299 -0.4379  0.3287
 5511TP3     H128352   0.856   3.149   8.645 -2.0407  0.2629 -1.0761
 5511TP3     H228353   0.848   3.280   8.721  0.0373 -0.3813  0.3482
 5512TP3      O28354   2.698   4.703   0.352 -0.2723  0.2825 -0.4604
 5512TP3     H128355   2.698   4.681   0.445  0.8678  0.2019 -0.4633
 5512TP3     H228356   2.609   4.684   0.322 -1.0951  1.7239  0.9336
 5513TP3      O28357   3.073   5.040   1.987 -0.1040  0.2350  0.3793
 5513TP3     H128358   3.081   5.072   1.897  1.4131 -0.6606  0.1564
 5513TP3     H228359   3.116   4.954   1.985 -2.6152 -1.1342  1.3080
 5514TP3      O28360   0.607   0.052   9.623  0.0448 -0.1606  0.7069
 5514TP3     H128361   0.519   0.089   9.625  0.2421  0.3487  0.3731
 5514TP3     H228362   0.602  -0.025   9.679 -0.4869  0.1369  1.0805
 5515TP3      O28363   3.551   3.361   2.125 -0.1032 -0.0534 -0.1870
 5515TP3     H128364   3.542   3.395   2.036 -2.2695  0.3159  0.1064
 5515TP3     H228365   3.547   3.439   2.181  2.1705 -0.1895  0.2429
 5516TP3      O28366   0.490   1.038   2.876  0.8203  0.2228  0.3104
 5516TP3     H128367   0.557   0.976   2.905 -0.0868 -0.6441  0.5844
 5516TP3     H228368   0.414   0.984   2.856  0.2029  1.1946 -0.0362
 5517TP3      O28369   4.484   3.702   0.896  0.4451  0.1011 -0.1311
 5517TP3     H128370   4.462   3.756   0.820  1.9457  0.8027 -0.1033
 5517TP3     H228371   4.571   3.733   0.923  0.4867 -1.0041  1.0923
 5518TP3      O28372   2.546   3.546   9.210 -0.0779 -0.2610 -0.0682
 5518TP3     H128373   2.618   3.552   9.273  0.5950  0.1479 -0.8580
 5518TP3     H228374   2.581   3.491   9.139 -0.2526  0.5588 -0.8181
 5519TP3      O28375   2.786   0.591   9.497 -0.5802 -0.5678  0.4306
 5519TP3     H128376   2.756   0.670   9.452 -1.2434 -1.9690 -1.7340
 5519TP3     H228377   2.723   0.579   9.569 -1.4769 -0.0455 -0.2512
 5520TP3      O28378   5.158   1.654   1.869 -0.2985  0.5306  0.4170
 5520TP3     H128379   5.161   1.559   1.858 -0.6672  0.6055 -0.5061
 5520TP3     H228380   5.247   1.683   1.852 -0.2282  0.3660  0.5002
 5521TP3      O28381   3.701   3.191   9.269  0.2218  0.3496  0.1170
 5521TP3     H128382   3.783   3.238   9.282  1.5933 -1.4562 -1.5362
 5521TP3     H228383   3.716   3.106   9.309 -1.4627  0.5184  1.1967
 5522TP3      O28384   2.785   4.404   7.955 -0.1050 -0.8474  0.5171
 5522TP3     H128385   2.756   4.472   7.894 -2.6428 -0.8567  1.5929
 5522TP3     H228386   2.876   4.386   7.929 -0.4204  0.5829 -1.8965
 5523TP3      O28387   1.083   1.106   3.465 -0.3084 -0.3801 -0.1226
 5523TP3     H128388   1.014   1.171   3.452 -3.0451 -2.5431  2.1728
 5523TP3     H228389   1.140   1.144   3.532 -1.3849  0.0308  0.5861
 5524TP3      O28390   3.395   3.428  10.039 -0.1256 -0.4844 -0.1956
 5524TP3     H128391   3.477   3.398  10.000 -0.3314 -1.7713  0.2991
 5524TP3     H228392   3.388   3.378  10.120 -1.3979 -0.3937 -0.2322
 5525TP3      O28393   2.762   0.978   3.177  0.0057 -0.3651  0.4937
 5525TP3     H128394   2.717   1.049   3.222  0.9465 -0.2339  1.2468
 5525TP3     H228395   2.755   0.903   3.236  0.8425 -0.3143  0.6801
 5526TP3      O28396   0.326   2.499   1.645 -0.4491 -0.0891 -0.0278
 5526TP3     H128397   0.295   2.440   1.714  0.5808  0.1687  0.6749
 5526TP3     H228398   0.360   2.440   1.577 -2.0185 -0.3632 -0.6292
 5527TP3      O28399   1.892   1.645   6.861 -0.2499 -0.4621 -0.6052
 5527TP3     H128400   1.849   1.722   6.896 -1.2854 -1.4886  0.4612
 5527TP3     H228401   1.839   1.620   6.785  0.0950 -0.1255 -0.9605
 5528TP3      O28402   2.018   1.757   0.199 -0.7908 -0.0368 -0.5963
 5528TP3     H128403   1.992   1.774   0.108  0.1228  2.7454 -0.4316
 5528TP3     H228404   2.093   1.698   0.191 -0.2120  0.8002 -1.7386
 5529TP3      O28405   0.285   0.698   7.850  0.0272  0.1124 -0.4872
 5529TP3     H128406   0.252   0.778   7.809  2.2448  1.8200  0.8291
 5529TP3     H228407   0.321   0.647   7.777 -0.8018  0.6060 -1.2606
 5530TP3      O28408   2.483   5.285   1.751  0.0928  0.1936 -0.1099
 5530TP3     H128409   2.390   5.306   1.751 -0.0532 -0.1780  2.4052
 5530TP3     H228410   2.515   5.321   1.668 -2.4644 -0.7412 -1.6206
 5531TP3      O28411   1.353   0.931   3.353 -0.3724  0.0276 -0.3805
 5531TP3     H128412   1.290   0.861   3.372  0.5934 -0.6107  0.6277
 5531TP3     H228413   1.412   0.930   3.428  1.2812  0.1254 -1.6395
 5532TP3      O28414   2.677   5.109   0.699  0.3211  0.3525 -0.3067
 5532TP3     H128415   2.694   5.032   0.645  1.3464 -0.8489  1.6137
 5532TP3     H228416   2.603   5.084   0.754  0.0528  1.1062 -0.3059
 5533TP3      O28417   2.972   0.301   1.320  0.1268 -0.5695 -0.7751
 5533TP3     H128418   2.922   0.383   1.327  0.8602 -0.2521  1.8703
 5533TP3     H228419   2.910   0.233   1.343  0.1253 -0.4943 -0.5539
 5534TP3      O28420   3.447   3.109   2.107  0.1180 -0.2493  0.1518
 5534TP3     H128421   3.456   3.204   2.113  0.7829 -0.2168 -1.0481
 5534TP3     H228422   3.467   3.078   2.195 -0.7180  0.7497  0.7202
 5535TP3      O28423   1.189   2.283   8.397 -0.1631 -0.0044 -0.5022
 5535TP3     H128424   1.221   2.365   8.360  0.5397  0.6576  1.4404
 5535TP3     H228425   1.262   2.221   8.385  0.4655  0.4883  0.6195
 5536TP3      O28426   0.678   3.662   2.247 -0.0686  0.1467 -0.1371
 5536TP3     H128427   0.615   3.662   2.174 -0.2497 -2.6295 -0.1045
 5536TP3     H228428   0.623   3.660   2.325  0.1286  2.8390  0.1396
 5537TP3      O28429   3.221   0.381   0.925  0.6714 -0.1477  0.4703
 5537TP3     H128430   3.160   0.374   0.851  0.4680  1.6072  0.4209
 5537TP3     H228431   3.267   0.297   0.926 -1.2911 -1.2854  0.1211
 5538TP3      O28432   1.329   2.132   7.944  0.6099 -0.3201 -0.0904
 5538TP3     H128433   1.328   2.042   7.977 -0.1626 -0.3146 -0.0969
 5538TP3     H228434   1.399   2.175   7.995 -1.9320  0.2766  3.2094
 5539TP3      O28435   5.230   0.294   0.745  0.9843 -0.7187 -0.6075
 5539TP3     H128436   5.272   0.335   0.669  0.0210 -0.6106 -1.1033
 5539TP3     H228437   5.150   0.256   0.710 -0.3636  0.8188  0.6453
 5540TP3      O28438   0.968   0.028   0.222  0.1961 -0.3290 -0.1967
 5540TP3     H128439   1.058   0.022   0.189  0.4623  0.9488  0.2312
 5540TP3     H228440   0.926  -0.053   0.194  1.8823 -1.6190  0.8197
 5541TP3      O28441   4.845   0.579   7.970  0.0295 -0.1959  0.0557
 5541TP3     H128442   4.889   0.528   8.039 -0.3772  0.1172  0.5547
 5541TP3     H228443   4.912   0.590   7.903 -0.0504 -1.8830 -0.3360
 5542TP3      O28444   2.442   2.711   0.372  0.4247  0.2282 -0.5789
 5542TP3     H128445   2.396   2.786   0.334  0.2711  0.7852  0.6732
 5542TP3     H228446   2.477   2.743   0.455  2.1858 -0.4939 -0.9944
 5543TP3      O28447   4.093   4.319   9.935  0.1399 -0.0362  0.3697
 5543TP3     H128448   4.083   4.358   9.848 -0.0982 -2.2512 -0.6725
 5543TP3     H228449   4.017   4.349   9.984 -0.2082  0.5249 -0.4866
 5544TP3      O28450   3.934   2.220   3.520 -0.1861  0.7604  0.0113
 5544TP3     H128451   3.894   2.300   3.554  0.9968  0.8501  1.2827
 5544TP3     H228452   3.959   2.242   3.430 -1.5378  1.1869 -0.2881
 5545TP3      O28453   0.964   4.687   2.866  0.3968  0.6174  0.2103
 5545TP3     H128454   0.987   4.594   2.867  0.7695  0.7124  0.5996
 5545TP3     H228455   1.024   4.727   2.803 -0.1332  0.5081 -0.3816
 5546TP3      O28456   0.166   2.701   1.010 -0.3080  0.1550 -0.3112
 5546TP3     H128457   0.222   2.688   0.934 -0.1369 -0.3885 -0.1019
 5546TP3     H228458   0.200   2.779   1.052 -0.5206  0.5648 -0.8906
 5547TP3      O28459   4.532   4.581   2.241 -0.8960 -0.5027 -0.3371
 5547TP3     H128460   4.506   4.549   2.328 -2.3337 -1.2420 -1.0043
 5547TP3     H228461   4.600   4.520   2.213  1.2315  1.0314  1.1317
 5548TP3      O28462   1.312   2.383   6.990 -0.7238 -0.4272  0.7294
 5548TP3     H128463   1.242   2.447   6.997 -0.8095 -0.5805  1.3561
 5548TP3     H228464   1.392   2.433   7.005 -0.7725 -0.4238  0.9786
 5549TP3      O28465   2.648   4.220   1.089 -0.1500  0.0067  0.0000
 5549TP3     H128466   2.699   4.267   1.155  0.4081  0.9165 -1.0418
 5549TP3     H228467   2.668   4.128   1.104 -0.1227  0.1841  1.1600
 5550TP3      O28468   3.734   2.064   2.096 -0.0547 -0.4187 -0.3838
 5550TP3     H128469   3.688   2.012   2.031 -0.2952 -2.5242  1.3569
 5550TP3     H228470   3.684   2.145   2.102 -0.4726 -0.5010 -2.2142
 5551TP3      O28471   1.331   1.449   9.928  0.1046 -0.2511 -1.2909
 5551TP3     H128472   1.337   1.412  10.017  2.4486  1.1497 -0.7647
 5551TP3     H228473   1.277   1.387   9.880 -1.8356 -0.7115  1.2771
 5552TP3      O28474   4.066   2.145   1.137 -0.1316 -0.1561 -0.0846
 5552TP3     H128475   4.015   2.127   1.216  0.3442 -1.5000 -0.0671
 5552TP3     H228476   4.144   2.191   1.168 -0.8496  1.0390 -0.0050
 5553TP3      O28477   5.249   3.516   1.807  0.1676  0.1045 -0.0958
 5553TP3     H128478   5.230   3.428   1.840 -0.7821  0.0705 -0.6960
 5553TP3     H228479   5.230   3.511   1.714  1.2719  0.6316 -0.3579
 5554TP3      O28480   2.598   0.947   1.921  0.7856  0.1071 -0.0251
 5554TP3     H128481   2.617   0.904   1.838 -1.2112  0.9487 -0.9776
 5554TP3     H228482   2.615   0.879   1.987 -2.8923 -2.5465 -1.4680
 5555TP3      O28483   2.799   1.565   0.140  0.1076 -0.0317  0.1866
 5555TP3     H128484   2.770   1.656   0.143 -1.3991 -0.5140  1.3829
 5555TP3     H228485   2.767   1.532   0.057  0.6490  0.5019 -0.2467
 5556TP3      O28486   0.139   1.121   6.646 -0.0323  0.2175  0.5937
 5556TP3     H128487   0.094   1.186   6.700 -1.7092 -0.5973  0.2527
 5556TP3     H228488   0.163   1.052   6.708  0.0807  0.3265  0.6701
 5557TP3      O28489   4.776   5.290   2.973  0.4086  0.2291  0.0183
 5557TP3     H128490   4.794   5.221   3.036  0.6778 -0.2959 -0.6241
 5557TP3     H228491   4.844   5.356   2.989  2.2720 -1.1977 -1.5998
 5558TP3      O28492   0.377   2.406   2.565 -0.4152  0.4227  0.2311
 5558TP3     H128493   0.409   2.432   2.651 -1.0546 -2.1478  1.3363
 5558TP3     H228494   0.451   2.362   2.523 -0.5906  0.1859  0.1624
 5559TP3      O28495   4.447   2.768   3.475 -0.5334 -0.0607 -0.1609
 5559TP3     H128496   4.452   2.824   3.398 -0.6795 -0.5071 -0.4960
 5559TP3     H228497   4.485   2.684   3.448 -1.7214 -0.6331 -0.1412
 5560TP3      O28498   5.278   4.468   1.083  0.7636 -0.7395 -0.0397
 5560TP3     H128499   5.243   4.547   1.125  0.9130  0.6581 -2.3778
 5560TP3     H228500   5.318   4.419   1.155 -1.5640  0.0146  1.9159
 5561TP3      O28501   4.364   2.457   2.447 -0.5261 -0.0253 -0.4259
 5561TP3     H128502   4.285   2.435   2.497 -0.5113  1.5026  0.3534
 5561TP3     H228503   4.334   2.461   2.356 -1.1871 -0.2088 -0.2203
 5562TP3      O28504   4.788   3.417   8.926 -0.7840  0.4923 -0.0431
 5562TP3     H128505   4.715   3.370   8.966 -0.6540  0.6606  0.3937
 5562TP3     H228506   4.746   3.478   8.865 -0.9313 -0.7409 -1.2478
 5563TP3      O28507   2.402   1.622   9.798 -0.4995  0.3652 -0.4838
 5563TP3     H128508   2.329   1.665   9.754 -0.0931  0.6704 -0.8712
 5563TP3     H228509   2.479   1.672   9.771 -0.3168  1.0757  1.1976
 5564TP3      O28510   2.214   2.751   2.645 -0.1664 -0.9257 -0.2530
 5564TP3     H128511   2.293   2.743   2.590 -0.4435 -0.9823 -0.6452
 5564TP3     H228512   2.245   2.729   2.733  0.3205 -0.6586 -0.3532
 5565TP3      O28513   3.256   0.593   2.477  0.1329  0.3083  0.0433
 5565TP3     H128514   3.276   0.500   2.469  1.8763  0.7960 -2.1498
 5565TP3     H228515   3.166   0.602   2.445 -0.2345 -0.6566  0.7716
 5566TP3      O28516   4.054   1.688   2.665  0.0831 -0.0446 -0.3557
 5566TP3     H128517   4.056   1.668   2.572  2.7677 -1.4765 -0.0803
 5566TP3     H228518   4.037   1.604   2.707 -0.5379  0.4829  0.4787
 5567TP3      O28519   0.834   4.348   7.817  0.0003 -0.3068  0.2372
 5567TP3     H128520   0.899   4.303   7.764 -2.0884 -3.5006  0.1009
 5567TP3     H228521   0.781   4.397   7.754 -0.5828 -1.6041 -0.3333
 5568TP3      O28522   0.850   4.249   8.807  0.6417 -0.4554 -0.6852
 5568TP3     H128523   0.810   4.165   8.830 -1.1046  0.5641  0.2393
 5568TP3     H228524   0.812   4.273   8.723 -0.0241  0.0660 -0.2541
 5569TP3      O28525   2.122   0.396   1.365 -0.9872  0.1419 -0.6231
 5569TP3     H128526   2.087   0.335   1.300 -1.9053  1.8258 -1.7730
 5569TP3     H228527   2.046   0.446   1.395 -0.0209  1.9925 -1.1282
 5570TP3      O28528   2.338   1.105  10.098  0.4629  0.5050 -0.3773
 5570TP3     H128529   2.255   1.151  10.084  0.2263  0.3795  0.5501
 5570TP3     H228530   2.400   1.175  10.120  0.5830  0.5872 -0.9642
 5571TP3      O28531   1.550   1.510   1.259  0.7249 -0.2369 -0.3527
 5571TP3     H128532   1.561   1.604   1.248 -0.1679 -0.0770  0.0903
 5571TP3     H228533   1.478   1.501   1.321  1.7010 -1.1949  0.6804
 5572TP3      O28534   0.848   5.010   7.103  0.9955  0.3919 -0.1493
 5572TP3     H128535   0.795   5.078   7.063  0.9426  0.4481  0.0167
 5572TP3     H228536   0.804   4.928   7.079  0.0268  0.5004  1.1465
 5573TP3      O28537   4.419   0.010   1.792 -0.5365  0.1533  0.1352
 5573TP3     H128538   4.393   0.070   1.863  1.4103 -0.2679  1.2781
 5573TP3     H228539   4.467   0.065   1.730  0.4561 -0.0266  0.7266
 5574TP3      O28540   2.131   0.697   7.986 -0.4508 -0.4987 -0.0344
 5574TP3     H128541   2.085   0.647   8.054  1.2991 -1.3306  0.5894
 5574TP3     H228542   2.070   0.767   7.963 -2.4414 -2.1385  0.0104
 5575TP3      O28543   4.728   0.633   2.827  0.7061 -0.1471 -0.0324
 5575TP3     H128544   4.758   0.628   2.918  1.8533  0.3942 -0.3661
 5575TP3     H228545   4.717   0.727   2.811 -1.0710 -0.3023  0.0179
 5576TP3      O28546   3.105   0.317   2.062  0.1389 -0.0059 -0.6159
 5576TP3     H128547   3.153   0.398   2.076 -1.5886  0.7416  1.6297
 5576TP3     H228548   3.173   0.251   2.049  1.6394  1.4757 -0.6052
 5577TP3      O28549   4.467   0.424   7.558  0.4451 -0.3819 -0.0746
 5577TP3     H128550   4.559   0.406   7.540  0.5026  1.6899 -2.4409
 5577TP3     H228551   4.468   0.510   7.602 -0.3428 -0.4263  0.0378
 5578TP3      O28552   3.160   2.743   0.903 -0.1127 -0.1098 -0.3260
 5578TP3     H128553   3.240   2.770   0.857 -0.4076  0.0810 -0.7330
 5578TP3     H228554   3.090   2.762   0.841 -0.6075  0.9493  0.5189
 5579TP3      O28555   0.454   1.356   8.506  0.0643  0.3930 -0.2386
 5579TP3     H128556   0.358   1.350   8.501  0.0952  0.0315 -0.3879
 5579TP3     H228557   0.470   1.419   8.576 -0.2884  0.6869 -0.4188
 5580TP3      O28558   0.109   3.503   1.558 -0.1996 -0.2002 -0.7567
 5580TP3     H128559   0.202   3.508   1.577 -0.1040 -1.3334 -0.8633
 5580TP3     H228560   0.094   3.573   1.494  1.0004 -1.2966 -2.3106
 5581TP3      O28561   1.399   2.786   6.867 -0.4889  0.5573 -0.0087
 5581TP3     H128562   1.478   2.732   6.862  0.6950  1.6997  3.2938
 5581TP3     H228563   1.338   2.734   6.919 -0.4712  1.1551  0.6235
 5582TP3      O28564   0.702   4.270   7.345 -0.1316  0.2925  0.3206
 5582TP3     H128565   0.714   4.214   7.422  0.7814 -0.9305 -0.6710
 5582TP3     H228566   0.708   4.359   7.379  0.9177 -0.2218  1.5797
 5583TP3      O28567   2.227   3.920   9.449 -0.3090 -0.0546 -0.2207
 5583TP3     H128568   2.197   3.973   9.523  1.2751 -0.1235  0.4938
 5583TP3     H228569   2.285   3.854   9.488  0.4344 -0.1804 -1.4950
 5584TP3      O28570   3.846   0.486   0.706  0.5218  0.4276  0.2584
 5584TP3     H128571   3.783   0.414   0.708  0.3720  0.5486 -0.1768
 5584TP3     H228572   3.900   0.471   0.784  1.2737 -0.8528 -0.4866
 5585TP3      O28573   2.962   0.908   2.265 -0.0137 -0.3420  0.3565
 5585TP3     H128574   2.919   0.950   2.190 -1.3109 -0.8531  0.7749
 5585TP3     H228575   3.043   0.871   2.229  1.2499  2.5198 -0.0062
 5586TP3      O28576   4.288   1.706   1.242 -0.0350 -0.8115 -0.5806
 5586TP3     H128577   4.346   1.678   1.313 -0.1282  2.0764  0.8004
 5586TP3     H228578   4.342   1.763   1.188 -0.7681 -0.5481 -1.0560
 5587TP3      O28579   4.873   3.059   7.964 -0.7185  0.3952 -0.0298
 5587TP3     H128580   4.930   2.986   7.986 -0.5807  0.4574 -0.1776
 5587TP3     H228581   4.803   3.056   8.030  0.9967  2.0776  1.9963
 5588TP3      O28582   1.626   5.104   8.506 -0.2112  0.0557 -0.2907
 5588TP3     H128583   1.589   5.016   8.494 -0.7153  0.3122 -0.6687
 5588TP3     H228584   1.648   5.108   8.599  0.6721 -0.7942 -0.4500
 5589TP3      O28585   2.523   1.444   1.761  0.0432  0.4717 -0.4112
 5589TP3     H128586   2.546   1.351   1.755 -0.0580  0.5017 -1.5822
 5589TP3     H228587   2.607   1.489   1.763  0.1546  0.2992  2.3280
 5590TP3      O28588   1.474   1.833   1.335 -0.0274  0.1625 -0.2267
 5590TP3     H128589   1.391   1.810   1.294  1.3006 -1.4895 -2.2107
 5590TP3     H228590   1.500   1.915   1.292 -1.4458  1.7862  1.7996
 5591TP3      O28591   0.594   4.580   9.298 -0.8558 -0.2112 -0.2214
 5591TP3     H128592   0.543   4.499   9.301 -0.7692 -0.4236 -2.7087
 5591TP3     H228593   0.561   4.627   9.222  0.5971  1.0828 -0.1110
 5592TP3      O28594   3.406   2.363   9.560  0.5724  0.2623 -0.3423
 5592TP3     H128595   3.448   2.444   9.587 -0.1981  0.6198 -0.2020
 5592TP3     H228596   3.453   2.337   9.481  1.4664  0.3188  0.1549
 5593TP3      O28597   4.437   0.979   8.700  0.0364 -0.4029 -0.1002
 5593TP3     H128598   4.440   1.026   8.782 -2.3033  1.2971 -0.8964
 5593TP3     H228599   4.410   0.890   8.724 -0.1304 -0.0612  1.0116
 5594TP3      O28600   1.112   3.887   0.109  0.0892 -0.0102  0.7397
 5594TP3     H128601   1.056   3.852   0.179 -0.5279  0.9958  0.7778
 5594TP3     H228602   1.078   3.847   0.029 -0.1528 -0.0495  0.8601
 5595TP3      O28603   4.231   1.308   1.025 -0.4161  0.3261 -0.1119
 5595TP3     H128604   4.312   1.321   0.976 -0.6616 -1.5310 -1.1136
 5595TP3     H228605   4.177   1.253   0.968 -1.8069  0.3235  1.1402
 5596TP3      O28606   3.373   3.700   9.797 -0.1421 -0.4179  0.0137
 5596TP3     H128607   3.364   3.728   9.706 -1.8740  1.3963  0.6507
 5596TP3     H228608   3.346   3.609   9.797 -0.4932 -0.3323 -1.2379
 5597TP3      O28609   1.720   3.288   7.748 -0.0320  0.1388  0.6180
 5597TP3     H128610   1.667   3.331   7.815  1.1238  0.3122  1.4462
 5597TP3     H228611   1.662   3.221   7.711 -0.6019 -0.1780  2.0110
 5598TP3      O28612   2.594   3.855   3.213 -0.0355  0.2600  0.1603
 5598TP3     H128613   2.534   3.881   3.143 -1.0674  0.1269  0.9662
 5598TP3     H228614   2.549   3.784   3.258  1.9759 -1.8429 -0.9157
 5599TP3      O28615   3.728   1.494   7.914  0.0828  0.1199  0.5085
 5599TP3     H128616   3.727   1.462   7.823  0.4572  1.9023 -0.1518
 5599TP3     H228617   3.658   1.444   7.957 -2.3408  1.4776 -1.5789
 5600TP3      O28618   1.781   3.800   1.586  0.0135 -0.3184  0.1062
 5600TP3     H128619   1.714   3.868   1.581 -1.1153 -1.3704  0.4994
 5600TP3     H228620   1.782   3.773   1.678  2.1317  0.7756  0.4718
 5601TP3      O28621   3.675   0.524   3.624  0.4857 -0.0265 -0.5484
 5601TP3     H128622   3.689   0.443   3.575  0.6107 -0.6676  0.5189
 5601TP3     H228623   3.592   0.558   3.590  0.9445 -0.0297 -1.7412
 5602TP3      O28624   4.471   3.516   8.354  0.1638 -0.6439  0.7809
 5602TP3     H128625   4.403   3.523   8.287 -0.1641 -0.7026  1.1076
 5602TP3     H228626   4.543   3.470   8.309  0.1036 -0.3289  0.3534
 5603TP3      O28627   4.356   2.309   3.311 -0.3117  0.2938  0.0967
 5603TP3     H128628   4.294   2.293   3.382 -1.3411 -0.7059 -0.9934
 5603TP3     H228629   4.309   2.363   3.249  0.2928  0.4591 -0.2276
 5604TP3      O28630   0.372   2.897   1.032 -0.3701  0.1720 -0.5951
 5604TP3     H128631   0.438   2.906   1.101  0.2134 -0.7290 -1.0319
 5604TP3     H228632   0.379   2.979   0.982 -1.6154  1.3758  1.0893
 5605TP3      O28633   3.828   0.896   1.753 -0.3850 -0.2773 -0.0893
 5605TP3     H128634   3.806   0.805   1.735  1.8535 -0.8474 -0.2438
 5605TP3     H228635   3.870   0.894   1.839 -1.7870  0.8819  0.6539
 5606TP3      O28636   1.898   3.996   8.946  0.0503  0.1506  0.7739
 5606TP3     H128637   1.947   3.982   8.865 -0.2102 -1.5364  0.8618
 5606TP3     H228638   1.807   4.005   8.918 -0.0800 -0.7272  0.8615
 5607TP3      O28639   0.660   2.092   3.091 -0.1520  0.2842  0.0687
 5607TP3     H128640   0.639   2.003   3.119  0.4355  0.3432  0.7163
 5607TP3     H228641   0.741   2.082   3.040  0.1676  0.5036  0.5304
 5608TP3      O28642   0.886   0.155   2.841 -0.5638  0.0009 -0.0095
 5608TP3     H128643   0.931   0.072   2.858  1.3252  0.5472 -2.0304
 5608TP3     H228644   0.950   0.223   2.863 -0.7011  0.8206 -1.9394
 5609TP3      O28645   1.851   1.029   9.294  0.0007  0.4607 -0.8832
 5609TP3     H128646   1.800   1.036   9.375  1.5433 -0.0363  0.1666
 5609TP3     H228647   1.918   0.964   9.313  0.6382  0.6223 -2.4438
 5610TP3      O28648   0.884   3.090   8.277 -0.4916 -0.2786  0.2338
 5610TP3     H128649   0.949   3.050   8.335 -0.1363  0.2443  0.2039
 5610TP3     H228650   0.905   3.054   8.190 -0.9775 -1.0053  0.4072
 5611TP3      O28651   1.758   3.183   2.529  0.1326  0.7178 -0.4049
 5611TP3     H128652   1.788   3.191   2.620 -0.1405 -0.6969 -0.1568
 5611TP3     H228653   1.714   3.266   2.511  0.4087  1.1202  0.6717
 5612TP3      O28654   3.192   1.548   2.020 -0.2138  0.3789  0.0175
 5612TP3     H128655   3.287   1.548   2.009 -0.2291  1.4787 -0.2793
 5612TP3     H228656   3.172   1.637   2.050 -1.0686 -0.0787  0.8826
 5613TP3      O28657   1.569   4.273   8.189  1.1131 -0.4337 -0.6521
 5613TP3     H128658   1.555   4.332   8.115 -1.5842  0.5915  0.5679
 5613TP3     H228659   1.504   4.204   8.177  0.2989  0.0030  0.9553
 5614TP3      O28660   4.632   1.028   1.641 -0.1060  0.5445 -0.5223
 5614TP3     H128661   4.632   0.933   1.654 -1.5557  0.3316 -1.8817
 5614TP3     H228662   4.707   1.058   1.693  1.1797 -1.4759 -1.0663
 5615TP3      O28663   0.927   3.107   2.858  1.2186  0.1638  0.1449
 5615TP3     H128664   1.011   3.119   2.814  1.9116 -0.8085  1.1272
 5615TP3     H228665   0.947   3.049   2.932 -0.3018 -0.0125  0.4576
 5616TP3      O28666   4.745   2.731   8.012 -0.2025 -0.3075  0.3463
 5616TP3     H128667   4.690   2.653   8.011 -1.7017  0.7205  0.3146
 5616TP3     H228668   4.687   2.802   7.985  1.1315  0.8249  0.3598
 5617TP3      O28669   4.409   2.367   0.198  0.4479  0.5969  0.1389
 5617TP3     H128670   4.486   2.351   0.143  0.2646  0.9703 -0.2339
 5617TP3     H228671   4.370   2.446   0.161  0.9862  1.5617  1.5223
 5618TP3      O28672   2.521   4.028   8.457  0.1312  0.2632  0.3177
 5618TP3     H128673   2.432   4.063   8.466 -0.5628 -1.4884  0.5783
 5618TP3     H228674   2.568   4.064   8.533 -0.6428  0.3732  0.7578
 5619TP3      O28675   0.645   2.373   3.114  0.3158 -0.2731 -0.0156
 5619TP3     H128676   0.636   2.388   3.020 -0.9966  0.7832  0.2492
 5619TP3     H228677   0.641   2.278   3.124 -1.9923 -0.3219 -0.8222
 5620TP3      O28678   1.389   0.842   1.184  0.4303  0.2510  0.4688
 5620TP3     H128679   1.373   0.851   1.090 -0.3155 -0.4139  0.5208
 5620TP3     H228680   1.378   0.930   1.219  0.3577  0.4382 -0.0164
 5621TP3      O28681   4.529   2.533   3.379  0.1797 -0.1541  0.0438
 5621TP3     H128682   4.590   2.529   3.306  1.8094 -1.1360  1.3835
 5621TP3     H228683   4.493   2.444   3.385  0.8644 -0.3870  1.0402
 5622TP3      O28684   2.586   0.776   7.596  0.0580  0.7678  0.1338
 5622TP3     H128685   2.659   0.825   7.558 -0.0639  1.4499  0.7492
 5622TP3     H228686   2.508   0.820   7.563 -0.0718  0.2917 -0.1964
 5623TP3      O28687   3.131   2.430   1.627  0.1436 -0.1655  0.1148
 5623TP3     H128688   3.129   2.365   1.558  2.0123  0.7202 -0.8352
 5623TP3     H228689   3.057   2.488   1.607 -0.4449 -0.9495 -0.0446
 5624TP3      O28690   3.737   3.936   3.649 -0.4389  0.0605  0.0462
 5624TP3     H128691   3.787   4.009   3.685  0.0471  0.2296 -0.9452
 5624TP3     H228692   3.801   3.867   3.636 -1.2367 -1.4318  3.0987
 5625TP3      O28693   0.717   5.236   9.226 -0.1131 -0.2685  0.5676
 5625TP3     H128694   0.625   5.264   9.226 -0.0040  0.1154  1.1710
 5625TP3     H228695   0.765   5.314   9.197 -0.0440 -0.7623 -0.7291
 5626TP3      O28696   2.524   1.007   1.346 -0.5994  0.2194  0.1387
 5626TP3     H128697   2.459   0.956   1.395 -0.5756  0.6262  0.6095
 5626TP3     H228698   2.607   0.963   1.364 -0.8725 -1.0407 -1.4606
 5627TP3      O28699   0.226   1.803   2.026 -0.4371 -0.6373 -0.1947
 5627TP3     H128700   0.306   1.851   2.004 -0.3436 -1.0649 -0.8103
 5627TP3     H228701   0.165   1.870   2.056 -0.3443 -0.1211 -1.1378
 5628TP3      O28702   5.007   2.211   7.934  0.5315 -0.4055  0.1831
 5628TP3     H128703   5.080   2.168   7.889 -0.8909 -1.2944 -1.3568
 5628TP3     H228704   4.998   2.162   8.016  0.7031 -1.2625 -0.2991
 5629TP3      O28705   0.693   3.873   7.657 -0.4901  0.1200  0.0498
 5629TP3     H128706   0.696   3.901   7.749 -0.9117  1.8303 -0.4278
 5629TP3     H228707   0.610   3.826   7.649 -0.8260  0.6458  0.3710
 5630TP3      O28708   1.191   1.996   2.119 -0.3787 -0.5218 -0.6040
 5630TP3     H128709   1.191   2.034   2.207 -0.8864 -0.7154 -0.5176
 5630TP3     H228710   1.222   2.067   2.063  0.3974 -0.5417 -0.2112
 5631TP3      O28711   4.489   1.859   1.082 -0.2065 -0.7741 -0.5171
 5631TP3     H128712   4.435   1.927   1.042  0.2033 -1.5101 -2.3981
 5631TP3     H228713   4.559   1.907   1.125 -2.4710  0.2414  2.3890
 5632TP3      O28714   3.933   1.577   9.402  0.5021  0.3407  0.3196
 5632TP3     H128715   3.939   1.605   9.494  0.5392 -0.6933  0.6425
 5632TP3     H228716   4.022   1.585   9.368  0.4156  1.1062  0.2466
 5633TP3      O28717   0.491   1.911   1.955  0.5955  0.4047  0.1662
 5633TP3     H128718   0.558   1.975   1.932  3.4308 -1.5866  2.2052
 5633TP3     H228719   0.513   1.834   1.901 -0.5943 -0.0243  0.2635
 5634TP3      O28720   3.189   3.497   9.735  1.1039  0.4285  0.2040
 5634TP3     H128721   3.230   3.426   9.687 -0.7498 -0.3996 -0.2465
 5634TP3     H228722   3.166   3.562   9.668 -1.4146 -0.6934 -0.1221
 5635TP3      O28723   4.171   1.629   2.979 -0.0057 -0.0016  0.2307
 5635TP3     H128724   4.101   1.582   3.024  0.6228 -1.3017 -0.0782
 5635TP3     H228725   4.152   1.721   2.993 -0.6459 -0.3533  1.8715
 5636TP3      O28726   0.526   4.603   1.342 -0.0821 -0.6455  0.3186
 5636TP3     H128727   0.577   4.623   1.421 -1.2494  0.9058  0.7186
 5636TP3     H228728   0.592   4.580   1.277  0.9978 -0.6280  1.3642
 5637TP3      O28729   2.116   1.877   8.338  0.4021  0.0327 -0.1997
 5637TP3     H128730   2.177   1.883   8.411 -0.2414 -1.5464  0.5243
 5637TP3     H228731   2.036   1.919   8.370 -0.4442 -2.1273  0.7084
 5638TP3      O28732   3.526   0.859   3.450  0.2383 -0.2216  0.6770
 5638TP3     H128733   3.616   0.881   3.424 -0.6941  3.2370 -0.1709
 5638TP3     H228734   3.510   0.910   3.529 -1.1216 -0.4734  0.5911
 5639TP3      O28735   3.958   0.332   8.816 -0.1347  0.0266 -0.4179
 5639TP3     H128736   4.022   0.360   8.751  1.0410 -1.5819 -0.0037
 5639TP3     H228737   4.004   0.340   8.900 -1.1943  0.8257  0.1274
 5640TP3      O28738   1.683   0.004   7.823  0.2453 -0.6318  0.2465
 5640TP3     H128739   1.767   0.031   7.859  1.8687 -1.8594 -2.3181
 5640TP3     H228740   1.705  -0.058   7.754 -2.6426  0.4083 -1.8221
 5641TP3      O28741   4.584   0.347   2.229  0.0171  0.0822  0.6060
 5641TP3     H128742   4.596   0.390   2.144  0.0599 -0.7406  0.1848
 5641TP3     H228743   4.668   0.306   2.247 -0.0244  0.1680  1.0034
 5642TP3      O28744   1.651   1.394   1.041 -0.0498  0.5066 -0.3507
 5642TP3     H128745   1.703   1.470   1.013  0.7539  0.0068 -0.2532
 5642TP3     H228746   1.618   1.419   1.128  0.0599  0.8205 -0.3972
 5643TP3      O28747   4.597   4.368   2.929 -0.3993 -0.4299  0.0509
 5643TP3     H128748   4.678   4.400   2.888  0.5398 -0.3942  1.8119
 5643TP3     H228749   4.575   4.435   2.994 -0.7458 -1.3541  0.9159
 5644TP3      O28750   1.178   4.974   9.199  0.2397 -0.1774  0.4396
 5644TP3     H128751   1.171   4.943   9.290 -1.0501 -2.4071 -0.3414
 5644TP3     H228752   1.101   5.030   9.188  0.4851  0.2298  0.7529
 5645TP3      O28753   1.056   5.135  10.103 -0.2067  0.3094 -0.5766
 5645TP3     H128754   1.012   5.184  10.033 -0.1619  0.8256 -0.2498
 5645TP3     H228755   1.056   5.044  10.073 -0.5202  0.4730 -1.0769
 5646TP3      O28756   3.855   0.753   0.513  0.4718 -0.0484 -0.0142
 5646TP3     H128757   3.766   0.786   0.523  0.2292 -0.7864  0.3553
 5646TP3     H228758   3.894   0.762   0.601  0.6195 -0.1302 -0.0711
 5647TP3      O28759   4.669   3.853   9.249 -0.3292  0.2313 -0.0678
 5647TP3     H128760   4.687   3.931   9.196  0.1796 -0.1799 -0.5055
 5647TP3     H228761   4.697   3.780   9.194  1.0842 -0.1644  1.1061
 5648TP3      O28762   2.480   0.182   7.689  0.1456 -0.2736 -0.1725
 5648TP3     H128763   2.512   0.103   7.644 -1.7349 -2.9668  2.8200
 5648TP3     H228764   2.390   0.162   7.713 -0.8388  3.3464 -0.2129
 5649TP3      O28765   1.164   0.238   0.374  0.7305  0.3134  0.1723
 5649TP3     H128766   1.131   0.155   0.340  0.5479  0.3648  0.2246
 5649TP3     H228767   1.219   0.213   0.448 -0.0900  0.2944  0.7965
 5650TP3      O28768   2.287   0.577   1.485  0.5402  0.3135  0.2763
 5650TP3     H128769   2.266   0.498   1.434  1.4257  0.6379 -0.6435
 5650TP3     H228770   2.299   0.645   1.419  1.3870  0.8357  0.9423
 5651TP3      O28771   3.525   2.296   9.325 -0.1596 -0.5728 -0.1640
 5651TP3     H128772   3.566   2.378   9.297 -0.8042  0.1253  0.8903
 5651TP3     H228773   3.528   2.241   9.247 -1.7268  1.2406 -1.6053
 5652TP3      O28774   0.281   1.685   0.811  0.0037  0.0572  0.6491
 5652TP3     H128775   0.258   1.594   0.796 -0.5305  0.5149 -1.8703
 5652TP3     H228776   0.198   1.728   0.832  0.1403  0.0983  1.1226
 5653TP3      O28777   1.412   1.318   2.844  0.0156  0.2164  0.3378
 5653TP3     H128778   1.465   1.332   2.922  1.6182 -1.0221 -0.4623
 5653TP3     H228779   1.322   1.328   2.874  0.6563  2.5619  1.7215
 5654TP3      O28780   0.958   4.739   3.335 -0.4429  0.7009  0.3246
 5654TP3     H128781   0.895   4.810   3.349  2.0036  2.6896  2.3120
 5654TP3     H228782   1.000   4.761   3.252  1.5155  2.8239  1.7149
 5655TP3      O28783   1.380   1.715  10.015  0.3141  0.0916  0.3486
 5655TP3     H128784   1.372   1.756   9.929 -0.2716  2.1178  1.2900
 5655TP3     H228785   1.370   1.622   9.998 -0.8305  0.5091 -1.6596
 5656TP3      O28786   2.957   5.189   2.329  0.6435  0.0066  0.0477
 5656TP3     H128787   2.893   5.205   2.259  0.4783  0.3665  0.2812
 5656TP3     H228788   2.908   5.137   2.393  0.1643  1.3878  0.8531
 5657TP3      O28789   3.908   2.624   2.315  0.3515 -0.0863  0.1760
 5657TP3     H128790   3.984   2.607   2.369  0.5506  0.2310 -0.0013
 5657TP3     H228791   3.933   2.594   2.227  0.2061 -0.1589  0.1594
 5658TP3      O28792   4.196   4.756  10.069 -0.1565 -0.3116  0.0447
 5658TP3     H128793   4.237   4.825  10.119 -0.3226 -1.6230  2.1058
 5658TP3     H228794   4.126   4.799  10.021 -0.5193  0.9017  1.5986
 5659TP3      O28795   0.806   3.840   3.267  0.3429  0.0249 -0.2558
 5659TP3     H128796   0.886   3.836   3.214  0.6224 -0.1613  0.1779
 5659TP3     H228797   0.794   3.750   3.297  0.3866  0.2037  0.2972
 5660TP3      O28798   3.119   2.440   2.020 -0.4713 -0.6518 -0.5233
 5660TP3     H128799   3.175   2.507   1.981 -1.0789  0.6287  0.7024
 5660TP3     H228800   3.144   2.441   2.113 -1.8237 -0.7683 -0.1480
 5661TP3      O28801   2.426   4.814   8.782 -0.2299  0.2539  0.1667
 5661TP3     H128802   2.351   4.812   8.723  1.9952  0.0929 -2.8825
 5661TP3     H228803   2.410   4.744   8.845 -2.0698 -0.5557 -1.1342
 5662TP3      O28804   2.951   0.974  10.050 -0.3588 -0.7501  1.1749
 5662TP3     H128805   2.983   0.898  10.098  1.2892 -0.5216  0.5270
 5662TP3     H228806   2.991   1.049  10.094  0.8573 -0.5126 -0.2321
 5663TP3      O28807   2.156   5.092   6.907 -0.5245 -0.1266  0.3566
 5663TP3     H128808   2.206   5.171   6.886  0.3466 -0.4430  1.1450
 5663TP3     H228809   2.072   5.125   6.938  0.3585  0.5987  2.1408
 5664TP3      O28810   3.502   3.899   8.052  0.2106  0.4539  0.0554
 5664TP3     H128811   3.592   3.872   8.073 -0.3095 -1.5712 -0.1219
 5664TP3     H228812   3.513   3.966   7.985  1.5861 -0.8681 -1.1293
 5665TP3      O28813   1.712   4.860   8.042 -0.3491 -0.5253  0.6284
 5665TP3     H128814   1.770   4.786   8.059 -1.4212 -1.2631  1.1280
 5665TP3     H228815   1.636   4.845   8.097 -0.6694  0.8692  0.6113
 5666TP3      O28816   2.349   4.862   1.651  0.1133 -0.1773 -0.8538
 5666TP3     H128817   2.281   4.928   1.662  0.6553  0.3396 -0.5484
 5666TP3     H228818   2.420   4.891   1.708  0.0124 -1.5063  0.0001
 5667TP3      O28819   0.001   4.085   3.562 -0.1971 -0.2461  0.0468
 5667TP3     H128820  -0.047   4.166   3.582  1.2383  1.3018 -2.2699
 5667TP3     H228821   0.049   4.105   3.481  0.0084 -3.5329 -0.7867
 5668TP3      O28822   2.969   0.219   1.737  0.2014  0.0656  0.4349
 5668TP3     H128823   2.927   0.176   1.662  0.2988  0.4672  0.1480
 5668TP3     H228824   2.924   0.183   1.813 -0.6181  0.4356  0.1370
 5669TP3      O28825   4.606   3.533   1.334 -0.7127  0.0320  0.5421
 5669TP3     H128826   4.563   3.578   1.406 -1.5046  0.0593  0.0611
 5669TP3     H228827   4.537   3.482   1.292  0.0603 -1.2526  0.7624
 5670TP3      O28828   0.385   4.015   7.695  0.0222  0.9781 -0.0091
 5670TP3     H128829   0.348   4.069   7.766 -1.8502 -0.6472  0.3358
 5670TP3     H228830   0.388   3.927   7.731 -2.4962 -0.2213 -2.3858
 5671TP3      O28831   3.905   1.110   8.918  0.1147 -0.3495  0.0949
 5671TP3     H128832   3.910   1.121   8.823 -0.7348 -0.1193  0.0723
 5671TP3     H228833   3.989   1.071   8.941  0.5384  0.0732 -0.6803
 5672TP3      O28834   3.767   4.729   3.304 -0.2048  0.3250  0.2250
 5672TP3     H128835   3.710   4.667   3.260 -1.4054 -0.9159  3.2699
 5672TP3     H228836   3.855   4.691   3.296 -0.5802 -0.5164  0.0566
 5673TP3      O28837   3.452   2.443   0.776 -0.6514 -0.1249  0.3737
 5673TP3     H128838   3.500   2.360   0.779 -1.0646 -0.3297  1.8348
 5673TP3     H228839   3.362   2.418   0.755 -0.2367  0.2420 -2.1508
 5674TP3      O28840   0.753   1.340   0.789  0.0829 -0.5356  0.1365
 5674TP3     H128841   0.685   1.380   0.735  0.2969 -0.3259  0.0212
 5674TP3     H228842   0.738   1.377   0.876  0.1189 -0.4002  0.0866
 5675TP3      O28843   1.256   2.998   2.088 -0.4406  0.5305  0.3385
 5675TP3     H128844   1.204   3.045   2.023 -1.7258 -0.4016  0.6427
 5675TP3     H228845   1.214   3.017   2.172  0.2175  0.4233  0.7040
 5676TP3      O28846   2.734   5.163   9.279  0.4887  0.7769  0.3541
 5676TP3     H128847   2.720   5.221   9.204  0.0728 -0.1446 -0.2976
 5676TP3     H228848   2.805   5.205   9.329  3.1387 -0.2490 -2.2868
 5677TP3      O28849   3.540   1.716   8.667  0.5495  0.4703 -0.0186
 5677TP3     H128850   3.455   1.750   8.639  0.1439 -0.4175  0.0936
 5677TP3     H228851   3.559   1.762   8.748  0.5327  1.2180 -0.4328
 5678TP3      O28852   4.523   1.404   1.223  0.0861  0.1653  0.2623
 5678TP3     H128853   4.556   1.464   1.290 -2.0448  2.2591 -0.4084
 5678TP3     H228854   4.529   1.454   1.141 -3.1347  0.1545 -0.1147
 5679TP3      O28855   0.838   2.124   9.185  0.4666 -0.2221 -0.2584
 5679TP3     H128856   0.795   2.038   9.184  0.4566 -0.2175 -0.2284
 5679TP3     H228857   0.919   2.109   9.234  0.2571 -0.1153  0.1295
 5680TP3      O28858   0.147   2.657   8.245 -0.7593 -0.0314 -0.1288
 5680TP3     H128859   0.183   2.711   8.315 -1.9244  0.0614  0.4155
 5680TP3     H228860   0.128   2.718   8.174 -1.6719  0.2244  0.3244
 5681TP3      O28861   1.485   3.013   9.375  0.2694  0.1497  0.1854
 5681TP3     H128862   1.575   3.041   9.394 -0.1118  1.0068  0.7739
 5681TP3     H228863   1.486   2.919   9.392  1.4279 -0.1530 -1.2890
 5682TP3      O28864   5.281   1.731   7.495 -0.2550  0.2324  0.1148
 5682TP3     H128865   5.197   1.706   7.458 -0.5437  0.6597  0.4776
 5682TP3     H228866   5.343   1.667   7.459 -0.4489  0.8736 -1.4260
 5683TP3      O28867   4.820   0.699   9.954 -0.3039  0.0098 -0.0806
 5683TP3     H128868   4.747   0.650   9.915 -0.0773  0.2621 -0.8446
 5683TP3     H228869   4.875   0.724   9.879 -0.1815  1.0478  0.3382
 5684TP3      O28870   1.217   0.103   9.463  0.0104 -0.7814 -0.0006
 5684TP3     H128871   1.293   0.076   9.514  0.4865  0.8437  0.1997
 5684TP3     H228872   1.155   0.031   9.473  0.5212 -1.0047  1.9758
 5685TP3      O28873   5.265   4.127   0.833  0.0044  0.1522 -0.1346
 5685TP3     H128874   5.275   4.036   0.806 -0.8514 -0.1676  0.5696
 5685TP3     H228875   5.318   4.177   0.771  0.1112 -0.7795 -0.8045
 5686TP3      O28876   1.502   0.178   9.527 -0.1205 -0.5150 -0.2447
 5686TP3     H128877   1.594   0.186   9.551  0.0894  0.7868 -1.3306
 5686TP3     H228878   1.482   0.085   9.538  0.1521 -0.2376  3.8969
 5687TP3      O28879   4.543   1.304   8.230 -0.1891 -0.0486  0.1900
 5687TP3     H128880   4.630   1.342   8.216 -0.4526 -0.1711 -2.0434
 5687TP3     H228881   4.507   1.354   8.303  1.3791  0.6326  0.5463
 5688TP3      O28882   2.474   0.006   9.799  0.0220 -0.2210  0.2949
 5688TP3     H128883   2.469  -0.083   9.833  1.4957 -0.0936  0.9366
 5688TP3     H228884   2.536   0.050   9.858 -1.1199  1.4006  0.3629
 5689TP3      O28885   3.393   4.389   0.219  0.1349  0.3490 -0.4414
 5689TP3     H128886   3.345   4.323   0.270  1.1859 -1.6924 -1.9521
 5689TP3     H228887   3.366   4.473   0.257 -1.4363 -0.9145  1.4262
 5690TP3      O28888   0.330   5.128   1.733  0.2002  0.0367  0.2184
 5690TP3     H128889   0.356   5.135   1.825  0.1737  2.0883  0.0985
 5690TP3     H228890   0.385   5.192   1.688 -1.9695  1.3465 -0.6995
 5691TP3      O28891   5.090   0.493   1.121  1.0144  0.4958  0.0612
 5691TP3     H128892   5.148   0.459   1.054 -0.0193 -2.6961  0.6037
 5691TP3     H228893   5.016   0.531   1.073 -0.3473 -2.8733 -0.8341
 5692TP3      O28894   1.172   0.364   0.739 -0.2490 -0.8916  0.3733
 5692TP3     H128895   1.084   0.382   0.706  0.4712 -1.1352 -1.9091
 5692TP3     H228896   1.164   0.371   0.834 -2.5577 -0.2228  0.2048
 5693TP3      O28897   3.679   2.830   2.186 -0.4595 -0.4681 -0.1887
 5693TP3     H128898   3.684   2.759   2.121 -0.3934 -1.4478  0.8580
 5693TP3     H228899   3.748   2.890   2.160 -1.0381 -0.3553 -1.5734
 5694TP3      O28900   0.255   2.733   3.067 -0.5299  0.2880  0.1527
 5694TP3     H128901   0.346   2.705   3.057 -0.5346  0.5234 -0.5830
 5694TP3     H228902   0.249   2.762   3.158  0.5004  1.5837 -0.1586
 5695TP3      O28903   2.855   0.534   9.970  0.5252 -0.6046 -0.2733
 5695TP3     H128904   2.932   0.583   9.941  0.4623 -0.0386  0.4827
 5695TP3     H228905   2.887   0.482  10.044  0.5646 -1.6310 -1.0038
 5696TP3      O28906   1.587   2.087   1.225 -0.1464  0.6388 -0.1923
 5696TP3     H128907   1.550   2.174   1.210 -1.9648  0.6856  3.4753
 5696TP3     H228908   1.669   2.103   1.271 -0.2833  0.4254  0.1304
 5697TP3      O28909   3.237   0.561   2.012 -0.2708  0.0597  0.4972
 5697TP3     H128910   3.264   0.599   2.096 -0.4959  0.0233  0.5880
 5697TP3     H228911   3.316   0.563   1.958 -0.6146  1.9525  0.0048
 5698TP3      O28912   2.232   4.515   0.820  0.0571  0.2653  0.3075
 5698TP3     H128913   2.277   4.480   0.897 -1.9647 -0.6918  1.1482
 5698TP3     H228914   2.209   4.605   0.845 -1.8655 -0.4813  1.5202
 5699TP3      O28915   0.694   2.272   7.174  0.3573  0.1853  0.5616
 5699TP3     H128916   0.623   2.207   7.184  0.1198  0.6077  1.8300
 5699TP3     H228917   0.760   2.245   7.238  1.6004 -0.4842 -0.9414
 5700TP3      O28918   5.130   1.971   7.718  0.1108 -0.0313  0.0590
 5700TP3     H128919   5.192   2.044   7.720 -0.2208  0.2918 -0.8881
 5700TP3     H228920   5.184   1.893   7.729  0.8163  0.1872 -1.6077
 5701TP3      O28921   1.721   1.624   9.594 -0.0452 -0.1170  0.0218
 5701TP3     H128922   1.781   1.550   9.604  1.0319  0.8255  0.6314
 5701TP3     H228923   1.634   1.584   9.602  0.5211 -1.2083  1.1644
 5702TP3      O28924   3.386   2.446   8.552 -0.0564 -0.0106 -0.5785
 5702TP3     H128925   3.313   2.492   8.593  1.6569  1.3895  1.1019
 5702TP3     H228926   3.428   2.511   8.495  0.7357 -0.3237 -0.3748
 5703TP3      O28927   3.734   3.576   0.846 -0.2294 -0.3095 -0.1341
 5703TP3     H128928   3.737   3.482   0.832  0.2809 -0.1654 -1.0311
 5703TP3     H228929   3.803   3.593   0.910 -0.2781 -0.5294 -0.0221
 5704TP3      O28930   3.948   0.417   9.361 -0.1373  0.7880 -0.1289
 5704TP3     H128931   3.854   0.408   9.376 -0.3799  0.4258 -1.7511
 5704TP3     H228932   3.961   0.391   9.270  1.3690  1.9954 -0.3018
 5705TP3      O28933   4.448   1.269   1.854  0.0150 -0.1012  0.5722
 5705TP3     H128934   4.420   1.182   1.825 -0.7680  0.6543 -1.0371
 5705TP3     H228935   4.490   1.253   1.939  1.0439 -2.2282 -0.2531
 5706TP3      O28936   3.340   4.911   8.673  0.1135  0.3426  0.1988
 5706TP3     H128937   3.357   4.984   8.733 -0.5526  0.3755  0.3646
 5706TP3     H228938   3.356   4.833   8.726 -0.0541  0.3710  0.2918
 5707TP3      O28939   3.083   4.185   8.017 -0.1116 -0.4006  0.3057
 5707TP3     H128940   3.043   4.250   7.959  0.3311 -1.0672 -0.7873
 5707TP3     H228941   3.010   4.136   8.053 -0.3970  0.0444  0.3387
 5708TP3      O28942   2.862   4.940   0.310  0.2082 -0.0984  0.4227
 5708TP3     H128943   2.902   4.951   0.396  1.3080 -1.8710  0.1819
 5708TP3     H228944   2.814   4.858   0.316 -1.1807  0.6422 -0.1509
 5709TP3      O28945   1.589   3.127   0.313 -0.0846 -0.0751  0.6497
 5709TP3     H128946   1.566   3.210   0.271 -0.9892 -0.4616  0.3365
 5709TP3     H228947   1.540   3.127   0.395 -1.8773 -1.1964 -0.3249
 5710TP3      O28948   0.512   3.203   0.825  0.0803 -0.4801  0.5542
 5710TP3     H128949   0.483   3.282   0.871 -0.9174 -1.0844  1.0079
 5710TP3     H228950   0.558   3.235   0.748  1.0777  0.5482  1.5394
 5711TP3      O28951   1.875   0.069   1.950 -0.0157  0.8460 -0.1105
 5711TP3     H128952   1.903   0.060   2.041 -2.3114 -1.9135  0.4760
 5711TP3     H228953   1.873   0.163   1.934 -1.0558  1.5126  3.2277
 5712TP3      O28954   3.457   3.146   1.579 -0.3973 -0.3992  0.2188
 5712TP3     H128955   3.488   3.235   1.594 -1.7795  0.0373  0.5530
 5712TP3     H228956   3.498   3.120   1.497  0.7735  0.1792  0.6006
 5713TP3      O28957   2.429   4.597   0.366  0.1201  0.1756 -0.3837
 5713TP3     H128958   2.395   4.577   0.279  0.3280  2.2992 -1.0144
 5713TP3     H228959   2.394   4.528   0.422  0.1060 -1.3369 -2.1619
 5714TP3      O28960   0.144   5.250   8.991  0.3748 -0.2555  0.0022
 5714TP3     H128961   0.196   5.318   8.947 -1.4359  1.3176  0.1150
 5714TP3     H228962   0.085   5.299   9.048 -0.2024 -2.0298  0.9989
 5715TP3      O28963   1.142   4.371   1.403 -0.4238  0.2856  0.2251
 5715TP3     H128964   1.074   4.312   1.370  0.3783 -0.8783  0.5931
 5715TP3     H228965   1.189   4.398   1.325 -0.5413  0.1037  0.0887
 5716TP3      O28966   1.116   5.157   9.537 -0.3478  0.1279  0.3490
 5716TP3     H128967   1.085   5.197   9.618  0.6823  0.3362  0.6534
 5716TP3     H228968   1.077   5.069   9.537  0.6939 -0.3637  1.7350
 5717TP3      O28969   1.270   4.230   0.943 -0.7512 -0.2908  0.3702
 5717TP3     H128970   1.274   4.136   0.962  0.0043 -0.1950  0.7221
 5717TP3     H228971   1.247   4.270   1.027 -1.0905 -0.1591  0.2160
 5718TP3      O28972   0.669   1.214   7.356 -0.3124 -0.2655  0.2445
 5718TP3     H128973   0.670   1.178   7.445  0.5680 -0.4994  0.1560
 5718TP3     H228974   0.625   1.298   7.364  2.4607  1.2062  1.5394
 5719TP3      O28975   0.230   2.441   9.948  0.2660 -0.4171 -0.3817
 5719TP3     H128976   0.315   2.418   9.911 -0.1098 -0.0915 -1.5065
 5719TP3     H228977   0.246   2.452  10.041  1.4275 -0.4817 -0.5610
 5720TP3      O28978   1.558   2.875   1.685 -0.4280  0.4470  0.0523
 5720TP3     H128979   1.623   2.937   1.653  1.8858 -1.3632  0.9377
 5720TP3     H228980   1.526   2.913   1.766 -0.4853  1.3563 -0.3887
 5721TP3      O28981   1.253   3.959   0.547  0.2937 -0.6210  0.1883
 5721TP3     H128982   1.163   3.985   0.527 -0.2870 -1.8891  0.9910
 5721TP3     H228983   1.263   3.976   0.641  1.4011  0.8633 -0.1666
 5722TP3      O28984   4.877   5.010   7.951 -0.1743 -0.5195  0.5802
 5722TP3     H128985   4.913   4.921   7.959  0.1319 -0.5192 -0.5159
 5722TP3     H228986   4.786   5.001   7.980  0.0681 -1.0191  1.2186
 5723TP3      O28987   1.889   0.925   0.839 -0.5423  0.4257  0.4242
 5723TP3     H128988   1.960   0.864   0.862 -0.7855  0.1738  0.5218
 5723TP3     H228989   1.829   0.873   0.786 -1.9300 -0.1287  2.3917
 5724TP3      O28990   4.934   2.906   8.542  0.4126 -0.0574 -0.4960
 5724TP3     H128991   4.914   2.865   8.457  1.0483 -2.2743  0.3586
 5724TP3     H228992   4.910   2.998   8.529 -0.0041 -0.4110 -2.9105
 5725TP3      O28993   1.089   4.611   0.643  0.0117 -0.9355 -0.2102
 5725TP3     H128994   1.140   4.670   0.587 -0.3258 -1.0104 -0.6067
 5725TP3     H228995   1.149   4.539   0.662 -0.1546 -1.3840 -1.2724
 5726TP3      O28996   2.026   3.011   3.557 -0.1092  0.7015  0.8619
 5726TP3     H128997   1.930   3.015   3.558 -0.3287 -1.5219 -1.3565
 5726TP3     H228998   2.046   2.922   3.527  2.6701  1.1984  0.9593
 5727TP3      O28999   0.256   1.066   7.954  0.6412  0.3883 -0.1461
 5727TP3     H129000   0.279   1.094   7.866 -0.6214  1.8782 -0.0492
 5727TP3     H229001   0.236   1.148   8.000  0.3441 -0.4333  1.2417
 5728TP3      O29002   4.015   2.252   1.563  0.3744  1.0407  0.0922
 5728TP3     H129003   4.094   2.304   1.580 -0.4351  1.7753  1.7761
 5728TP3     H229004   3.944   2.301   1.603 -0.7552 -0.3130 -0.1621
 5729TP3      O29005   3.168   5.146   1.727  0.0829 -0.3318 -0.0448
 5729TP3     H129006   3.102   5.190   1.672 -0.2132  0.0690  0.6184
 5729TP3     H229007   3.251   5.182   1.698  0.2005 -2.0071 -2.0028
 5730TP3      O29008   0.138   1.848   9.672 -0.1592  0.2454 -0.5200
 5730TP3     H129009   0.210   1.852   9.609  0.2628  0.0857 -0.0523
 5730TP3     H229010   0.104   1.938   9.674  1.3405  0.8397  0.7581
 5731TP3      O29011   2.960   0.603   2.055 -0.4456 -0.1632  0.2203
 5731TP3     H129012   3.046   0.572   2.026 -0.2418 -1.2902  1.9189
 5731TP3     H229013   2.899   0.534   2.028 -0.6397  0.0504  0.1106
 5732TP3      O29014   1.108   1.311   9.790  0.2336  0.5621 -0.2040
 5732TP3     H129015   1.016   1.324   9.815  0.0957  1.0361 -0.9313
 5732TP3     H229016   1.107   1.228   9.741  0.4674 -0.2512  1.1104
 5733TP3      O29017   4.658   2.462   8.678 -0.3237  0.1049 -0.0735
 5733TP3     H129018   4.641   2.391   8.616  2.2857 -1.4684  0.8717
 5733TP3     H229019   4.678   2.538   8.622  0.5319 -0.8956 -1.1797
 5734TP3      O29020   2.392   2.385   8.143 -0.4052 -0.1196  0.6869
 5734TP3     H129021   2.405   2.455   8.078 -2.7061 -0.0675  0.1987
 5734TP3     H229022   2.405   2.428   8.227 -1.3922  0.8400  0.3755
 5735TP3      O29023   5.249   4.711   9.973  0.0672  0.1918  0.0291
 5735TP3     H129024   5.239   4.636   9.914 -0.1928  0.3488 -0.1282
 5735TP3     H229025   5.166   4.758   9.966 -0.5124 -0.5456  1.5910
 5736TP3      O29026   1.657   1.042   0.589 -0.0013 -0.2884 -0.3421
 5736TP3     H129027   1.676   1.076   0.677  1.8797 -0.3733 -0.6738
 5736TP3     H229028   1.562   1.049   0.581 -0.1494  0.3278  1.4495
 5737TP3      O29029   1.670   3.246  10.060 -0.2750  0.5651 -0.3474
 5737TP3     H129030   1.754   3.272  10.097  0.4533 -0.0387 -1.5419
 5737TP3     H229031   1.606   3.276  10.124  0.8667  0.6444  0.7978
 5738TP3      O29032   0.149   1.385   9.554  0.1950 -0.8778 -0.6570
 5738TP3     H129033   0.215   1.450   9.578 -0.7807 -0.3279  0.6953
 5738TP3     H229034   0.131   1.339   9.636 -1.0033 -1.0967 -1.0248
 5739TP3      O29035   4.321   2.756   2.253  0.0960 -0.1656 -0.5962
 5739TP3     H129036   4.374   2.727   2.179  0.0374  0.0325 -0.7167
 5739TP3     H229037   4.266   2.680   2.275  2.3705 -1.3715  1.3381
 5740TP3      O29038   1.750   2.914   2.701  0.6470 -0.1749  0.2784
 5740TP3     H129039   1.656   2.935   2.702 -0.1599 -3.2601 -0.0724
 5740TP3     H229040   1.791   2.992   2.664 -2.0742  0.3653 -2.0059
 5741TP3      O29041   2.303   3.807   2.269  0.5433 -0.4596  0.5207
 5741TP3     H129042   2.321   3.717   2.298 -0.3775 -0.8312 -0.0142
 5741TP3     H229043   2.350   3.814   2.185 -0.1258 -0.7593  0.1111
 5742TP3      O29044   0.344   3.125   3.525 -0.1734 -0.2602 -0.7595
 5742TP3     H129045   0.350   3.211   3.484  0.2871  0.1731  0.1908
 5742TP3     H229046   0.422   3.079   3.494  1.0102  0.6135  0.8329
 5743TP3      O29047   0.234   2.150   1.636  0.0344 -0.3678 -0.7661
 5743TP3     H129048   0.268   2.166   1.548  0.7353  0.2861 -0.3904
 5743TP3     H229049   0.151   2.198   1.639 -1.4852 -2.7292 -2.0007
 5744TP3      O29050   5.137   3.841   2.929  0.0350 -0.4094 -0.2447
 5744TP3     H129051   5.042   3.836   2.929  0.0520 -0.9352 -0.6637
 5744TP3     H229052   5.164   3.786   3.003  0.0010  0.1998  0.2248
 5745TP3      O29053   2.847   3.539   1.887  0.3723 -0.0212 -0.0723
 5745TP3     H129054   2.937   3.526   1.916  0.6392  1.5148 -0.1450
 5745TP3     H229055   2.835   3.476   1.816  0.9964 -1.0331  0.6932
 5746TP3      O29056   0.118   4.869   1.266 -0.4360 -0.0835  0.0221
 5746TP3     H129057   0.178   4.822   1.209  1.4607  0.3539  1.5356
 5746TP3     H229058   0.110   4.814   1.344  1.0194  1.5010  1.3879
 5747TP3      O29059   5.261   0.288   9.522  0.1924  0.5660  0.1486
 5747TP3     H129060   5.213   0.316   9.444  0.9732 -0.0678 -0.5763
 5747TP3     H229061   5.315   0.215   9.493  0.2308  0.0748  1.3742
 5748TP3      O29062   0.457   0.908   2.063 -0.5708  0.7090 -0.1666
 5748TP3     H129063   0.383   0.849   2.062 -0.5705  0.5033  3.0359
 5748TP3     H229064   0.534   0.851   2.071 -0.1260  1.0031 -1.8340
 5749TP3      O29065   0.927   1.254   1.782  0.1619  0.4743 -0.2702
 5749TP3     H129066   0.968   1.336   1.810  0.9183 -0.1021  0.3183
 5749TP3     H229067   0.905   1.270   1.690  0.0842  1.4216 -0.1045
 5750TP3      O29068   1.320   2.369   2.584 -0.0392  0.2998  0.2415
 5750TP3     H129069   1.288   2.297   2.639  0.0767  1.4177  1.8237
 5750TP3     H229070   1.250   2.381   2.519 -0.3460 -0.8175  0.3283
 5751TP3      O29071   4.219   1.884   3.621 -0.6551  0.2589  0.0003
 5751TP3     H129072   4.130   1.883   3.586 -1.7476 -1.1086  2.5932
 5751TP3     H229073   4.242   1.977   3.625 -2.1939  0.6676 -0.1375
 5752TP3      O29074   0.859   1.126   8.979  0.2368  0.1711  0.3071
 5752TP3     H129075   0.830   1.217   8.989 -0.2201  0.0929 -0.2692
 5752TP3     H229076   0.823   1.099   8.895 -0.8863 -1.0137  1.1380
 5753TP3      O29077   3.093   1.057   1.755 -0.0647 -0.3559 -0.6596
 5753TP3     H129078   3.088   0.972   1.797  0.2847  0.1468  0.4256
 5753TP3     H229079   3.087   1.038   1.661 -1.1663 -1.4632 -0.3807
 5754TP3      O29080   0.579   3.090   1.495 -0.6213  0.3357  0.2647
 5754TP3     H129081   0.595   2.996   1.496 -2.4253 -0.0529 -1.1926
 5754TP3     H229082   0.596   3.118   1.585 -0.8032 -1.5201  0.9257
 5755TP3      O29083   3.553   0.351   1.417 -0.4449 -0.1593 -0.3249
 5755TP3     H129084   3.549   0.417   1.347  1.1588 -0.5861 -0.8605
 5755TP3     H229085   3.498   0.387   1.487  1.0509  2.2119 -0.2295
 5756TP3      O29086   1.792   0.433   3.647 -0.5166 -0.0812 -0.1196
 5756TP3     H129087   1.723   0.386   3.692  0.2180 -1.0297  0.0316
 5756TP3     H229088   1.868   0.376   3.651  0.1175  0.6724 -0.8252
 5757TP3      O29089   1.731   1.057   9.548 -0.0206  0.0458 -0.4494
 5757TP3     H129090   1.645   1.038   9.587 -0.6267  0.3304 -1.5834
 5757TP3     H229091   1.794   1.017   9.607 -0.9406 -0.2310  0.3751
 5758TP3      O29092   2.594   5.102   2.200 -0.0838 -0.0368  0.8034
 5758TP3     H129093   2.557   5.146   2.123 -3.6990 -0.9808  1.8177
 5758TP3     H229094   2.601   5.010   2.175 -1.0977 -0.3163  1.4922
 5759TP3      O29095   0.823   4.363   0.221 -0.5927  0.2663 -0.3212
 5759TP3     H129096   0.772   4.368   0.301  1.1347 -2.0011  1.0713
 5759TP3     H229097   0.850   4.271   0.216  1.5500  0.9030 -2.0823
 5760TP3      O29098   1.420   3.247   0.917 -1.0870 -0.5226 -0.1534
 5760TP3     H129099   1.364   3.302   0.862 -0.5916  0.3819  0.2240
 5760TP3     H229100   1.358   3.190   0.963 -1.9250  1.5726  1.5192
 5761TP3      O29101   2.712   3.983   1.968  0.4185 -0.4141  0.5121
 5761TP3     H129102   2.680   4.073   1.962  1.8433  0.0829 -0.2625
 5761TP3     H229103   2.682   3.952   2.053  0.0342  0.8443  0.8573
 5762TP3      O29104   4.745   1.020   1.924  0.1400  0.3470 -0.2389
 5762TP3     H129105   4.815   1.083   1.907 -0.6565  0.7479 -2.2918
 5762TP3     H229106   4.671   1.074   1.954  0.6308 -0.0633  1.8418
 5763TP3      O29107   4.317   5.203   3.560 -0.2636  0.9342 -0.0305
 5763TP3     H129108   4.222   5.204   3.546 -0.1002  1.7783 -1.1683
 5763TP3     H229109   4.353   5.256   3.489  1.5163 -3.5567 -2.9296
 5764TP3      O29110   3.920   1.380   7.140 -0.4460 -0.4709 -0.1274
 5764TP3     H129111   3.927   1.325   7.219  0.5515  1.2236  1.0375
 5764TP3     H229112   3.944   1.322   7.068 -0.1088 -1.7361  0.9640
 5765TP3      O29113   1.438   4.217   0.622  0.6777  0.0329 -0.4544
 5765TP3     H129114   1.440   4.129   0.661  1.5071  0.4371  0.4559
 5765TP3     H229115   1.507   4.265   0.668 -0.1401  1.3314 -0.5388
 5766TP3      O29116   1.712   5.096   1.698 -0.9814  0.0186 -0.0025
 5766TP3     H129117   1.651   5.129   1.632 -1.0439  1.2606  0.6459
 5766TP3     H229118   1.659   5.087   1.777 -0.8755 -1.3248 -0.0749
 5767TP3      O29119   4.126   3.219   0.517 -0.2850 -0.7151  0.6498
 5767TP3     H129120   4.168   3.304   0.514 -0.5001 -0.6371 -1.2167
 5767TP3     H229121   4.106   3.198   0.426 -4.7160 -0.5202  1.3372
 5768TP3      O29122   1.747   2.406   8.287 -0.2316  0.0927 -0.0827
 5768TP3     H129123   1.800   2.340   8.242 -2.6965 -0.5769 -2.2113
 5768TP3     H229124   1.681   2.355   8.333  0.9814  0.8985  2.8105
 5769TP3      O29125   2.053   1.234   2.400 -0.2076 -0.3221  0.0332
 5769TP3     H129126   2.079   1.198   2.484 -1.0178  0.6802  0.7351
 5769TP3     H229127   2.126   1.215   2.342  0.7605 -0.2307  1.1941
 5770TP3      O29128   0.954   0.074   9.107  0.4411  0.5030 -0.1321
 5770TP3     H129129   1.003   0.100   9.029 -0.9888 -0.1819 -1.3086
 5770TP3     H229130   0.986   0.132   9.176  1.0497  1.8047 -1.4523
 5771TP3      O29131   1.808   4.840   2.132  0.2969  0.2912  0.3176
 5771TP3     H129132   1.818   4.931   2.161  0.5634  0.2263  0.4307
 5771TP3     H229133   1.830   4.788   2.210  3.2318  0.0509 -0.5801
 5772TP3      O29134   4.336   3.225   9.127  0.0864 -1.0258  0.0208
 5772TP3     H129135   4.270   3.287   9.159  1.0674 -0.5702  1.2516
 5772TP3     H229136   4.337   3.155   9.192  1.4197 -0.5704  0.5422
 5773TP3      O29137   1.276   0.319   3.128  0.6246 -0.0830 -0.1016
 5773TP3     H129138   1.342   0.348   3.065 -0.2093 -0.0147 -0.9735
 5773TP3     H229139   1.304   0.356   3.212  1.4187  0.3503 -0.5508
 5774TP3      O29140   0.111   2.548   3.847 -0.9187  0.6299  0.3307
 5774TP3     H129141   0.038   2.598   3.812 -0.8035  0.4012 -0.2526
 5774TP3     H229142   0.109   2.466   3.798  0.9521  1.4022 -1.1744
 5775TP3      O29143   4.399   0.090   3.392 -0.6514 -0.2792  0.4902
 5775TP3     H129144   4.413   0.134   3.308  0.2629 -0.1418  0.7013
 5775TP3     H229145   4.376   0.160   3.453 -0.7159 -0.2974  0.4867
 5776TP3      O29146   0.469   4.747   1.036 -0.0998 -0.0479 -0.5699
 5776TP3     H129147   0.504   4.689   0.968  0.3628  0.7388 -1.0207
 5776TP3     H229148   0.387   4.705   1.064  0.5046 -1.1937 -0.4834
 5777TP3      O29149   4.964   3.435   7.272  0.1401 -0.1806 -0.0386
 5777TP3     H129150   4.908   3.402   7.202 -0.0469 -0.0992  0.0707
 5777TP3     H229151   4.913   3.419   7.352  0.4856 -0.5688  0.1110
 5778TP3      O29152   4.426   4.110   0.763  0.2641 -0.1504 -0.2125
 5778TP3     H129153   4.364   4.131   0.833 -0.0308  0.0512 -0.5301
 5778TP3     H229154   4.503   4.075   0.808  0.6037  1.1932  0.3043
 5779TP3      O29155   2.530   3.580   0.472 -0.5051 -0.7319  0.0893
 5779TP3     H129156   2.517   3.489   0.444 -1.3504 -0.6740  0.2758
 5779TP3     H229157   2.546   3.628   0.390 -1.9358 -0.7402 -0.2186
 5780TP3      O29158   4.621   1.626   9.518 -0.8811 -0.4393 -0.3719
 5780TP3     H129159   4.645   1.710   9.557 -3.8251 -0.5539  2.0904
 5780TP3     H229160   4.688   1.565   9.548 -0.5020  0.4254  0.6061
 5781TP3      O29161   0.833   0.604   3.441 -0.2984  1.0754 -0.1130
 5781TP3     H129162   0.885   0.681   3.419 -1.2621  1.2698 -1.9065
 5781TP3     H229163   0.888   0.555   3.503  0.8459  2.5776  0.1164
 5782TP3      O29164   2.298   3.282   2.057  0.3670 -0.4911 -0.2649
 5782TP3     H129165   2.305   3.376   2.039 -1.6378 -0.2949 -0.2254
 5782TP3     H229166   2.356   3.268   2.132 -0.6450  1.0895  0.8856
 5783TP3      O29167   0.814   3.456   8.579  0.3878 -0.3977 -0.0759
 5783TP3     H129168   0.751   3.462   8.651 -1.7501  0.1903 -1.8803
 5783TP3     H229169   0.772   3.397   8.516  1.3286  0.5332 -1.6253
 5784TP3      O29170   2.939   1.490   2.861 -0.2622 -0.0203 -0.1365
 5784TP3     H129171   2.954   1.537   2.943  0.0356  0.0663 -0.2370
 5784TP3     H229172   2.898   1.555   2.803 -0.2080  0.0036 -0.1484
 5785TP3      O29173   4.022   4.796   3.062 -0.5656  0.1620  0.3423
 5785TP3     H129174   4.002   4.748   3.143 -1.6310  0.9512  0.5735
 5785TP3     H229175   4.019   4.888   3.088 -0.9883  0.4241 -0.6087
 5786TP3      O29176   3.751   4.334   8.827 -0.5450  0.1647  0.1571
 5786TP3     H129177   3.676   4.384   8.795 -1.0009 -0.6184 -0.0269
 5786TP3     H229178   3.727   4.243   8.811  1.4052 -0.0410 -2.0601
 5787TP3      O29179   3.550   1.392   1.604 -0.6746 -0.4526  0.0244
 5787TP3     H129180   3.574   1.357   1.689  0.7115 -1.3202 -0.6989
 5787TP3     H229181   3.629   1.385   1.551 -0.1945  3.8667 -0.1932
 5788TP3      O29182   0.422   4.043   1.049 -0.5467 -0.2464  0.3183
 5788TP3     H129183   0.486   4.109   1.076 -0.2713 -0.8654  1.2528
 5788TP3     H229184   0.337   4.085   1.064 -0.4037  0.9828 -1.9658
 5789TP3      O29185   3.689   2.500   2.438 -0.2032  0.3001  0.3310
 5789TP3     H129186   3.757   2.562   2.413 -1.0509  1.2484  0.2933
 5789TP3     H229187   3.726   2.414   2.419  1.0159  0.7838  0.4228
 5790TP3      O29188   0.442   3.882   0.680 -0.0565 -0.8185  0.4279
 5790TP3     H129189   0.492   3.939   0.621  0.3631 -0.3288  1.2414
 5790TP3     H229190   0.352   3.915   0.673  0.1669 -0.0952  0.8239
 5791TP3      O29191   1.949   0.323   1.931  0.3944  0.1371 -0.1155
 5791TP3     H129192   2.036   0.324   1.971  0.3548 -0.5729  0.0094
 5791TP3     H229193   1.918   0.413   1.938  0.5756  0.1314  1.0634
 5792TP3      O29194   1.256   0.426   8.427 -0.2507  0.1194  0.2269
 5792TP3     H129195   1.208   0.355   8.470  1.2264 -0.8665  0.3266
 5792TP3     H229196   1.209   0.506   8.452  0.0063 -0.4857  2.9285
 5793TP3      O29197   3.423   4.708   1.432  0.1976  0.3925  0.0470
 5793TP3     H129198   3.418   4.623   1.390 -2.8190 -0.0584  1.0391
 5793TP3     H229199   3.387   4.769   1.368  0.0222  0.5005  0.2463
 5794TP3      O29200   3.419   3.557   3.082 -0.5986  0.0343  0.1801
 5794TP3     H129201   3.503   3.597   3.107 -1.0720  0.3187  1.4024
 5794TP3     H229202   3.359   3.631   3.073 -0.8161 -0.1972 -0.2768
 5795TP3      O29203   5.238   3.785   0.030  0.4487  0.2109 -0.1421
 5795TP3     H129204   5.209   3.859   0.083  1.2130  0.9935 -0.7859
 5795TP3     H229205   5.203   3.708   0.075 -0.7508  0.9768  0.2968
 5796TP3      O29206   2.110   4.625   7.790 -0.0734  0.8718  0.2500
 5796TP3     H129207   2.092   4.532   7.798 -0.7064  1.0521  1.0714
 5796TP3     H229208   2.138   4.637   7.699 -0.4849 -0.0316 -0.0002
 5797TP3      O29209   1.916   4.218   9.144 -0.3792  0.2761 -0.0597
 5797TP3     H129210   1.948   4.128   9.136  2.7334  1.3310 -0.7383
 5797TP3     H229211   1.821   4.209   9.143 -0.1958 -2.9426 -0.7126
 5798TP3      O29212   1.717   4.251   1.423 -0.2007  0.2411  0.0794
 5798TP3     H129213   1.629   4.289   1.427 -0.0193  0.7217 -0.3209
 5798TP3     H229214   1.702   4.157   1.412 -0.6623  0.2971  0.2049
 5799TP3      O29215   4.451   0.753   2.074 -0.3043  0.3761 -0.1774
 5799TP3     H129216   4.529   0.701   2.058 -0.7183 -0.4630  0.4857
 5799TP3     H229217   4.393   0.695   2.123 -1.2695  1.0464 -0.4967
 5800TP3      O29218   4.458   1.104   0.476 -0.8588  0.4444 -0.0652
 5800TP3     H129219   4.449   1.059   0.560 -2.5560 -0.0604 -0.4727
 5800TP3     H229220   4.413   1.188   0.488  0.0122  0.9243 -0.0971
 5801TP3      O29221   1.152   3.090   2.307 -0.4735 -0.4864 -0.2936
 5801TP3     H129222   1.209   3.084   2.384 -1.0205 -1.5088  0.0590
 5801TP3     H229223   1.080   3.029   2.326 -1.9587  1.1370 -0.5127
 5802TP3      O29224   4.439   1.115   8.971  0.0542  0.1655 -0.3781
 5802TP3     H129225   4.384   1.193   8.967 -2.4927 -1.1557  3.2053
 5802TP3     H229226   4.497   1.130   9.046 -0.6540 -1.3559  0.5368
 5803TP3      O29227   4.954   0.503   8.448 -0.3435 -0.0730  0.4931
 5803TP3     H129228   4.991   0.588   8.426 -2.1641  0.4707 -0.6897
 5803TP3     H229229   5.027   0.441   8.436  1.2393  1.3543  2.2144
 5804TP3      O29230   2.598   1.190   1.811  0.1880  0.0684 -0.3425
 5804TP3     H129231   2.692   1.194   1.824  0.3501  0.3425 -1.4738
 5804TP3     H229232   2.572   1.104   1.844  1.0976 -0.7078 -1.5859
 5805TP3      O29233   3.810   3.678   1.879  0.3666 -0.0926 -0.5270
 5805TP3     H129234   3.780   3.745   1.819  0.4994  0.6463  0.2157
 5805TP3     H229235   3.739   3.670   1.944  0.0535 -1.1453 -0.9712
 5806TP3      O29236   0.335   2.663   8.536 -0.4322  0.4029 -0.1488
 5806TP3     H129237   0.425   2.631   8.528 -0.8276 -0.9389  0.5748
 5806TP3     H229238   0.333   2.705   8.622 -0.8362 -0.7736  0.4354
 5807TP3      O29239   5.261   2.240   1.658  0.3156 -0.2443  0.0279
 5807TP3     H129240   5.216   2.322   1.636 -0.0005 -0.4567 -0.1158
 5807TP3     H229241   5.228   2.217   1.744  0.7283  0.0050  0.2551
 5808TP3      O29242   2.738   4.825   1.263 -0.1818 -0.1678 -0.3792
 5808TP3     H129243   2.815   4.871   1.296 -0.7174  0.7276 -0.3505
 5808TP3     H229244   2.669   4.846   1.326 -0.6557 -0.2813 -0.8559
 5809TP3      O29245   0.593   1.441   8.293  0.1084 -0.4635 -0.0963
 5809TP3     H129246   0.652   1.478   8.359 -0.7915 -0.9826  1.0272
 5809TP3     H229247   0.514   1.418   8.341 -1.1686  0.5044 -1.6281
 5810TP3      O29248   2.850   2.875   1.669  0.1671  0.4688  0.0816
 5810TP3     H129249   2.856   2.812   1.741 -2.2200 -0.6317 -0.5704
 5810TP3     H229250   2.894   2.833   1.596 -1.2801 -0.4589 -0.3047
 5811TP3      O29251   3.543   2.626  10.035  0.3811  0.3842 -0.1304
 5811TP3     H129252   3.608   2.584  10.091 -0.3970 -0.2392  0.3277
 5811TP3     H229253   3.515   2.703  10.084  1.4942  1.2391 -0.7807
 5812TP3      O29254   2.880   2.578   3.319 -0.1324 -0.1245 -0.1585
 5812TP3     H129255   2.874   2.519   3.395 -2.5406  0.3496  0.1177
 5812TP3     H229256   2.941   2.646   3.347 -0.1631 -0.5208  0.9586
 5813TP3      O29257   5.049   2.375   1.923 -0.6643  0.5440 -0.2038
 5813TP3     H129258   4.997   2.402   1.999 -1.8804 -0.5612 -0.6116
 5813TP3     H229259   4.987   2.377   1.850  0.0238 -0.2217 -0.8222
 5814TP3      O29260   0.411   1.059  10.029 -0.0393  0.4131  0.1251
 5814TP3     H129261   0.470   1.031   9.959  0.8554 -2.1010  1.7621
 5814TP3     H229262   0.435   1.150  10.045  0.3896  0.7606 -2.1140
 5815TP3      O29263   4.255   3.281   2.056 -0.3973  0.1109  0.5337
 5815TP3     H129264   4.301   3.360   2.028 -0.1285  0.1036  0.9530
 5815TP3     H229265   4.256   3.225   1.979  2.5968 -0.9612  1.2285
 5816TP3      O29266   2.826   2.366   3.026  0.1846  0.2415 -0.4538
 5816TP3     H129267   2.745   2.388   2.979 -0.1089 -2.2860 -1.2693
 5816TP3     H229268   2.895   2.381   2.963  0.6223  3.7170  0.6570
 5817TP3      O29269   2.208   3.965   2.514  0.5512 -0.1042  0.9219
 5817TP3     H129270   2.264   3.918   2.577  1.6721 -0.9228 -0.6187
 5817TP3     H229271   2.233   3.929   2.429 -3.3115 -1.5607  0.1879
 5818TP3      O29272   1.729   1.761   1.448 -0.4067  0.2335 -0.1191
 5818TP3     H129273   1.757   1.754   1.357  0.5644 -0.2127  0.2105
 5818TP3     H229274   1.641   1.800   1.442  0.1347  1.3721 -1.1809
 5819TP3      O29275   5.227   2.870   0.967  0.6255  0.1615  0.4923
 5819TP3     H129276   5.213   2.914   0.884  0.4248 -1.2390 -0.2484
 5819TP3     H229277   5.316   2.833   0.960 -0.5043 -2.6682 -0.4717
 5820TP3      O29278   1.830   0.149   8.106 -0.1615  0.0460  0.5249
 5820TP3     H129279   1.793   0.083   8.164  1.1902 -1.3585 -0.1409
 5820TP3     H229280   1.891   0.198   8.161 -1.8861  1.4824  1.2765
 5821TP3      O29281   2.557   0.780   0.221  0.1174  0.5441  0.2049
 5821TP3     H129282   2.601   0.850   0.172 -1.5976  2.1211  0.8124
 5821TP3     H229283   2.566   0.805   0.313 -1.0977  0.3453  0.3992
 5822TP3      O29284   3.802   2.779   0.889 -0.8365 -0.5728 -0.3916
 5822TP3     H129285   3.845   2.718   0.949 -0.3817  0.0475 -0.0778
 5822TP3     H229286   3.863   2.852   0.881 -1.6269  0.1138 -0.2964
 5823TP3      O29287   4.453   3.433   0.893 -0.1210  0.5204  0.0133
 5823TP3     H129288   4.422   3.383   0.969  1.3050 -0.4190  0.0025
 5823TP3     H229289   4.446   3.524   0.921 -0.1413  0.2167  1.0760
 5824TP3      O29290   0.410   4.010   3.435 -0.1929  0.0235 -0.2721
 5824TP3     H129291   0.477   4.051   3.381 -1.8101  0.3874 -2.1139
 5824TP3     H229292   0.449   3.927   3.463  1.4096  0.7187 -0.3148
 5825TP3      O29293   0.553   2.557   0.510  0.2691 -0.2002  0.2958
 5825TP3     H129294   0.547   2.500   0.586  0.0672 -1.9941 -1.0139
 5825TP3     H229295   0.513   2.508   0.439  1.4658  0.9334 -1.2440
 5826TP3      O29296   5.009   4.722   0.581 -0.5236 -0.2120 -0.7091
 5826TP3     H129297   4.990   4.709   0.488 -0.4931 -3.0179 -0.4172
 5826TP3     H229298   4.943   4.785   0.610 -0.9188  0.2695 -2.4981
 5827TP3      O29299   2.245   3.088   2.477  0.4987  0.2287  0.1296
 5827TP3     H129300   2.278   3.176   2.495 -1.8092  1.3406 -0.6386
 5827TP3     H229301   2.216   3.056   2.562 -0.2032  0.9304  0.1701
 5828TP3      O29302   1.083   3.123   8.995 -0.1596 -0.4220 -0.8103
 5828TP3     H129303   1.140   3.142   9.069  2.1594 -0.1830 -2.5440
 5828TP3     H229304   1.045   3.208   8.972  0.5771 -0.1465 -1.0243
 5829TP3      O29305   0.073   0.743   0.168 -0.1822  0.4458  0.1382
 5829TP3     H129306  -0.009   0.723   0.123 -0.3124  0.5646  0.3165
 5829TP3     H229307   0.062   0.834   0.198 -0.3815  0.1574  0.9934
 5830TP3      O29308   4.590   0.660   1.468 -0.3839 -0.0508  0.1352
 5830TP3     H129309   4.554   0.579   1.433 -0.1873 -0.2969  0.4990
 5830TP3     H229310   4.665   0.632   1.521 -0.3005  0.3691  0.2405
 5831TP3      O29311   0.364   0.160   8.917 -0.3116  0.4910  0.1302
 5831TP3     H129312   0.399   0.216   8.986  1.0898  0.0424 -0.1987
 5831TP3     H229313   0.422   0.172   8.843 -0.4500 -0.7669 -0.2158
 5832TP3      O29314   1.901   0.101   2.211 -0.1181  0.4030 -0.2103
 5832TP3     H129315   1.835   0.153   2.257 -0.1837  0.9888 -0.9400
 5832TP3     H229316   1.981   0.113   2.263 -0.7451 -1.0042  1.1633
 5833TP3      O29317   5.169   3.640   9.849 -0.6540  0.5130 -0.4387
 5833TP3     H129318   5.134   3.557   9.817  1.7871 -1.2237  1.0419
 5833TP3     H229319   5.236   3.663   9.785  1.5566 -0.9539  1.1987
 5834TP3      O29320   3.371   2.876   0.733  0.6086 -0.4810  0.1535
 5834TP3     H129321   3.394   2.814   0.664 -1.3066 -1.5257  0.3738
 5834TP3     H229322   3.454   2.899   0.773  1.6208 -0.9423 -1.5744
 5835TP3      O29323   0.821   3.786   0.563  0.3901  0.7541  0.1796
 5835TP3     H129324   0.885   3.775   0.633 -0.7912  0.2853  1.2250
 5835TP3     H229325   0.765   3.858   0.593 -1.7941 -1.2023  1.0656
 5836TP3      O29326   4.385   0.719   0.810 -0.2072 -0.0264 -0.3581
 5836TP3     H129327   4.431   0.750   0.732  1.2457 -0.9421  0.0965
 5836TP3     H229328   4.365   0.627   0.791  0.3419 -0.3150  0.4276
 5837TP3      O29329   3.511   1.069   2.746  0.4074  0.1405 -0.2111
 5837TP3     H129330   3.427   1.079   2.701 -0.6448 -2.3201  1.0097
 5837TP3     H229331   3.575   1.059   2.676 -0.2315  2.1643 -1.1616
 5838TP3      O29332   0.515   3.404   2.325  0.6371 -0.0380 -0.1545
 5838TP3     H129333   0.607   3.423   2.339  0.9055 -1.2510 -0.1608
 5838TP3     H229334   0.514   3.318   2.282 -0.3863  1.2094 -2.8332
 5839TP3      O29335   1.132   1.218   3.109  0.4744  0.6012 -0.2082
 5839TP3     H129336   1.085   1.139   3.133  1.4498  0.5918  1.8372
 5839TP3     H229337   1.224   1.193   3.111  0.7826  1.7263  0.2146
 5840TP3      O29338   0.635   4.029   3.307  0.2427  0.3244 -0.0282
 5840TP3     H129339   0.675   4.105   3.265  0.9569  0.0639  0.1669
 5840TP3     H229340   0.701   3.961   3.301 -0.2825 -0.2008  0.0607
 5841TP3      O29341   4.189   4.702   3.786 -0.6841 -0.4001 -0.0280
 5841TP3     H129342   4.111   4.741   3.748  1.4167  1.5638 -2.7171
 5841TP3     H229343   4.177   4.608   3.773 -2.5603 -0.1599 -0.3503
 5842TP3      O29344   0.816   3.384   8.073  0.1571 -0.1156  0.4841
 5842TP3     H129345   0.846   3.297   8.045  0.7472  0.5163 -0.8961
 5842TP3     H229346   0.896   3.436   8.078 -0.1353  0.2413  1.8009
 5843TP3      O29347   0.212   1.633   2.690  0.0313  0.5924 -0.1675
 5843TP3     H129348   0.255   1.611   2.773  0.7440 -0.5612 -0.8091
 5843TP3     H229349   0.276   1.686   2.643 -0.4392  1.3884  0.0785
 5844TP3      O29350   0.719   0.138   2.641  0.2745  0.3471  0.5105
 5844TP3     H129351   0.641   0.119   2.693  0.0585  1.2318  0.5365
 5844TP3     H229352   0.791   0.137   2.704  0.3937 -1.1450  0.3710
 5845TP3      O29353   0.061   4.796   8.385  0.5709  0.0346 -0.3384
 5845TP3     H129354   0.106   4.880   8.390 -2.8711  2.1886 -1.7622
 5845TP3     H229355   0.027   4.782   8.474  3.7905 -1.7159  0.8088
 5846TP3      O29356   1.405   4.608   8.363  0.0621 -0.0579  0.1648
 5846TP3     H129357   1.377   4.578   8.277  3.9929 -2.7189 -0.4813
 5846TP3     H229358   1.462   4.682   8.345 -0.3801  0.4024  0.6437
 5847TP3      O29359   1.597   4.279   3.294  0.7098  0.3543  0.3862
 5847TP3     H129360   1.614   4.192   3.331 -1.4228 -0.5813 -0.7095
 5847TP3     H229361   1.539   4.321   3.358  4.8365  2.7579  3.0755
 5848TP3      O29362   3.136   0.174   2.671  0.2919  0.0955 -0.0312
 5848TP3     H129363   3.150   0.220   2.754  1.7781 -0.8500  0.2729
 5848TP3     H229364   3.207   0.204   2.615  1.3601 -1.8590  0.2056
 5849TP3      O29365   0.102   4.656   2.934 -0.0889 -0.3227 -0.6855
 5849TP3     H129366   0.097   4.704   3.017  2.9083  1.0176 -1.1588
 5849TP3     H229367   0.096   4.564   2.960  1.8803  0.0127  1.2148
 5850TP3      O29368   5.271   4.825   1.580 -0.2696 -0.3178  0.4937
 5850TP3     H129369   5.309   4.899   1.533 -1.3133  0.1823  0.4225
 5850TP3     H229370   5.309   4.831   1.668 -1.4799  1.2097  0.9487
 5851TP3      O29371   3.773   4.783   1.750  0.3938  0.0075  0.1476
 5851TP3     H129372   3.705   4.793   1.816  0.3816  0.0843  0.1242
 5851TP3     H229373   3.738   4.828   1.673 -0.5467 -1.9568 -0.6240
 5852TP3      O29374   2.006   3.615   9.838 -0.3578 -0.0153 -0.0585
 5852TP3     H129375   1.911   3.622   9.826 -0.7384 -1.1389  1.8027
 5852TP3     H229376   2.034   3.555   9.770 -0.7994  1.0853 -1.2512
 5853TP3      O29377   2.640   0.409   1.004 -0.0222  0.6643  0.2765
 5853TP3     H129378   2.596   0.462   1.070 -1.2277  1.3859 -1.0578
 5853TP3     H229379   2.570   0.382   0.944  0.9293 -0.5314 -0.3559
 5854TP3      O29380   1.090   2.406   1.064  0.0753  0.0176  0.0930
 5854TP3     H129381   1.177   2.369   1.048  0.6506  1.2643  0.1859
 5854TP3     H229382   1.067   2.450   0.983 -2.0379 -3.1229 -1.1924
 5855TP3      O29383   4.625   1.237   0.170  0.2870  0.8792 -0.1675
 5855TP3     H129384   4.716   1.249   0.142  0.5934 -0.5604  0.1584
 5855TP3     H229385   4.609   1.311   0.229  0.8323  1.8341 -1.1633
 5856TP3      O29386   0.951   4.795   8.305 -0.7178 -0.4811  0.1581
 5856TP3     H129387   1.011   4.858   8.265  0.6398 -2.2550 -0.7460
 5856TP3     H229388   0.882   4.782   8.240 -2.0879  1.4308  1.1282
 5857TP3      O29389   4.955   1.614   1.412  0.5064 -0.1202  0.3149
 5857TP3     H129390   4.946   1.599   1.506 -2.7409  1.2793  0.3578
 5857TP3     H229391   4.980   1.707   1.406  0.1444 -0.0567 -0.2055
 5858TP3      O29392   0.209   1.047   9.515  0.0161 -0.2435 -0.0315
 5858TP3     H129393   0.196   1.084   9.428  0.8558  1.9610  0.7234
 5858TP3     H229394   0.252   0.963   9.499 -2.3538 -1.2402 -1.8157
 5859TP3      O29395   3.917   3.687   0.580 -0.1450 -0.0201  0.0815
 5859TP3     H129396   3.987   3.739   0.539  0.2355  0.5019  1.3369
 5859TP3     H229397   3.900   3.617   0.518 -1.0159  1.8430 -1.9391
 5860TP3      O29398   2.553   1.359   0.572  0.0882  0.3791 -0.3050
 5860TP3     H129399   2.537   1.304   0.495  0.2990  0.6138 -0.5201
 5860TP3     H229400   2.522   1.307   0.646 -1.9808  0.9337 -0.7256
 5861TP3      O29401   3.920   1.712   1.087 -0.0205  0.2346  0.3723
 5861TP3     H129402   3.965   1.631   1.110 -2.3953 -0.4957  3.0524
 5861TP3     H229403   3.869   1.690   1.009  2.1417  0.3642 -1.1803
 5862TP3      O29404   1.307   3.536   0.220  0.4183 -0.5643 -0.1406
 5862TP3     H129405   1.322   3.605   0.285 -0.0530  0.4865 -1.1062
 5862TP3     H229406   1.282   3.583   0.141 -0.3291 -1.8841 -0.7216
 5863TP3      O29407   2.476   0.176   2.176  0.4808 -0.5267  0.0903
 5863TP3     H129408   2.500   0.169   2.084  0.5377 -1.3456  0.1581
 5863TP3     H229409   2.507   0.094   2.215 -1.3222 -1.0887  0.4412
 5864TP3      O29410   5.131   1.281   8.188  0.1552  0.2339 -0.2030
 5864TP3     H129411   5.133   1.354   8.250 -1.3351  0.1342 -0.0028
 5864TP3     H229412   5.106   1.206   8.241  2.6556 -0.6911 -0.2053
 5865TP3      O29413   2.178   3.544   3.072 -0.0877  0.7162 -0.1497
 5865TP3     H129414   2.153   3.547   3.164 -0.0704  0.4856 -0.1373
 5865TP3     H229415   2.095   3.546   3.024 -0.0858  1.1379 -0.1368
 5866TP3      O29416   2.983   5.019   7.963 -0.2674 -0.0469 -0.1228
 5866TP3     H129417   3.048   5.082   7.994  2.6405 -1.6423 -2.4185
 5866TP3     H229418   2.944   5.061   7.886 -1.0612  0.3832  0.4997
 5867TP3      O29419   4.666   3.511   3.727 -0.4979 -0.3632 -0.1377
 5867TP3     H129420   4.675   3.486   3.635  0.9326 -2.8993  0.5933
 5867TP3     H229421   4.621   3.437   3.768  1.2662 -0.5325  1.6441
 5868TP3      O29422   2.526   0.997   3.378  0.4076  0.2552 -0.8255
 5868TP3     H129423   2.432   0.986   3.362  0.4063  0.3182 -0.8613
 5868TP3     H229424   2.543   1.090   3.363  0.1324  0.6375  0.9989
 5869TP3      O29425   4.924   4.452   3.540 -0.4886 -0.5187  0.7290
 5869TP3     H129426   4.836   4.455   3.577 -0.9298  0.8066 -0.3175
 5869TP3     H229427   4.924   4.523   3.476  0.7642 -1.6530 -0.5827
 5870TP3      O29428   5.090   4.672   9.520  0.7701  0.1619 -0.5607
 5870TP3     H129429   5.063   4.734   9.452  1.7767 -0.0319 -1.1484
 5870TP3     H229430   5.118   4.594   9.472 -1.7281 -1.3126  0.1987
 5871TP3      O29431   4.835   4.858   8.987  0.5472 -0.2048  0.1918
 5871TP3     H129432   4.781   4.847   8.909 -0.6694 -1.3724  1.1494
 5871TP3     H229433   4.778   4.900   9.051  0.7387 -1.4492  1.2206
 5872TP3      O29434   4.465   4.777   2.696 -0.1910 -0.5028  0.7677
 5872TP3     H129435   4.401   4.706   2.690 -0.2877 -0.4073  0.6671
 5872TP3     H229436   4.448   4.832   2.619  0.6243 -0.9841  0.2353
 5873TP3      O29437   2.195   4.122   7.765 -0.3269 -0.2403 -0.6221
 5873TP3     H129438   2.256   4.124   7.692  0.6780  0.9655  0.2274
 5873TP3     H229439   2.185   4.029   7.785 -0.4438 -0.5753 -2.1263
 5874TP3      O29440   5.199   3.277   2.330  0.4433  0.1772 -0.3773
 5874TP3     H129441   5.190   3.183   2.315 -0.0810 -0.1071  1.4008
 5874TP3     H229442   5.292   3.295   2.319  0.7715 -0.8358  0.5760
 5875TP3      O29443   3.375   3.931   3.566 -0.2754 -0.3447  0.0446
 5875TP3     H129444   3.386   3.840   3.595  0.3297 -0.1985  0.2889
 5875TP3     H229445   3.311   3.925   3.495 -0.8795 -0.8510  0.6222
 5876TP3      O29446   0.608   2.849   1.181 -0.1851 -0.5076 -0.7345
 5876TP3     H129447   0.677   2.788   1.154 -0.4845 -1.6135  0.8766
 5876TP3     H229448   0.642   2.936   1.159  2.9952 -0.7468  2.3744
 5877TP3      O29449   0.616   0.564   1.653 -0.0076  0.7342 -0.3339
 5877TP3     H129450   0.556   0.636   1.633  1.3835  2.2064  0.6172
 5877TP3     H229451   0.586   0.530   1.737 -1.1232 -0.3626 -1.1263
 5878TP3      O29452   3.492   0.588   7.477  0.3051  0.0053 -0.2419
 5878TP3     H129453   3.514   0.593   7.570 -0.6287  1.2642 -0.0595
 5878TP3     H229454   3.559   0.531   7.439  2.7835  2.1823  0.5842
 5879TP3      O29455   1.934   5.260   1.687 -0.7541  0.3295  0.0758
 5879TP3     H129456   1.931   5.296   1.776 -2.0367  0.9991 -0.2108
 5879TP3     H229457   1.863   5.197   1.685  0.5221 -1.1601  0.0966
 5880TP3      O29458   3.055   0.319   0.727  0.2842  0.2580 -0.2399
 5880TP3     H129459   3.090   0.310   0.638 -0.5289  0.8806 -0.6363
 5880TP3     H229460   2.960   0.315   0.716  0.1626  0.7777  0.5572
 5881TP3      O29461   3.397   3.497   2.780  0.1550  0.1037 -0.0904
 5881TP3     H129462   3.432   3.577   2.820 -1.5685  1.2301 -0.7085
 5881TP3     H229463   3.426   3.426   2.838  1.6527  1.1662  0.5173
 5882TP3      O29464   3.192   2.223   3.156  0.4217  0.5547 -0.4591
 5882TP3     H129465   3.254   2.259   3.092  1.8253 -1.6715 -0.5049
 5882TP3     H229466   3.228   2.248   3.241  1.0304 -0.0972 -0.5053
 5883TP3      O29467   0.335   4.056   9.725  0.1665 -0.2937  0.1480
 5883TP3     H129468   0.288   4.012   9.654  0.0718 -1.5284  0.9537
 5883TP3     H229469   0.416   4.006   9.736  0.5501  0.3623  0.3872
   5.29175   5.29175  10.11007
