Title
29469
    1NLYS     N    1   1.942   2.485   2.090 -0.2116  0.4979  0.2048
    1NLYS    H1    2   1.863   2.518   2.036 -1.8364 -3.7059 -0.3654
    1NLYS    H2    3   1.951   2.536   2.177  3.5614 -0.1250  0.3467
    1NLYS    H3    4   1.908   2.392   2.108  1.6905 -0.0315  1.3465
    1NLYS    CA    5   2.078   2.487   2.024  0.2176  0.3478  0.4668
    1NLYS    HA    6   2.150   2.427   2.079  0.4625  0.8513  0.7033
    1NLYS    CB    7   2.061   2.427   1.885 -0.8784 -0.0672  0.6010
    1NLYS   HB2    8   2.016   2.328   1.894  0.7209 -0.9844 -0.7797
    1NLYS   HB3    9   1.998   2.497   1.830  1.8840  1.5265 -0.7479
    1NLYS    CG   10   2.195   2.400   1.815  0.7110  0.2419  0.1464
    1NLYS   HG2   11   2.239   2.495   1.786 -1.5500  1.2269 -0.2963
    1NLYS   HG3   12   2.264   2.345   1.879  1.6987  0.2923 -0.8427
    1NLYS    CD   13   2.163   2.310   1.689  0.1858 -0.1429  0.2857
    1NLYS   HD2   14   2.120   2.217   1.726 -0.9892  0.9667  1.8306
    1NLYS   HD3   15   2.097   2.369   1.625  2.3377 -0.3750 -2.3421
    1NLYS    CE   16   2.286   2.286   1.607 -0.0118 -0.2090 -0.2706
    1NLYS   HE2   17   2.332   2.384   1.594 -0.5357 -0.1880 -2.3838
    1NLYS   HE3   18   2.347   2.221   1.669  1.7136  0.2896 -1.3838
    1NLYS    NZ   19   2.256   2.226   1.482  0.0427  0.0577 -0.0753
    1NLYS   HZ1   20   2.195   2.285   1.426  0.5013 -1.8696 -2.8064
    1NLYS   HZ2   21   2.340   2.208   1.430  0.8495 -0.6763  1.4346
    1NLYS   HZ3   22   2.213   2.135   1.493 -2.1471  0.5608 -3.1525
    1NLYS     C   23   2.131   2.630   2.029  0.4721  0.4921  0.0440
    1NLYS     O   24   2.056   2.730   2.024  0.0475 -0.6848 -0.4254
    2GLY      N   25   2.261   2.636   2.025  0.1964 -0.4485  0.4046
    2GLY      H   26   2.315   2.551   2.018  2.3952  0.8647  0.2518
    2GLY     CA   27   2.335   2.755   1.999  0.3219  0.2769 -0.3945
    2GLY    HA2   28   2.321   2.785   1.895 -0.5563 -0.8215 -0.6073
    2GLY    HA3   29   2.294   2.831   2.066  0.1821 -0.1236 -0.0171
    2GLY      C   30   2.485   2.752   2.046 -0.3455 -0.7492 -0.4715
    2GLY      O   31   2.524   2.653   2.111 -0.2018  0.2571 -0.0221
    3PRO      N   32   2.561   2.865   2.032  0.2768  0.2376  0.0912
    3PRO     CD   33   2.520   2.985   1.960 -0.5149 -0.1520  0.0322
    3PRO    HD2   34   2.469   3.037   2.041  0.2384 -1.5353  1.4438
    3PRO    HD3   35   2.452   2.970   1.876  1.4866 -1.3409 -1.4572
    3PRO     CG   36   2.646   3.063   1.916  0.1516 -0.2569 -0.1369
    3PRO    HG2   37   2.622   3.170   1.913  0.9702 -0.0732 -0.3123
    3PRO    HG3   38   2.682   3.017   1.824  2.2285 -1.0031  0.9963
    3PRO     CB   39   2.732   3.032   2.034 -0.1493 -0.3539 -0.0915
    3PRO    HB2   40   2.730   3.107   2.114 -0.9004  1.9927 -2.1852
    3PRO    HB3   41   2.836   3.029   2.003  0.0067  1.9154  0.0457
    3PRO     CA   42   2.694   2.892   2.083  0.8830 -0.4993  0.3828
    3PRO     HA   43   2.770   2.822   2.047  0.0321 -0.5314 -1.4340
    3PRO      C   44   2.699   2.879   2.241 -0.3235 -0.6174  0.1795
    3PRO      O   45   2.813   2.856   2.290  0.4755 -0.0321 -0.3416
    4PRO      N   46   2.601   2.902   2.328  0.4958  0.0198 -0.0673
    4PRO     CD   47   2.480   2.975   2.297  0.1348  0.3896  0.5735
    4PRO    HD2   48   2.417   2.916   2.231 -0.7663  1.7084  0.2156
    4PRO    HD3   49   2.499   3.073   2.253 -0.4363  0.4192  0.3946
    4PRO     CG   50   2.403   2.989   2.425  0.7240  0.1293  0.4249
    4PRO    HG2   51   2.356   2.893   2.448 -0.5002  0.8963  1.2621
    4PRO    HG3   52   2.325   3.066   2.417  0.0618 -0.4899  0.7667
    4PRO     CB   53   2.520   3.029   2.518  0.0784  0.3139 -0.1977
    4PRO    HB2   54   2.493   3.026   2.623 -2.5861  2.0219 -0.7187
    4PRO    HB3   55   2.551   3.131   2.496 -1.9511  1.2284  0.9384
    4PRO     CA   56   2.619   2.921   2.474 -0.7349  0.0865  0.7425
    4PRO     HA   57   2.718   2.967   2.480 -1.0656  1.0256 -0.6869
    4PRO      C   58   2.604   2.787   2.552  0.3185  0.3611  0.3824
    4PRO      O   59   2.541   2.690   2.500 -0.2560  0.6622  0.4699
    5ARG      N   60   2.666   2.772   2.667  0.8420 -0.3112  0.2796
    5ARG      H   61   2.736   2.842   2.685  2.4309 -0.8587 -2.9893
    5ARG     CA   62   2.673   2.642   2.735  0.4237 -0.2693 -0.2610
    5ARG     HA   63   2.723   2.567   2.674  1.2920  1.6089 -1.9493
    5ARG     CB   64   2.764   2.662   2.861  0.2177  0.1332  0.0755
    5ARG    HB2   65   2.762   2.569   2.918  1.1004  1.5295  2.5346
    5ARG    HB3   66   2.866   2.681   2.827  1.3282 -0.8507  2.6401
    5ARG     CG   67   2.712   2.766   2.963 -0.2287  0.6614 -0.0120
    5ARG    HG2   68   2.725   2.865   2.920  0.3358  1.8627  2.7417
    5ARG    HG3   69   2.607   2.749   2.984 -0.8590  2.5637 -1.3614
    5ARG     CD   70   2.789   2.760   3.097  0.2770  0.1205  0.2642
    5ARG    HD2   71   2.750   2.835   3.166 -0.8432 -0.5351  0.3752
    5ARG    HD3   72   2.768   2.669   3.152  0.2496 -0.1159 -0.1291
    5ARG     NE   73   2.935   2.778   3.077 -0.0063 -0.4407  0.0513
    5ARG     HE   74   2.967   2.874   3.069  3.8431 -1.1286  3.4386
    5ARG     CZ   75   3.029   2.688   3.097 -0.1410  0.1712 -0.2368
    5ARG    NH1   76   3.004   2.562   3.121  0.1274  0.1275 -0.0589
    5ARG   HH11   77   2.908   2.534   3.138 -0.7999  2.9990  0.0272
    5ARG   HH12   78   3.084   2.501   3.127  0.3768  0.0210 -2.8287
    5ARG    NH2   79   3.157   2.716   3.104 -0.1278 -0.6991  0.2694
    5ARG   HH21   80   3.196   2.808   3.088 -1.5151  0.0730  1.1429
    5ARG   HH22   81   3.211   2.634   3.127 -0.8804 -1.2462  0.1158
    5ARG      C   82   2.538   2.577   2.778 -0.6229  0.1752 -0.7309
    5ARG      O   83   2.441   2.646   2.799  0.0316  0.1815 -0.4115
    6CARG     N   84   2.541   2.443   2.793 -0.1937  0.3909 -0.0616
    6CARG     H   85   2.614   2.397   2.741 -0.8827 -2.0680  1.0173
    6CARG    CA   86   2.440   2.358   2.847  0.0072  0.0170  0.2922
    6CARG    HA   87   2.351   2.372   2.787 -0.4203 -0.1867  0.8669
    6CARG    CB   88   2.485   2.214   2.828  0.2674 -0.3728 -0.5790
    6CARG   HB2   89   2.421   2.141   2.877 -0.6861  0.4909 -0.5055
    6CARG   HB3   90   2.495   2.199   2.720 -2.8616 -0.0120 -1.0234
    6CARG    CG   91   2.624   2.187   2.879  0.1525  0.5395 -0.6612
    6CARG   HG2   92   2.700   2.259   2.850  1.2263  1.2953  3.3414
    6CARG   HG3   93   2.625   2.179   2.988 -0.0161  0.9129 -0.6321
    6CARG    CD   94   2.681   2.051   2.843  0.5616 -0.1625  0.2607
    6CARG   HD2   95   2.655   2.028   2.740  3.3955  0.6023 -0.7233
    6CARG   HD3   96   2.790   2.050   2.853  0.6928 -2.3404 -0.8607
    6CARG    NE   97   2.627   1.943   2.931  0.1527 -0.2502  0.1256
    6CARG    HE   98   2.563   1.967   3.005 -0.2836 -0.5687 -0.1431
    6CARG    CZ   99   2.671   1.820   2.922  0.3693 -0.4688  0.3482
    6CARG   NH1  100   2.761   1.786   2.834  0.1830  0.1635  0.2116
    6CARG  HH11  101   2.793   1.860   2.772  0.4343  0.3118  0.5183
    6CARG  HH12  102   2.793   1.690   2.837 -2.4100 -0.7758  1.0434
    6CARG   NH2  103   2.615   1.738   3.007 -0.1383  0.4916 -0.6766
    6CARG  HH21  104   2.519   1.762   3.026 -0.6106 -1.8336  0.2623
    6CARG  HH22  105   2.639   1.640   3.009  2.1239  0.9967 -0.0134
    6CARG     C  106   2.394   2.394   2.987  0.7584  0.1031 -0.2961
    6CARG     O  107   2.470   2.404   3.084  0.3804 -0.6616 -0.5267
    6CARG   OXT  108   2.271   2.417   2.998 -0.1965 -0.1817  0.0255
    1PA    C116  109   2.749   2.338   5.359 -0.0623  0.2137 -0.0058
    1PA    H16R  110   2.692   2.313   5.269 -0.4385  2.0464 -0.3223
    1PA    H16S  111   2.739   2.251   5.424 -1.5068  1.1887  1.1522
    1PA    H16T  112   2.855   2.357   5.345 -0.3842  3.2793  0.9842
    1PA    C115  113   2.685   2.460   5.420 -0.5525 -0.3945  0.1670
    1PA    H15R  114   2.704   2.533   5.342 -0.8397 -1.5467 -1.0225
    1PA    H15S  115   2.578   2.439   5.420 -0.3565 -1.4735  0.7396
    1PA    C114  116   2.747   2.515   5.551 -0.0741 -0.4620 -0.1173
    1PA    H14R  117   2.847   2.555   5.534 -0.2369  0.5805  1.2425
    1PA    H14S  118   2.684   2.601   5.577  0.3453 -0.0649 -0.4058
    1PA    C113  119   2.732   2.424   5.670 -0.0756  0.6587  0.1357
    1PA    H13R  120   2.627   2.409   5.696  0.1360 -0.4773  0.3791
    1PA    H13S  121   2.771   2.324   5.653 -1.2387  0.0199  1.0428
    1PA    C112  122   2.808   2.486   5.795  0.3835 -0.3355  0.8459
    1PA    H12R  123   2.905   2.524   5.765  0.2791  1.4587  2.5829
    1PA    H12S  124   2.749   2.573   5.826  1.5962  0.7510  0.1923
    1PA    C111  125   2.846   2.384   5.902  0.2674  0.4441  0.0900
    1PA    H11R  126   2.749   2.357   5.942  0.3707 -0.2894 -0.1235
    1PA    H11S  127   2.894   2.300   5.851 -0.7225  1.1465 -2.1188
    1PA    C110  128   2.948   2.426   6.013  0.1490 -0.1448 -0.8154
    1PA    H10R  129   3.037   2.480   5.979 -0.6227  1.2112 -0.7653
    1PA    H10S  130   2.907   2.494   6.089 -0.8057 -2.3262  0.7187
    1PA     C19  131   2.987   2.313   6.097 -0.1364  0.5474 -0.3374
    1PA     H9R  132   2.897   2.263   6.135  0.0130 -0.6092 -1.4383
    1PA     H9S  133   3.046   2.239   6.042  1.2508  2.3660 -1.4310
    1PA     C18  134   3.080   2.356   6.214  0.0604 -0.3881 -0.0722
    1PA     H8R  135   3.182   2.373   6.180 -0.8109  0.0156 -2.6718
    1PA     H8S  136   3.044   2.435   6.280 -0.1752 -1.0241  0.5881
    1PA     C17  137   3.102   2.230   6.303  0.5294  0.5540  0.1723
    1PA     H7R  138   3.013   2.168   6.309  1.2543 -0.3322  3.3852
    1PA     H7S  139   3.174   2.159   6.262 -0.9857  0.4219 -2.5228
    1PA     C16  140   3.162   2.260   6.444 -0.1761 -0.1322 -0.1797
    1PA     H6R  141   3.265   2.297   6.440 -0.5633  1.9345  3.9291
    1PA     H6S  142   3.094   2.339   6.477 -0.3754  0.6008 -2.2149
    1PA     C15  143   3.154   2.145   6.549 -0.3612  0.2095  0.4698
    1PA     H5R  144   3.049   2.129   6.575 -0.7367 -1.3717 -1.7091
    1PA     H5S  145   3.195   2.057   6.499  1.6589  0.8346  0.9217
    1PA     C14  146   3.234   2.188   6.673 -0.2483 -0.2613  0.4943
    1PA     H4R  147   3.248   2.100   6.736  1.2678 -0.5431 -0.1806
    1PA     H4S  148   3.330   2.230   6.643 -1.0442  1.4538  0.2322
    1PA     C13  149   3.164   2.296   6.754 -0.2470 -0.4027  0.4357
    1PA     H3R  150   3.168   2.384   6.690  0.9920 -0.9002 -0.1948
    1PA     H3S  151   3.065   2.253   6.770 -0.4417 -0.6269 -1.2703
    1PA     C12  152   3.215   2.325   6.890 -0.1694  0.4667 -0.2960
    1PA     H2R  153   3.212   2.239   6.957  0.1085  1.0197  0.4367
    1PA     H2S  154   3.320   2.350   6.881  0.4900 -1.9843 -0.0394
    1PC     C11  155   3.145   2.439   6.960 -0.1500  0.2150 -0.0600
    1PC     O12  156   3.073   2.525   6.904  0.1274  0.6658  0.2988
    1PC     O11  157   3.151   2.434   7.097 -0.4710 -0.5104 -0.3943
    1PC      C1  158   3.048   2.523   7.169 -1.0607  0.5111  0.5837
    1PC      HR  159   3.095   2.565   7.259  0.0806 -1.9555  1.2209
    1PC      HS  160   3.021   2.611   7.110 -0.9659 -0.9431 -1.7664
    1PC      C2  161   2.927   2.438   7.206 -0.5349 -0.2959  0.9979
    1PC      HX  162   2.861   2.513   7.251  1.4730  0.6279  2.6147
    1PC      C3  163   2.956   2.333   7.321  0.4406  0.2398 -0.0845
    1PC      HA  164   3.055   2.286   7.309  0.9923  1.3748 -0.1437
    1PC      HB  165   2.958   2.369   7.424 -1.0560 -0.7308  0.3094
    1PC     O31  166   2.861   2.221   7.316 -0.0687 -0.1214  0.2345
    1PC     P31  167   2.714   2.235   7.368  0.1337 -0.1084  0.0757
    1PC     O32  168   2.721   2.248   7.529  0.1852 -0.1395  0.5952
    1PC     C31  169   2.746   2.121   7.600 -0.1608  0.1147 -0.0116
    1PC     H1A  170   2.647   2.085   7.630 -0.6744 -1.2822 -2.9959
    1PC     H1B  171   2.801   2.048   7.540  0.9515  0.7854  0.1634
    1PC     C32  172   2.845   2.149   7.715 -0.0863  0.0828  0.0776
    1PC     H2A  173   2.869   2.052   7.759 -1.4460 -0.3131 -0.0134
    1PC     H2B  174   2.940   2.172   7.667  0.3073 -1.4873  0.0426
    1PC     N31  175   2.825   2.253   7.826  0.4472  0.4863 -0.5321
    1PC     C33  176   2.926   2.247   7.935  0.7588  0.4512 -0.3388
    1PC     H3A  177   3.027   2.268   7.898  1.2009 -0.3199  0.3875
    1PC     H3B  178   2.892   2.312   8.015 -0.2073  0.7070 -0.9430
    1PC     H3C  179   2.931   2.146   7.977 -2.3912 -0.7525 -2.5125
    1PC     C34  180   2.842   2.390   7.772  0.2560 -0.3502 -0.2554
    1PC     H4A  181   2.772   2.403   7.689 -1.7418  1.1558  1.5645
    1PC     H4B  182   2.823   2.468   7.846  2.7101  0.3256 -0.2345
    1PC     H4C  183   2.943   2.401   7.732  0.0204  2.0981 -0.3070
    1PC     C35  184   2.686   2.240   7.887 -0.5471 -0.1238  0.3940
    1PC     H5A  185   2.675   2.318   7.962 -1.9065 -0.8143  0.9251
    1PC     H5B  186   2.680   2.138   7.924 -0.6902  0.3966  1.8634
    1PC     H5C  187   2.620   2.275   7.808 -0.3127 -2.2535 -0.8059
    1PC     O33  188   2.650   2.358   7.321  0.1750  0.1735 -0.1737
    1PC     O34  189   2.644   2.112   7.340 -0.5100 -0.2709  0.1157
    1PC     O21  190   2.863   2.363   7.093 -0.2014  0.2900  0.2189
    1PC     C21  191   2.794   2.438   7.005 -0.2245  0.1489 -1.0297
    1PC     O22  192   2.768   2.555   7.019  0.0681  0.3869  0.0182
    1OL     C12  193   2.747   2.349   6.892  0.5639 -1.4784 -0.3299
    1OL     H2R  194   2.669   2.286   6.935 -0.0738  0.4194  1.4884
    1OL     H2S  195   2.825   2.274   6.878 -0.6003 -3.3275  2.2343
    1OL     C13  196   2.699   2.426   6.764  0.1308  0.1567 -0.3378
    1OL     H3R  197   2.622   2.500   6.787  0.3025  0.2974 -0.2181
    1OL     H3S  198   2.670   2.345   6.696  1.8897 -0.6328 -0.2000
    1OL     C14  199   2.814   2.506   6.690  0.0618 -0.0960  0.3611
    1OL     H4R  200   2.898   2.437   6.676 -0.8699 -1.1730 -0.1478
    1OL     H4S  201   2.848   2.583   6.759 -0.4853 -0.9456  1.6297
    1OL     C15  202   2.777   2.587   6.560 -0.4840  0.5875  0.1860
    1OL     H5R  203   2.872   2.628   6.526  2.2824 -1.1845  4.7853
    1OL     H5S  204   2.713   2.673   6.580 -0.9575  0.0259  1.1796
    1OL     C16  205   2.720   2.500   6.448 -0.7247 -0.7410 -0.2289
    1OL     H6R  206   2.640   2.434   6.483  0.2005 -2.1897 -0.7177
    1OL     H6S  207   2.803   2.440   6.409 -2.2391 -1.8486 -1.9048
    1OL     C17  208   2.674   2.587   6.332  0.0388 -0.1253  0.3507
    1OL     H7R  209   2.756   2.654   6.307 -1.2197  1.7647  1.1124
    1OL     H7S  210   2.594   2.652   6.368 -1.6878 -2.5286  1.1452
    1OL     C18  211   2.622   2.505   6.210  0.2430  0.3695  0.7431
    1OL     H8R  212   2.532   2.448   6.235  0.5886  0.8369  3.2239
    1OL     H8S  213   2.697   2.434   6.176  0.0956  0.7115 -0.3517
    1OL     C19  214   2.597   2.598   6.090  0.7718 -0.1515  0.2779
    1OL     H9R  215   2.687   2.605   6.029  2.0021 -2.1413  1.7428
    1OL    C110  216   2.483   2.663   6.054 -1.3027  0.1058 -0.7894
    1OL    H10R  217   2.483   2.721   5.962  0.5925 -1.6654 -1.9959
    1OL    C111  218   2.360   2.664   6.135 -0.2080  0.2878  0.3438
    1OL    H11R  219   2.384   2.648   6.240  2.2628  2.5266  0.2222
    1OL    H11S  220   2.297   2.580   6.103 -0.6210  1.1292 -1.1533
    1OL    C112  221   2.285   2.804   6.121 -0.9684 -0.4569  0.9284
    1OL    H12R  222   2.253   2.804   6.016  1.0067 -0.5109  0.2721
    1OL    H12S  223   2.361   2.882   6.133 -0.5224 -0.4113 -1.5761
    1OL    C113  224   2.161   2.837   6.201 -0.4489  0.3596  0.4136
    1OL    H13R  225   2.190   2.833   6.306 -1.0165 -2.0233  0.5461
    1OL    H13S  226   2.098   2.751   6.177 -0.7482  0.8839 -0.7651
    1OL    C114  227   2.093   2.964   6.181  0.0656  0.0165  0.3694
    1OL    H14R  228   2.164   3.046   6.195 -1.3246  1.1125  1.2241
    1OL    H14S  229   2.024   2.978   6.264  2.3301  0.9087  2.2334
    1OL    C115  230   2.016   2.953   6.044 -0.1087  0.3537 -0.4014
    1OL    H15R  231   1.947   2.869   6.035  1.1923 -0.9564  1.1128
    1OL    H15S  232   2.097   2.944   5.971  0.2320 -0.2234  0.0399
    1OL    C116  233   1.931   3.077   6.003  0.1265  0.3497  0.0521
    1OL    H16R  234   1.879   3.047   5.912 -1.6918 -1.1809  1.4982
    1OL    H16S  235   1.991   3.165   5.978  0.5721 -0.2856 -1.2005
    1OL    C117  236   1.816   3.098   6.107  0.4486 -0.6414  0.2680
    1OL    H17R  237   1.873   3.116   6.198  1.6335 -1.2421 -0.3425
    1OL    H17S  238   1.741   3.019   6.119 -0.2852 -0.0827 -0.4764
    1OL    C118  239   1.737   3.232   6.076 -0.1338 -0.1701 -0.5913
    1OL    H18R  240   1.661   3.210   6.001  0.2456 -1.8158 -0.5275
    1OL    H18S  241   1.815   3.297   6.037  1.6223 -0.5728  1.9590
    1OL    H18T  242   1.703   3.286   6.165  1.3312 -0.6870  0.3165
    1PA    C116  243   3.278   2.430   5.536 -0.0901  0.7231 -0.3524
    1PA    H16R  244   3.386   2.435   5.521  0.2360  0.2424  1.5736
    1PA    H16S  245   3.233   2.376   5.453 -1.9762  0.2078  0.9530
    1PA    H16T  246   3.260   2.367   5.623 -0.0885 -1.0522 -1.5693
    1PA    C115  247   3.212   2.571   5.552 -0.7788  0.9491  0.3279
    1PA    H15R  248   3.249   2.638   5.474  1.4633  1.1952  1.5376
    1PA    H15S  249   3.106   2.567   5.526  0.0673 -0.8721 -3.6422
    1PA    C114  250   3.231   2.620   5.698  0.7560  0.5203  0.3592
    1PA    H14R  251   3.160   2.558   5.753  0.0724  0.7827 -0.2216
    1PA    H14S  252   3.330   2.617   5.744  0.4926  0.1539  0.9155
    1PA    C113  253   3.169   2.760   5.710  0.3476 -0.7495 -0.1748
    1PA    H13R  254   3.061   2.752   5.693  0.2711 -0.8218  0.3326
    1PA    H13S  255   3.187   2.787   5.814  1.3714  1.8940 -0.9669
    1PA    C112  256   3.223   2.870   5.616  0.0839 -1.0269 -0.1690
    1PA    H12R  257   3.332   2.859   5.616  0.3132  0.7711  1.1232
    1PA    H12S  258   3.176   2.864   5.518  0.0103  1.5122 -0.3538
    1PA    C111  259   3.189   3.012   5.661 -0.0402  0.7564  0.3535
    1PA    H11R  260   3.222   3.075   5.578  3.2480 -0.2574  0.7718
    1PA    H11S  261   3.082   3.015   5.681 -0.3505 -1.6622 -0.6475
    1PA    C110  262   3.261   3.066   5.789  0.0388 -0.3129 -0.1378
    1PA    H10R  263   3.191   3.142   5.825 -2.0894 -1.6150 -1.2958
    1PA    H10S  264   3.263   2.994   5.872  0.3819 -0.0829  0.0533
    1PA     C19  265   3.395   3.141   5.759 -0.2038  0.3050 -0.2781
    1PA     H9R  266   3.475   3.071   5.734  0.2929  1.0864 -0.9021
    1PA     H9S  267   3.380   3.219   5.684 -1.9122  0.8634  0.5826
    1PA     C18  268   3.441   3.221   5.885 -0.1435  0.2295  0.5354
    1PA     H8R  269   3.527   3.280   5.852  0.6917 -0.3537  1.6192
    1PA     H8S  270   3.362   3.287   5.921 -1.0536 -0.7682  0.4122
    1PA     C17  271   3.473   3.135   6.006 -0.0816  0.5234 -0.6807
    1PA     H7R  272   3.391   3.078   6.049 -0.2682  1.9411  0.9350
    1PA     H7S  273   3.550   3.060   5.986  1.2481  1.1913  1.5546
    1PA     C16  274   3.532   3.220   6.118  0.9395 -0.1841 -0.8133
    1PA     H6R  275   3.620   3.273   6.081 -0.7674  3.0412 -0.5889
    1PA     H6S  276   3.461   3.293   6.156  0.6432 -1.3286  0.9196
    1PA     C15  277   3.579   3.128   6.231  0.0511  0.1973 -0.0050
    1PA     H5R  278   3.496   3.060   6.255  0.1597 -0.4127 -1.2658
    1PA     H5S  279   3.665   3.068   6.200  0.3264 -0.0455  1.2038
    1PA     C14  280   3.617   3.209   6.358 -0.7234 -0.0870  0.1214
    1PA     H4R  281   3.712   3.259   6.338 -0.2067 -1.0246  0.1598
    1PA     H4S  282   3.544   3.285   6.387  0.7574  1.2447  0.5292
    1PA     C13  283   3.648   3.118   6.475  0.1323  0.5389  0.0023
    1PA     H3R  284   3.733   3.056   6.445  0.0006 -0.6862  1.9829
    1PA     H3S  285   3.678   3.173   6.564 -0.0582 -0.3596  0.6331
    1PA     C12  286   3.534   3.027   6.528  0.3478  0.6249  0.0210
    1PA     H2R  287   3.454   3.089   6.570  0.8241  0.1762  1.6526
    1PA     H2S  288   3.489   2.968   6.447  1.7487  0.0976 -0.3996
    1PC     C11  289   3.580   2.945   6.648  0.7355  0.3267 -0.0880
    1PC     O12  290   3.618   2.994   6.755 -0.1455  0.5690  0.0214
    1PC     O11  291   3.546   2.816   6.628 -0.3071  0.3943  0.4048
    1PC      C1  292   3.560   2.718   6.737  0.0874  0.1521  0.0499
    1PC      HR  293   3.569   2.617   6.695  1.2230 -0.6097  2.0147
    1PC      HS  294   3.653   2.734   6.792 -1.8503  1.8942  3.0960
    1PC      C2  295   3.425   2.719   6.820  0.2349 -0.4678  0.4819
    1PC      HX  296   3.407   2.822   6.852  2.6453  0.2188 -0.1313
    1PC      C3  297   3.443   2.654   6.959 -0.1054 -0.1821 -0.0180
    1PC      HA  298   3.464   2.546   6.954  0.1443 -0.1931  1.0041
    1PC      HB  299   3.537   2.693   6.998 -0.5193 -0.9049  1.7893
    1PC     O31  300   3.321   2.670   7.039 -0.5702  0.4744  0.5864
    1PC     P31  301   3.299   2.778   7.148  0.1270 -0.0102 -0.1554
    1PC     O32  302   3.294   2.709   7.293 -0.9463  0.3974 -0.0436
    1PC     C31  303   3.414   2.659   7.346 -0.4652 -0.4777  0.2807
    1PC     H1A  304   3.386   2.581   7.418 -0.5730  0.1437  0.9161
    1PC     H1B  305   3.468   2.601   7.270  1.1646  1.9587 -0.5609
    1PC     C32  306   3.512   2.761   7.415 -0.4211 -0.9935 -0.2482
    1PC     H2A  307   3.593   2.698   7.451 -1.3555 -0.2554  3.5727
    1PC     H2B  308   3.553   2.829   7.339 -0.7905 -2.7189 -2.0829
    1PC     N31  309   3.453   2.828   7.537  0.5284  0.0270  0.7954
    1PC     C33  310   3.319   2.891   7.521  0.7609  1.0987  0.5227
    1PC     H3A  311   3.250   2.811   7.492  1.5894 -0.5137  2.7367
    1PC     H3B  312   3.293   2.932   7.619  1.4086 -0.8440  1.5594
    1PC     H3C  313   3.312   2.968   7.443 -1.2502 -0.2979 -0.7681
    1PC     C34  314   3.447   2.727   7.647 -0.2274  0.1913 -0.0222
    1PC     H4A  315   3.368   2.655   7.627 -0.0385 -0.5994  1.9045
    1PC     H4B  316   3.544   2.675   7.645 -0.7642 -0.8239 -0.5703
    1PC     H4C  317   3.415   2.772   7.741 -3.3516 -1.5270 -0.1327
    1PC     C35  318   3.536   2.940   7.588 -0.1324 -0.0480  0.6539
    1PC     H5A  319   3.502   2.972   7.687  0.7710 -2.5072  1.8290
    1PC     H5B  320   3.543   3.016   7.510  2.6664 -0.3586  0.5079
    1PC     H5C  321   3.638   2.906   7.602 -0.0824  0.3162  1.2188
    1PC     O33  322   3.413   2.865   7.139 -0.2969  0.7474 -0.1182
    1PC     O34  323   3.172   2.843   7.125  0.6282 -0.2852  0.7656
    1PC     O21  324   3.319   2.663   6.743 -0.5010 -1.1174  0.4658
    1PC     C21  325   3.231   2.746   6.684  0.2588 -0.5293  0.2902
    1PC     O22  326   3.226   2.865   6.693 -0.4607 -0.2595 -0.5214
    1OL     C12  327   3.148   2.669   6.581 -0.4699  0.1700 -0.3191
    1OL     H2R  328   3.046   2.708   6.584 -0.6906 -0.4143  1.9955
    1OL     H2S  329   3.134   2.563   6.606 -0.7248  0.4573  0.7937
    1OL     C13  330   3.212   2.687   6.448  0.3880 -0.2176 -0.0758
    1OL     H3R  331   3.230   2.792   6.423  1.1282 -0.4044 -0.3562
    1OL     H3S  332   3.141   2.659   6.370 -0.0460 -0.8033  0.5217
    1OL     C14  333   3.342   2.615   6.428  0.1891  0.2806  0.3158
    1OL     H4R  334   3.322   2.515   6.466  1.9249  0.8145  2.9229
    1OL     H4S  335   3.423   2.651   6.492  2.9410 -2.3476 -1.4833
    1OL     C15  336   3.390   2.614   6.285  0.6757  0.2906 -0.2264
    1OL     H5R  337   3.314   2.556   6.233  0.3004  1.3766 -0.9316
    1OL     H5S  338   3.491   2.573   6.274  0.7795 -0.0365  1.6277
    1OL     C16  339   3.387   2.751   6.205  0.3352 -0.6952 -0.1945
    1OL     H6R  340   3.471   2.818   6.222 -0.3696  0.8903 -2.4481
    1OL     H6S  341   3.299   2.807   6.237 -1.5249 -3.8828  0.7211
    1OL     C17  342   3.374   2.732   6.055 -0.5054 -0.0893 -0.1969
    1OL     H7R  343   3.340   2.828   6.014  0.7761  2.0607  3.2807
    1OL     H7S  344   3.295   2.661   6.032  0.3343 -0.3285 -2.6596
    1OL     C18  345   3.500   2.687   5.978  0.1341  0.1090 -0.1321
    1OL     H8R  346   3.483   2.676   5.871  1.7342  1.3443 -0.5509
    1OL     H8S  347   3.521   2.589   6.022  0.2374 -1.0312 -2.5561
    1OL     C19  348   3.614   2.777   5.986 -0.3902  0.1243 -0.3553
    1OL     H9R  349   3.645   2.794   6.089 -0.2658 -1.5567 -0.0931
    1OL    C110  350   3.679   2.833   5.885  0.1284 -0.9517  0.0933
    1OL    H10R  351   3.766   2.896   5.900  0.1789 -0.4104 -2.0850
    1OL    C111  352   3.665   2.805   5.728 -0.1444  0.1207  0.2329
    1OL    H11R  353   3.644   2.898   5.673 -1.3790 -0.8931 -1.0987
    1OL    H11S  354   3.575   2.745   5.711 -0.8099  1.0409  0.4481
    1OL    C112  355   3.800   2.767   5.658  0.6201  0.7110  0.2162
    1OL    H12R  356   3.819   2.660   5.674  2.0373  0.8959 -0.1617
    1OL    H12S  357   3.879   2.822   5.709  1.3533  1.4587 -1.6590
    1OL    C113  358   3.803   2.787   5.508 -0.2714  0.1947  0.6410
    1OL    H13R  359   3.901   2.760   5.468 -1.0415 -0.0392 -1.2018
    1OL    H13S  360   3.801   2.895   5.489  2.2913 -0.0168 -1.4130
    1OL    C114  361   3.693   2.696   5.439  0.8626 -0.4250 -0.5739
    1OL    H14R  362   3.596   2.743   5.456  1.0461  0.4274 -1.7125
    1OL    H14S  363   3.695   2.602   5.494  2.2622  0.3698  0.8172
    1OL    C115  364   3.699   2.669   5.290  0.6882 -0.1066  0.8257
    1OL    H15R  365   3.793   2.619   5.269  0.0158 -1.0082 -0.1460
    1OL    H15S  366   3.708   2.763   5.235 -0.5500 -0.6577 -0.3835
    1OL    C116  367   3.592   2.574   5.231 -0.2070  0.4630 -0.0991
    1OL    H16R  368   3.593   2.580   5.122 -0.2022  2.8732 -0.0058
    1OL    H16S  369   3.493   2.606   5.265  0.4913  1.2416  1.2731
    1OL    C117  370   3.619   2.423   5.276  0.2260 -0.5606  0.1988
    1OL    H17R  371   3.648   2.435   5.380  1.5811  0.8438 -0.2891
    1OL    H17S  372   3.702   2.394   5.211 -0.3440  1.3457 -1.5131
    1OL    C118  373   3.500   2.334   5.256  0.2856 -0.1385 -0.2599
    1OL    H18R  374   3.491   2.261   5.337 -0.9051 -1.3467 -1.4358
    1OL    H18S  375   3.514   2.279   5.163  1.1766 -2.6350  1.2371
    1OL    H18T  376   3.409   2.393   5.268  0.4852  0.0122  0.5472
    1PA    C116  377   3.593   1.934   5.399  0.8010 -0.1288  0.7138
    1PA    H16R  378   3.550   1.834   5.415  1.5135 -0.6495 -0.4929
    1PA    H16S  379   3.697   1.932   5.366  0.8133  0.9809  0.6573
    1PA    H16T  380   3.544   1.998   5.326  2.1385  0.9292  0.7131
    1PA    C115  381   3.611   2.005   5.534 -0.2487 -0.2049 -0.6493
    1PA    H15R  382   3.649   2.104   5.511 -1.1576  0.3685  0.2194
    1PA    H15S  383   3.517   2.036   5.580 -0.8772 -2.8394 -0.0001
    1PA    C114  384   3.705   1.927   5.631 -0.4573 -0.1855 -0.4992
    1PA    H14R  385   3.663   1.831   5.660  2.6733 -0.6293  3.2814
    1PA    H14S  386   3.797   1.901   5.579  2.0198  0.7067  3.1297
    1PA    C113  387   3.748   2.016   5.753 -0.2382 -0.2682  0.9773
    1PA    H13R  388   3.764   2.120   5.726  0.7564 -0.7939 -0.5916
    1PA    H13S  389   3.658   2.009   5.815 -0.7574  1.8740  0.5410
    1PA    C112  390   3.869   1.954   5.832  0.2268 -0.3399  0.7407
    1PA    H12R  391   3.832   1.863   5.880 -0.4168 -0.0412  0.8115
    1PA    H12S  392   3.948   1.912   5.768 -1.2194 -2.3869  0.1999
    1PA    C111  393   3.936   2.042   5.945 -0.0519  1.0226  0.0342
    1PA    H11R  394   4.038   2.069   5.918  0.7425 -0.8604  1.0066
    1PA    H11S  395   3.887   2.139   5.960  0.4547  1.2927 -0.0421
    1PA    C110  396   3.942   1.958   6.077 -0.7826 -0.5447  0.8379
    1PA    H10R  397   3.842   1.918   6.091 -1.5986  1.6140  1.5700
    1PA    H10S  398   4.016   1.879   6.062 -1.8800 -1.7668  1.6949
    1PA     C19  399   3.985   2.040   6.200 -0.0785  0.4727 -0.2405
    1PA     H9R  400   4.094   2.049   6.203 -0.1434  1.0571  1.0194
    1PA     H9S  401   3.946   2.142   6.199  2.5489  1.5737  0.3694
    1PA     C18  402   3.938   1.948   6.319 -0.1046 -0.6513 -1.3442
    1PA     H8R  403   3.830   1.930   6.316 -0.0654 -0.7507 -3.2309
    1PA     H8S  404   3.978   1.847   6.307 -0.4111 -0.5434 -3.6738
    1PA     C17  405   3.980   2.019   6.457 -0.4066 -0.3100  0.8325
    1PA     H7R  406   4.082   2.052   6.438 -0.6223 -0.5092 -0.8039
    1PA     H7S  407   3.922   2.111   6.467  1.5728  0.8605  2.0557
    1PA     C16  408   3.974   1.917   6.571 -0.1950 -0.3360 -0.1042
    1PA     H6R  409   3.871   1.893   6.599  0.1472  0.1697  1.6996
    1PA     H6S  410   4.036   1.830   6.547  1.1630 -0.0353  2.0098
    1PA     C15  411   4.040   1.984   6.699 -0.3476 -0.1243 -0.2958
    1PA     H5R  412   4.147   1.995   6.678 -0.8129 -0.3385 -3.1940
    1PA     H5S  413   4.002   2.086   6.713  1.9327  0.3738  4.2019
    1PA     C14  414   4.018   1.900   6.822 -0.6011  0.7806  0.3393
    1PA     H4R  415   3.911   1.880   6.834 -0.7823  1.2431 -0.4512
    1PA     H4S  416   4.067   1.806   6.796 -2.2771  0.7687 -3.2491
    1PA     C13  417   4.079   1.987   6.935  0.4208  0.3487  0.2733
    1PA     H3R  418   4.186   2.000   6.916  0.3391  1.0741  0.3056
    1PA     H3S  419   4.034   2.086   6.941 -2.0759 -0.5720 -1.4931
    1PA     C12  420   4.050   1.910   7.071  0.4494 -0.7556  0.1823
    1PA     H2R  421   4.103   1.815   7.072 -1.3884 -1.8642 -0.8565
    1PA     H2S  422   4.076   1.965   7.161  0.9537 -1.3296  0.3894
    1PC     C11  423   3.906   1.875   7.089  0.1092  0.2765 -0.0008
    1PC     O12  424   3.873   1.765   7.113  0.2175  0.0503 -0.7024
    1PC     O11  425   3.825   1.979   7.074 -0.3852 -0.1914  0.4569
    1PC      C1  426   3.687   1.953   7.087  0.4596  0.0635  0.1808
    1PC      HR  427   3.652   1.871   7.024 -1.8512 -0.5159  2.0685
    1PC      HS  428   3.677   1.928   7.193  0.6867 -0.3095  0.1169
    1PC      C2  429   3.601   2.071   7.043 -0.3428 -0.6237  0.7676
    1PC      HX  430   3.627   2.151   7.113  0.5955 -0.9881  0.8409
    1PC      C3  431   3.451   2.043   7.049 -0.1592 -0.2905  0.6013
    1PC      HA  432   3.390   2.132   7.065 -1.3606 -0.9682 -0.0046
    1PC      HB  433   3.427   2.001   6.951  1.2728 -1.2778  0.6484
    1PC     O31  434   3.427   1.942   7.153  0.5542 -0.3453 -0.4111
    1PC     P31  435   3.355   1.988   7.294 -0.3385  0.4856  0.5572
    1PC     O32  436   3.265   1.858   7.328  0.0014  0.4465  0.0493
    1PC     C31  437   3.319   1.729   7.351 -0.2395 -0.0929 -0.7340
    1PC     H1A  438   3.422   1.733   7.387 -0.4832 -0.8528  0.0760
    1PC     H1B  439   3.257   1.686   7.431  0.5596  0.3535  0.1420
    1PC     C32  440   3.320   1.644   7.224  0.0894  0.4942 -0.0435
    1PC     H2A  441   3.398   1.684   7.160  1.0479  0.7794  1.2486
    1PC     H2B  442   3.341   1.544   7.263 -0.0241  0.4656 -0.0564
    1PC     N31  443   3.189   1.630   7.149  0.0498 -0.1511 -0.3393
    1PC     C33  444   3.074   1.589   7.232  0.4108  0.4024 -0.4028
    1PC     H3A  445   3.046   1.671   7.298 -0.9413  0.1495 -0.6312
    1PC     H3B  446   2.999   1.572   7.155  1.0935  0.9210 -1.1995
    1PC     H3C  447   3.086   1.494   7.283 -3.4303 -0.6996 -1.2163
    1PC     C34  448   3.153   1.745   7.064 -0.0103  0.2308 -1.1622
    1PC     H4A  449   3.204   1.731   6.968 -0.3445  0.8954 -1.4428
    1PC     H4B  450   3.045   1.739   7.049  0.0900 -0.1612 -1.7395
    1PC     H4C  451   3.182   1.843   7.102 -1.4341 -0.6076  2.5377
    1PC     C35  452   3.206   1.521   7.051  0.8143 -0.2579 -0.6220
    1PC     H5A  453   3.291   1.542   6.984  0.7904  0.4173 -0.4450
    1PC     H5B  454   3.114   1.518   6.993  1.5451  2.7849 -2.1463
    1PC     H5C  455   3.220   1.433   7.114 -0.6569 -0.8513 -1.0803
    1PC     O33  456   3.468   1.997   7.392 -0.0377  0.5279 -0.0681
    1PC     O34  457   3.269   2.106   7.267  0.1998  0.0899 -0.4163
    1PC     O21  458   3.637   2.105   6.907  1.1002 -0.2284  0.3108
    1PC     C21  459   3.728   2.194   6.872  0.4125 -0.5411  0.6448
    1PC     O22  460   3.794   2.264   6.948  0.1733 -0.1986  0.1239
    1OL     C12  461   3.735   2.210   6.721  0.4024 -0.3152  0.2964
    1OL     H2R  462   3.706   2.121   6.665  2.4329  0.1300 -1.6017
    1OL     H2S  463   3.836   2.232   6.687 -0.1910  1.2430 -0.5902
    1OL     C13  464   3.633   2.315   6.661 -0.2573 -0.6589 -0.9881
    1OL     H3R  465   3.654   2.410   6.710  0.6439 -1.4534  0.2288
    1OL     H3S  466   3.532   2.287   6.692 -1.3340  1.7437 -2.0545
    1OL     C14  467   3.636   2.321   6.511  0.6732 -0.4463  0.5468
    1OL     H4R  468   3.722   2.376   6.473  0.5581 -0.8685 -0.3463
    1OL     H4S  469   3.551   2.386   6.489 -0.7813 -2.2456  0.5663
    1OL     C15  470   3.611   2.183   6.441  0.8475 -0.8786  0.1950
    1OL     H5R  471   3.525   2.136   6.488  0.7272  0.0601  0.9551
    1OL     H5S  472   3.691   2.109   6.454  0.3540 -1.3602  0.5255
    1OL     C16  473   3.586   2.196   6.286 -0.0055 -0.2625  0.0724
    1OL     H6R  474   3.678   2.209   6.228 -0.4224 -1.0576 -0.7981
    1OL     H6S  475   3.534   2.288   6.260 -0.8756 -0.2917  1.6167
    1OL     C17  476   3.508   2.078   6.224  0.6645 -0.6917 -0.2658
    1OL     H7R  477   3.410   2.081   6.272  0.0295  0.7486 -1.5639
    1OL     H7S  478   3.563   1.987   6.247  1.9158 -0.1023 -0.8392
    1OL     C18  479   3.500   2.085   6.068 -0.2291 -0.5014 -0.3555
    1OL     H8R  480   3.469   1.989   6.025 -1.1589 -0.4239  0.1003
    1OL     H8S  481   3.603   2.097   6.034 -0.4641  1.4820 -0.5149
    1OL     C19  482   3.422   2.205   6.015 -0.3800  0.7205 -0.6642
    1OL     H9R  483   3.411   2.289   6.083  1.1403 -0.1752  0.7864
    1OL    C110  484   3.347   2.211   5.908 -0.3229 -0.1163 -0.7690
    1OL    H10R  485   3.292   2.305   5.905  1.4815  1.3065  3.2623
    1OL    C111  486   3.340   2.111   5.806 -0.1054 -0.3036  0.4801
    1OL    H11R  487   3.379   2.014   5.836 -1.1199 -0.9436 -0.2204
    1OL    H11S  488   3.408   2.154   5.732 -0.4485 -0.8195 -0.1376
    1OL    C112  489   3.214   2.096   5.732  0.7439  0.2519 -0.3862
    1OL    H12R  490   3.168   2.188   5.696 -1.6091 -1.0983 -1.0863
    1OL    H12S  491   3.137   2.065   5.803 -0.5272  2.6733 -0.6100
    1OL    C113  492   3.219   2.005   5.609 -0.2388  0.2510 -0.0573
    1OL    H13R  493   3.242   1.906   5.648  0.9921  0.5260 -0.0606
    1OL    H13S  494   3.298   2.041   5.544 -1.0305  0.0406 -1.1605
    1OL    C114  495   3.086   1.985   5.537  0.0839  0.3089 -0.1317
    1OL    H14R  496   3.043   2.080   5.507  0.7788  0.7243  0.1609
    1OL    H14S  497   3.017   1.945   5.612  1.7590 -2.6116 -0.0038
    1OL    C115  498   3.093   1.884   5.419  0.5648 -1.0291 -1.1485
    1OL    H15R  499   2.998   1.833   5.406 -1.4853  2.1239  0.1314
    1OL    H15S  500   3.170   1.808   5.434  1.5242  0.1256  0.2128
    1OL    C116  501   3.134   1.956   5.289 -0.5658  0.0083  0.5376
    1OL    H16R  502   3.228   2.005   5.314 -1.2043  1.3332  0.4222
    1OL    H16S  503   3.062   2.027   5.247  0.4086  0.9982  0.4927
    1OL    C117  504   3.164   1.859   5.171 -0.2853  0.4678  0.6226
    1OL    H17R  505   3.200   1.921   5.089 -0.3035  0.7613  0.8355
    1OL    H17S  506   3.076   1.816   5.123  2.5244 -2.3906 -2.6070
    1OL    C118  507   3.267   1.745   5.188 -0.1052  0.4802  0.0540
    1OL    H18R  508   3.326   1.725   5.098 -1.0411  0.5968 -0.6053
    1OL    H18S  509   3.220   1.649   5.209 -1.3186  0.3101 -2.9230
    1OL    H18T  510   3.339   1.768   5.267 -0.6565  0.6856  0.5001
    1PA    C116  511   2.656   1.242   5.464 -0.3197  0.9030  0.2388
    1PA    H16R  512   2.631   1.253   5.570  1.6127  2.3518  0.6015
    1PA    H16S  513   2.686   1.138   5.455 -0.5525  0.8800 -0.3544
    1PA    H16T  514   2.568   1.240   5.399  0.1616  0.9561 -0.4180
    1PA    C115  515   2.765   1.334   5.418 -0.1533  0.2875  0.0189
    1PA    H15R  516   2.811   1.285   5.331  2.0992 -2.4524  2.5385
    1PA    H15S  517   2.720   1.427   5.386  1.8988  2.2571  2.4566
    1PA    C114  518   2.873   1.362   5.526  0.0122  0.3052 -0.4894
    1PA    H14R  519   2.828   1.378   5.624  1.2077  0.3974  0.0567
    1PA    H14S  520   2.928   1.269   5.540  0.9766  0.5601 -2.3176
    1PA    C113  521   2.961   1.476   5.490 -0.1041 -1.2023  0.7431
    1PA    H13R  522   3.005   1.464   5.391  0.3840  3.1733  0.2122
    1PA    H13S  523   2.891   1.560   5.483  1.0290 -0.3133 -0.3093
    1PA    C112  524   3.072   1.509   5.588 -0.2031  0.7788 -0.5378
    1PA    H12R  525   3.121   1.424   5.636  0.1621  1.2851  0.0151
    1PA    H12S  526   3.150   1.565   5.534  0.8998 -1.3343 -1.2404
    1PA    C111  527   3.017   1.582   5.715 -0.3912 -0.1899 -0.0535
    1PA    H11R  528   2.944   1.657   5.684 -1.8747 -2.3925 -2.2817
    1PA    H11S  529   2.955   1.509   5.768 -0.6561 -0.3292 -0.5423
    1PA    C110  530   3.132   1.622   5.816  0.0669  0.2857  0.9448
    1PA    H10R  531   3.140   1.541   5.889  1.4549 -0.9475 -0.5119
    1PA    H10S  532   3.231   1.633   5.771 -0.9916  1.1656 -1.3435
    1PA     C19  533   3.086   1.745   5.891 -0.8451 -0.5558 -0.2670
    1PA     H9R  534   3.077   1.838   5.835 -0.8959 -0.2182  0.2945
    1PA     H9S  535   2.984   1.731   5.927 -0.6470  1.3269  1.2231
    1PA     C18  536   3.176   1.770   6.014  0.2111  0.6873  0.3196
    1PA     H8R  537   3.179   1.683   6.080 -1.0488  0.4721  0.1049
    1PA     H8S  538   3.278   1.790   5.981  0.6266 -0.0486  1.1091
    1PA     C17  539   3.129   1.887   6.100  0.1660  0.4404  0.3946
    1PA     H7R  540   3.222   1.922   6.146  1.6993 -0.1395 -2.1052
    1PA     H7S  541   3.111   1.976   6.039 -1.3155  0.2698  0.5587
    1PA     C16  542   3.018   1.853   6.205 -0.3216 -0.4088 -0.0272
    1PA     H6R  543   2.992   1.945   6.256 -0.6615  0.2229 -1.3032
    1PA     H6S  544   2.931   1.811   6.155 -0.5588  1.5608 -1.3841
    1PA     C15  545   3.055   1.760   6.323  0.2268  0.2938  0.7927
    1PA     H5R  546   3.045   1.656   6.291 -0.8472  0.6489 -0.0788
    1PA     H5S  547   3.157   1.783   6.355  0.6334  0.0684 -0.2558
    1PA     C14  548   2.962   1.786   6.437  0.2051  0.1024 -0.0345
    1PA     H4R  549   2.971   1.893   6.459  0.5246  0.5844 -2.2795
    1PA     H4S  550   2.856   1.767   6.419  0.5542 -1.6175 -0.4132
    1PA     C13  551   3.010   1.703   6.558 -0.5993 -0.0797 -0.2377
    1PA     H3R  552   3.097   1.751   6.604  0.4651 -0.3797 -1.8690
    1PA     H3S  553   2.928   1.700   6.630  0.5184  1.5366  1.1814
    1PA     C12  554   3.052   1.557   6.535 -0.1383 -0.2095 -0.3762
    1PA     H2R  555   2.983   1.510   6.464 -0.9396 -1.9403  1.4708
    1PA     H2S  556   3.143   1.542   6.476 -1.8591 -1.3620 -2.9314
    1PC     C11  557   3.064   1.483   6.667  0.1350  0.6046 -0.0251
    1PC     O12  558   3.104   1.539   6.766  0.0385 -0.3038  0.2411
    1PC     O11  559   3.001   1.368   6.664 -0.6209  0.7123 -0.5268
    1PC      C1  560   3.005   1.296   6.794 -0.0094  0.1762  0.2746
    1PC      HR  561   2.979   1.192   6.770 -1.9605  0.4084  1.2096
    1PC      HS  562   3.106   1.306   6.834 -0.4838  0.6728  1.3631
    1PC      C2  563   2.893   1.349   6.887 -0.6619 -0.6111 -0.0053
    1PC      HX  564   2.918   1.450   6.921  1.1004 -1.0190  0.0267
    1PC      C3  565   2.891   1.257   7.008  0.5932  0.2208  0.1535
    1PC      HA  566   2.807   1.282   7.074 -0.6196 -1.3753 -0.6961
    1PC      HB  567   2.878   1.153   6.976  0.2858  0.2235  0.2676
    1PC     O31  568   3.007   1.276   7.095 -0.2466  0.7872 -0.2746
    1PC     P31  569   3.040   1.177   7.213 -0.0856  0.0147 -0.1634
    1PC     O32  570   2.989   1.243   7.348  0.1903  0.0338  0.2721
    1PC     C31  571   2.852   1.241   7.390  0.6067  0.4134  0.6766
    1PC     H1A  572   2.819   1.344   7.405  1.1344  0.6734  0.1133
    1PC     H1B  573   2.787   1.215   7.306  1.2919 -1.0183  0.5511
    1PC     C32  574   2.838   1.132   7.504 -0.4211  0.7845  0.2444
    1PC     H2A  575   2.731   1.108   7.503  0.1790 -2.3892  0.5412
    1PC     H2B  576   2.891   1.039   7.481 -0.7878  0.5274  0.4185
    1PC     N31  577   2.872   1.152   7.647 -0.6902  0.3608 -0.0892
    1PC     C33  578   2.826   1.037   7.738  0.1013 -1.1198  0.1225
    1PC     H3A  579   2.864   0.943   7.698  2.1057 -0.0255 -0.7085
    1PC     H3B  580   2.859   1.064   7.838  2.3538  0.4932 -0.9769
    1PC     H3C  581   2.718   1.023   7.727  0.1707 -1.3632 -0.2576
    1PC     C34  582   3.023   1.149   7.666  0.7052  0.1101 -0.2831
    1PC     H4A  583   3.075   1.058   7.637  0.5184 -0.0960  0.0278
    1PC     H4B  584   3.060   1.230   7.602 -2.3099  2.2094  0.4030
    1PC     H4C  585   3.039   1.168   7.772  0.9652  1.0604 -0.4799
    1PC     C35  586   2.830   1.283   7.702  0.0991 -0.4190 -0.3128
    1PC     H5A  587   2.873   1.361   7.639  0.5711 -0.1325  0.3519
    1PC     H5B  588   2.867   1.289   7.805 -1.1019 -2.6032  0.3085
    1PC     H5C  589   2.722   1.293   7.715  0.1478  0.8645 -0.7658
    1PC     O33  590   2.961   1.055   7.197 -0.1436 -0.1951 -0.0764
    1PC     O34  591   3.188   1.169   7.215 -0.1686 -0.2379 -0.2458
    1PC     O21  592   2.762   1.341   6.822 -0.0834  0.0287 -0.6260
    1PC     C21  593   2.713   1.445   6.750 -0.1338  0.7044  0.2306
    1PC     O22  594   2.755   1.558   6.750  0.0448 -0.0438  0.6298
    1OL     C12  595   2.584   1.403   6.693 -0.5250 -0.0935  0.6262
    1OL     H2R  596   2.526   1.489   6.660 -2.1491 -1.8163 -1.2551
    1OL     H2S  597   2.529   1.352   6.773  0.0076 -0.3005  0.8633
    1OL     C13  598   2.593   1.303   6.567  0.8182  0.3713 -0.1552
    1OL     H3R  599   2.494   1.265   6.541 -0.8455  2.0753  3.1331
    1OL     H3S  600   2.647   1.216   6.606  0.5429  1.0629  1.8683
    1OL     C14  601   2.671   1.353   6.447  0.9748 -0.5017  1.1027
    1OL     H4R  602   2.672   1.288   6.359  1.7556  0.3545  0.4692
    1OL     H4S  603   2.769   1.382   6.485  1.2194  1.6890 -0.9133
    1OL     C15  604   2.612   1.488   6.406  0.6292 -0.7317  0.2048
    1OL     H5R  605   2.603   1.560   6.488  3.0600 -0.7355  0.5343
    1OL     H5S  606   2.510   1.465   6.376  0.1609 -1.6504  2.3010
    1OL     C16  607   2.678   1.556   6.289 -0.3416 -0.0616  0.5754
    1OL     H6R  608   2.785   1.572   6.304 -0.3590 -0.4566  1.1452
    1OL     H6S  609   2.631   1.655   6.280  2.6332  1.7470  3.0387
    1OL     C17  610   2.657   1.490   6.153  0.2089 -0.6809  0.5364
    1OL     H7R  611   2.551   1.482   6.129  0.4172 -4.0706  0.2760
    1OL     H7S  612   2.688   1.386   6.146 -1.0582 -1.0098 -0.7034
    1OL     C18  613   2.734   1.546   6.029 -0.5651 -0.7751 -0.0865
    1OL     H8R  614   2.725   1.477   5.945  0.4329 -1.0057 -0.0173
    1OL     H8S  615   2.841   1.541   6.051 -0.2653  4.4405  0.9360
    1OL     C19  616   2.709   1.684   5.983 -0.3296  0.6999  0.3410
    1OL     H9R  617   2.732   1.767   6.050 -0.5690 -0.2766  1.6513
    1OL    C110  618   2.660   1.724   5.869  1.3356  0.7355 -0.2256
    1OL    H10R  619   2.645   1.828   5.842  0.8779  0.4825 -0.9863
    1OL    C111  620   2.598   1.627   5.766 -0.3901 -0.1220 -0.6265
    1OL    H11R  621   2.495   1.607   5.794  0.1971 -0.5420  1.3730
    1OL    H11S  622   2.655   1.534   5.764  2.0411  1.2946 -1.7406
    1OL    C112  623   2.596   1.685   5.622  0.3228 -0.2987 -0.1443
    1OL    H12R  624   2.566   1.597   5.565  1.0038 -1.2137  0.8690
    1OL    H12S  625   2.698   1.719   5.602  0.0485  0.4291 -0.3291
    1OL    C113  626   2.496   1.803   5.594 -0.1553  0.0338 -0.2539
    1OL    H13R  627   2.513   1.875   5.674  0.4071 -0.2472 -0.1157
    1OL    H13S  628   2.398   1.759   5.616 -0.1211  0.5654  1.0261
    1OL    C114  629   2.505   1.871   5.462  0.1531 -0.3378 -0.7357
    1OL    H14R  630   2.530   1.791   5.393  2.2340 -1.8135  1.5747
    1OL    H14S  631   2.594   1.935   5.458 -0.5620  0.8681  1.0992
    1OL    C115  632   2.374   1.955   5.430 -0.3336  0.7022 -1.1191
    1OL    H15R  633   2.284   1.894   5.438 -2.1096  3.4108  3.1373
    1OL    H15S  634   2.379   1.980   5.323  1.2977  0.1443 -1.2047
    1OL    C116  635   2.335   2.074   5.511 -0.1955  0.7768  0.0221
    1OL    H16R  636   2.422   2.139   5.503  1.7782 -1.5886  0.8580
    1OL    H16S  637   2.323   2.046   5.616  2.0428  1.6789  0.5641
    1OL    C117  638   2.211   2.149   5.466  0.8320 -0.2617  0.6936
    1OL    H17R  639   2.213   2.160   5.357  1.1916  1.0008  0.7998
    1OL    H17S  640   2.213   2.248   5.512  2.3202  1.0187 -1.8766
    1OL    C118  641   2.078   2.075   5.512 -0.0441  0.2398 -0.0336
    1OL    H18R  642   2.082   2.056   5.619  0.1988 -3.4437 -0.5617
    1OL    H18S  643   2.055   1.979   5.466  0.7161  0.6566 -1.3244
    1OL    H18T  644   1.990   2.136   5.488 -1.0311 -0.6380  1.2287
    1PA    C116  645   2.300   3.049   5.812 -0.4734 -0.8251  0.6064
    1PA    H16R  646   2.227   3.041   5.731  2.2292  0.1498 -2.0969
    1PA    H16S  647   2.242   3.068   5.902  0.2633  0.5349  0.8147
    1PA    H16T  648   2.356   2.955   5.821  0.3873 -0.4510 -0.5502
    1PA    C115  649   2.401   3.167   5.792 -0.7590  0.5780 -1.0238
    1PA    H15R  650   2.454   3.161   5.697  0.6403  1.4202 -0.3219
    1PA    H15S  651   2.354   3.266   5.796  0.9495  1.5033 -2.4994
    1PA    C114  652   2.507   3.176   5.897 -0.1220  0.4494 -0.5692
    1PA    H14R  653   2.567   3.086   5.880 -0.2721  0.3811 -0.7379
    1PA    H14S  654   2.576   3.261   5.890 -1.3102  1.5010 -0.0200
    1PA    C113  655   2.453   3.171   6.044 -0.2237 -0.0610 -0.5672
    1PA    H13R  656   2.355   3.219   6.041 -0.4602 -0.4911 -0.0468
    1PA    H13S  657   2.448   3.064   6.066 -2.5979  0.2126  0.5745
    1PA    C112  658   2.558   3.233   6.142  0.2666  0.6026 -0.3853
    1PA    H12R  659   2.550   3.183   6.239  0.7967 -0.1949 -0.7403
    1PA    H12S  660   2.658   3.215   6.103 -0.3311 -0.2660 -1.5970
    1PA    C111  661   2.527   3.387   6.161 -0.6513  0.6005 -0.7415
    1PA    H11R  662   2.528   3.445   6.068  0.2198  1.9229  0.0615
    1PA    H11S  663   2.432   3.395   6.214 -1.4232  0.4660 -2.0467
    1PA    C110  664   2.639   3.453   6.248  0.2105  0.9309 -0.0131
    1PA    H10R  665   2.643   3.414   6.350 -0.0215  0.5372 -0.1530
    1PA    H10S  666   2.737   3.435   6.205 -0.9861  1.9113 -3.5049
    1PA     C19  667   2.636   3.607   6.270  0.2713 -0.0382 -0.5859
    1PA     H9R  668   2.725   3.637   6.327 -0.3873  1.9138 -0.5182
    1PA     H9S  669   2.652   3.643   6.169  0.2909 -2.0291 -1.3449
    1PA     C18  670   2.515   3.662   6.349 -0.0137 -0.3788  0.3512
    1PA     H8R  671   2.418   3.621   6.319 -2.1897  2.4889  2.7053
    1PA     H8S  672   2.529   3.631   6.453  1.8174  0.7240  0.4799
    1PA     C17  673   2.510   3.817   6.341  0.0303  0.2961 -1.0874
    1PA     H7R  674   2.496   3.852   6.238  1.0018  1.4123 -0.8511
    1PA     H7S  675   2.419   3.845   6.395 -0.4183 -1.6022 -0.7848
    1PA     C16  676   2.629   3.894   6.406  0.3643  0.3544  0.1574
    1PA     H6R  677   2.721   3.883   6.348  0.5187  3.3150 -0.3151
    1PA     H6S  678   2.603   4.000   6.407 -1.6246 -0.1066  0.8227
    1PA     C15  679   2.665   3.847   6.548 -0.0291 -0.1970  0.0514
    1PA     H5R  680   2.580   3.854   6.616 -0.1504  1.2704 -0.2348
    1PA     H5S  681   2.687   3.741   6.534  0.3468 -0.4592  2.3283
    1PA     C14  682   2.795   3.906   6.606  0.8116 -0.0969 -0.1553
    1PA     H4R  683   2.879   3.863   6.551  1.2384  0.2856  0.1941
    1PA     H4S  684   2.794   4.012   6.580 -2.5765 -0.1197 -0.6456
    1PA     C13  685   2.807   3.885   6.761 -0.4183  0.1725 -0.9719
    1PA     H3R  686   2.826   3.781   6.791 -0.6305  0.9504  2.1905
    1PA     H3S  687   2.890   3.943   6.801  1.2456 -3.6629  1.8714
    1PA     C12  688   2.690   3.938   6.848  0.2503  0.0290  0.0896
    1PA     H2R  689   2.687   4.047   6.841 -0.0881 -0.0181 -0.6564
    1PA     H2S  690   2.594   3.909   6.804 -1.5072  0.2983  3.4465
    1PC     C11  691   2.699   3.897   6.991  0.2402  0.2248  0.5157
    1PC     O12  692   2.743   3.965   7.084  0.3492  0.0527 -0.7193
    1PC     O11  693   2.649   3.774   7.004  0.8912  0.0579  0.2709
    1PC      C1  694   2.656   3.702   7.127 -0.5466  0.1334 -0.2801
    1PC      HR  695   2.760   3.670   7.137 -1.8419 -3.9633  3.0879
    1PC      HS  696   2.635   3.763   7.215 -0.3146 -1.6839  1.0928
    1PC      C2  697   2.568   3.572   7.129 -0.0308  0.7623 -0.2545
    1PC      HX  698   2.462   3.596   7.125 -0.6307 -1.7290 -0.8453
    1PC      C3  699   2.606   3.493   7.257 -0.0501 -0.0735 -0.0591
    1PC      HA  700   2.555   3.396   7.252 -1.4704  0.6895 -1.1475
    1PC      HB  701   2.712   3.485   7.281 -0.0515 -0.2083 -0.0979
    1PC     O31  702   2.554   3.572   7.366  0.6223  0.3114  0.9766
    1PC     P31  703   2.561   3.518   7.517 -0.0219  0.1274 -0.1212
    1PC     O32  704   2.418   3.468   7.540  0.1409  0.0216 -0.3346
    1PC     C31  705   2.375   3.333   7.512 -0.6922 -0.1534 -0.7301
    1PC     H1A  706   2.401   3.304   7.410 -0.7220 -0.7640 -0.5649
    1PC     H1B  707   2.434   3.267   7.575 -0.8128  0.6087  0.2012
    1PC     C32  708   2.234   3.310   7.548  0.5981 -0.4815  0.0239
    1PC     H2A  709   2.232   3.339   7.653  0.5876 -0.1324 -0.0716
    1PC     H2B  710   2.176   3.377   7.484 -0.0125 -1.6681 -0.7010
    1PC     N31  711   2.172   3.179   7.530  0.3293 -0.4129 -0.0678
    1PC     C33  712   2.238   3.070   7.604  0.2773  0.2277 -0.3374
    1PC     H3A  713   2.339   3.066   7.563  1.1287  2.4297  1.3580
    1PC     H3B  714   2.257   3.098   7.708  1.2802 -1.8114  0.0898
    1PC     H3C  715   2.178   2.978   7.604  1.8331 -0.9390  2.6874
    1PC     C34  716   2.032   3.198   7.578  0.5175 -0.0418  0.5852
    1PC     H4A  717   1.985   3.283   7.529  0.9257 -0.8580 -1.3107
    1PC     H4B  718   1.982   3.106   7.547  1.4759 -0.3258 -0.1531
    1PC     H4C  719   2.031   3.200   7.688  0.1817 -1.0622  0.6158
    1PC     C35  720   2.170   3.149   7.376  0.4886 -0.3839 -0.5242
    1PC     H5A  721   2.276   3.149   7.350  0.3053 -2.2206 -1.4677
    1PC     H5B  722   2.125   3.232   7.321 -0.7902 -1.0663 -0.5423
    1PC     H5C  723   2.121   3.052   7.364  2.1500 -1.5093  1.2649
    1PC     O33  724   2.650   3.401   7.533 -1.0170 -0.1246  0.2507
    1PC     O34  725   2.578   3.630   7.610  0.1476 -0.0893 -0.0898
    1PC     O21  726   2.612   3.497   7.012 -0.3642 -0.2416  0.2009
    1PC     C21  727   2.526   3.443   6.932  0.1540  0.0042 -0.1701
    1PC     O22  728   2.403   3.456   6.943  0.2030  0.3242  0.5975
    1OL     C12  729   2.568   3.349   6.824 -0.1822 -0.0683  0.4489
    1OL     H2R  730   2.485   3.332   6.755 -1.1625 -1.7956  1.9945
    1OL     H2S  731   2.596   3.256   6.872  0.8431  0.4122  0.8118
    1OL     C13  732   2.677   3.414   6.744 -0.3387  0.1572 -0.0085
    1OL     H3R  733   2.769   3.403   6.802 -0.5050 -2.1559 -0.0793
    1OL     H3S  734   2.664   3.518   6.713  1.0953 -0.6027 -3.6947
    1OL     C14  735   2.706   3.334   6.614  0.5511 -0.4291  0.0395
    1OL     H4R  736   2.755   3.403   6.545  1.0658 -0.7334  0.1034
    1OL     H4S  737   2.605   3.325   6.574  0.6569  1.5926 -0.8464
    1OL     C15  738   2.763   3.196   6.612 -0.0368  0.3212 -0.6426
    1OL     H5R  739   2.694   3.123   6.655 -0.1493  0.8530  0.0921
    1OL     H5S  740   2.854   3.201   6.671 -1.8067  0.5117  2.2569
    1OL     C16  741   2.778   3.165   6.467 -0.2755  0.4698  0.2812
    1OL     H6R  742   2.872   3.213   6.441 -0.4867 -0.2523 -1.9996
    1OL     H6S  743   2.694   3.214   6.418 -0.8760 -0.3383  0.4706
    1OL     C17  744   2.782   3.018   6.431 -0.1030  0.0093 -0.2555
    1OL     H7R  745   2.772   3.002   6.323  0.3381  0.1856 -0.3274
    1OL     H7S  746   2.698   2.963   6.473  0.9474 -1.0694  0.5360
    1OL     C18  747   2.916   2.952   6.478 -0.0156 -0.8411  0.0938
    1OL     H8R  748   2.923   2.844   6.477  0.6306 -0.8040 -1.1448
    1OL     H8S  749   2.943   2.990   6.577 -2.3533 -0.5649  0.6824
    1OL     C19  750   3.030   2.999   6.391 -0.1551  0.3203  0.4602
    1OL     H9R  751   3.099   3.078   6.420 -0.4309  0.5255  0.5623
    1OL    C110  752   3.062   2.942   6.271  0.1319  0.4513 -0.2429
    1OL    H10R  753   3.154   2.978   6.225 -0.3801  0.6304 -1.1457
    1OL    C111  754   2.981   2.842   6.193 -0.1884 -0.3409 -0.4001
    1OL    H11R  755   2.902   2.797   6.254  1.6146  0.5093  2.7963
    1OL    H11S  756   3.052   2.771   6.148  2.7287  2.2995 -0.2983
    1OL    C112  757   2.923   2.927   6.080 -1.0218 -0.4930 -0.4970
    1OL    H12R  758   3.001   2.993   6.043 -5.5220  3.9315 -3.3877
    1OL    H12S  759   2.847   2.991   6.125 -0.1233 -0.3394  0.8256
    1OL    C113  760   2.864   2.851   5.961  0.5374  0.3881  0.5140
    1OL    H13R  761   2.772   2.803   5.993  0.0735 -0.0532 -1.3778
    1OL    H13S  762   2.933   2.773   5.927 -0.4240  0.8156 -2.6947
    1OL    C114  763   2.826   2.938   5.839 -0.8212 -0.0914  0.0264
    1OL    H14R  764   2.917   2.976   5.792 -0.0834 -0.5997  0.9854
    1OL    H14S  765   2.765   3.018   5.881  1.3621  0.9828  1.3746
    1OL    C115  766   2.749   2.858   5.735  0.2711 -1.0183 -0.2980
    1OL    H15R  767   2.671   2.799   5.785  0.8003 -0.5353  1.1610
    1OL    H15S  768   2.821   2.785   5.698  1.4265 -0.7755  1.3562
    1OL    C116  769   2.690   2.956   5.633  0.4996 -0.8034  0.4311
    1OL    H16R  770   2.767   3.028   5.603 -0.6953 -0.6665 -2.7027
    1OL    H16S  771   2.608   3.016   5.672  0.4300 -0.9271  0.4745
    1OL    C117  772   2.629   2.881   5.517  0.3091  0.4808 -0.0384
    1OL    H17R  773   2.543   2.829   5.559  0.9257  0.6025  1.4359
    1OL    H17S  774   2.699   2.807   5.477  0.2390  1.4769 -2.1378
    1OL    C118  775   2.596   2.976   5.404  0.1433 -0.1817 -0.3748
    1OL    H18R  776   2.565   2.915   5.318 -0.0824  0.4029 -0.7175
    1OL    H18S  777   2.687   3.035   5.386  0.8473 -0.4266  2.0496
    1OL    H18T  778   2.517   3.050   5.419  1.0114  0.6143  0.4237
    1PA    C116  779   2.188   2.763   5.575 -0.0259  0.4130 -0.2494
    1PA    H16R  780   2.097   2.717   5.535 -0.1722  0.8816 -0.4679
    1PA    H16S  781   2.224   2.832   5.497 -3.2613  1.8214 -0.6507
    1PA    H16T  782   2.157   2.817   5.665 -0.0357 -0.4559  0.2786
    1PA    C115  783   2.300   2.658   5.602 -0.1845 -0.1428 -0.0301
    1PA    H15R  784   2.346   2.618   5.511 -0.7710 -0.9790  0.0331
    1PA    H15S  785   2.377   2.715   5.653 -0.2222 -0.2233  0.1167
    1PA    C114  786   2.241   2.545   5.702 -0.2423 -0.3226 -0.5448
    1PA    H14R  787   2.196   2.585   5.793 -0.7855 -1.8617 -0.1085
    1PA    H14S  788   2.174   2.487   5.639 -0.3476  1.4516 -2.1528
    1PA    C113  789   2.354   2.460   5.761  0.0854  0.2556 -0.1313
    1PA    H13R  790   2.413   2.421   5.678 -1.4835 -1.0496 -0.6856
    1PA    H13S  791   2.406   2.522   5.833  0.4483  0.1184 -0.2749
    1PA    C112  792   2.307   2.339   5.829  0.5904  0.0120 -0.3403
    1PA    H12R  793   2.223   2.365   5.893  0.1461 -1.9204 -0.0805
    1PA    H12S  794   2.268   2.275   5.750  0.5822  1.1760 -1.3110
    1PA    C111  795   2.417   2.269   5.914 -0.3215  0.5799  0.4611
    1PA    H11R  796   2.506   2.256   5.851  0.1963  1.3062  1.0310
    1PA    H11S  797   2.461   2.326   5.995  0.6434  0.5387 -0.0115
    1PA    C110  798   2.353   2.140   5.963  0.7507  0.6118 -0.2123
    1PA    H10R  799   2.298   2.175   6.051  0.2576 -0.8490  0.0912
    1PA    H10S  800   2.280   2.098   5.894  1.9935 -1.3149 -0.4455
    1PA     C19  801   2.467   2.043   6.007  0.0755  0.6629  0.3319
    1PA     H9R  802   2.426   1.961   6.066  1.4919  0.9239  1.7553
    1PA     H9S  803   2.522   2.000   5.923 -0.8635 -2.1233  1.0518
    1PA     C18  804   2.580   2.084   6.102  0.2815 -0.4556  0.0512
    1PA     H8R  805   2.664   2.016   6.093  1.2106  0.3421  2.1293
    1PA     H8S  806   2.615   2.185   6.079 -2.1953  0.7902  1.2969
    1PA     C17  807   2.539   2.085   6.248 -0.8428  0.1706 -0.2269
    1PA     H7R  808   2.469   2.166   6.267  1.0029  1.5158  1.1980
    1PA     H7S  809   2.494   1.990   6.277 -1.6006 -0.5839 -3.4204
    1PA     C16  810   2.672   2.104   6.330  0.9106  0.3133  0.4209
    1PA     H6R  811   2.732   2.015   6.307 -1.4451 -0.8758 -1.6614
    1PA     H6S  812   2.732   2.181   6.282  0.9425  0.4687  0.7081
    1PA     C15  813   2.657   2.121   6.484  0.0454  0.4189  0.2534
    1PA     H5R  814   2.744   2.166   6.531 -0.1417 -0.4402  1.4645
    1PA     H5S  815   2.580   2.195   6.510 -1.0815 -0.9109  0.8372
    1PA     C14  816   2.612   1.990   6.553  0.5520  0.0872  0.0239
    1PA     H4R  817   2.515   1.962   6.511  0.4908  0.7205 -0.2761
    1PA     H4S  818   2.669   1.898   6.536  1.0549  0.5902 -1.1914
    1PA     C13  819   2.603   2.017   6.706 -0.0520  0.7564  0.3666
    1PA     H3R  820   2.703   2.011   6.750 -0.2042 -0.6679  0.5642
    1PA     H3S  821   2.563   2.115   6.736  0.2108  0.6790  0.9890
    1PA     C12  822   2.518   1.910   6.775 -0.0012  0.4790 -0.3785
    1PA     H2R  823   2.413   1.929   6.752  0.2548  1.6718 -0.6222
    1PA     H2S  824   2.540   1.812   6.733 -0.4634  0.8619 -1.5301
    1PC     C11  825   2.538   1.907   6.928  0.5672 -0.2336  0.7575
    1PC     O12  826   2.549   2.003   7.003 -0.5700 -0.3328  0.1347
    1PC     O11  827   2.522   1.784   6.971 -0.2523 -0.0127 -0.2024
    1PC      C1  828   2.499   1.745   7.108  0.4654  0.0947 -0.4509
    1PC      HR  829   2.583   1.769   7.174  1.1907 -1.8696 -0.5967
    1PC      HS  830   2.413   1.796   7.152  0.3509 -1.1226  0.8133
    1PC      C2  831   2.484   1.587   7.114  0.1289 -0.0490  0.2787
    1PC      HX  832   2.421   1.571   7.202 -0.7356  0.0822 -0.3053
    1PC      C3  833   2.612   1.501   7.135 -0.6053  0.0928  0.0233
    1PC      HA  834   2.682   1.514   7.052  0.0399 -1.1192  0.3556
    1PC      HB  835   2.661   1.527   7.229  0.5529 -0.9344 -0.2784
    1PC     O31  836   2.585   1.352   7.140 -0.2334  0.0155 -0.2858
    1PC     P31  837   2.493   1.284   7.251  0.1537  0.2821 -0.1270
    1PC     O32  838   2.338   1.293   7.214  0.4529 -0.0162  0.1200
    1PC     C31  839   2.266   1.197   7.133 -0.3012  0.1831  0.0324
    1PC     H1A  840   2.166   1.229   7.102 -0.9779 -1.1603  0.7635
    1PC     H1B  841   2.321   1.197   7.038 -0.4033  2.9791 -0.0990
    1PC     C32  842   2.249   1.062   7.206 -0.0810 -0.3260 -0.2255
    1PC     H2A  843   2.233   0.990   7.125 -4.1671  0.3376 -0.2053
    1PC     H2B  844   2.345   1.032   7.247  0.6511  0.2494 -1.4489
    1PC     N31  845   2.135   1.048   7.305  0.0133 -0.2839 -0.2376
    1PC     C33  846   2.002   1.069   7.244 -0.3132 -0.4815 -0.3120
    1PC     H3A  847   1.935   0.998   7.292  0.4539  0.4834  2.3154
    1PC     H3B  848   1.966   1.171   7.255 -0.6718 -0.4963 -1.2465
    1PC     H3C  849   2.002   1.033   7.141 -1.6659  0.3718 -0.6288
    1PC     C34  850   2.133   0.912   7.359  0.3030 -0.6742  0.1098
    1PC     H4A  851   2.136   0.844   7.273 -0.5786 -0.8645  0.2152
    1PC     H4B  852   2.203   0.893   7.440 -0.2728 -1.2992  0.4771
    1PC     H4C  853   2.036   0.915   7.409  0.7879  1.8055  1.0301
    1PC     C35  854   2.148   1.152   7.411  0.0600 -0.4686  0.8168
    1PC     H5A  855   2.063   1.167   7.479 -1.5739  1.9840 -1.5863
    1PC     H5B  856   2.159   1.247   7.358 -1.0443 -0.1525  1.1287
    1PC     H5C  857   2.244   1.131   7.459 -0.2844 -2.0770  0.8711
    1PC     O33  858   2.535   1.145   7.253  0.4611  0.2749 -0.0751
    1PC     O34  859   2.518   1.358   7.377  0.8922 -0.2938 -0.1257
    1PC     O21  860   2.421   1.539   6.999 -0.4834  0.9761  0.5143
    1PC     C21  861   2.288   1.552   6.977  0.1982  0.1014 -0.0935
    1PC     O22  862   2.214   1.605   7.056 -0.2439 -0.3425  0.3693
    1OL     C12  863   2.233   1.488   6.851 -0.0855 -0.6541  0.6914
    1OL     H2R  864   2.136   1.442   6.870  0.1025 -2.4510 -2.1808
    1OL     H2S  865   2.300   1.409   6.815  1.7484  1.1869 -0.1329
    1OL     C13  866   2.221   1.590   6.736 -0.2407  0.3541  0.0775
    1OL     H3R  867   2.309   1.651   6.718 -0.4842  0.6317 -0.1831
    1OL     H3S  868   2.140   1.656   6.768  0.3501 -0.1469  2.9298
    1OL     C14  869   2.196   1.540   6.593  0.0957  0.2702  0.6026
    1OL     H4R  870   2.131   1.453   6.600  0.2371  0.0200 -0.9472
    1OL     H4S  871   2.282   1.505   6.537 -1.2275 -1.0382 -0.7133
    1OL     C15  872   2.136   1.649   6.499 -0.6290  0.9695 -0.1990
    1OL     H5R  873   2.045   1.680   6.549 -0.8480 -1.2062  0.8985
    1OL     H5S  874   2.113   1.608   6.400  1.6942  0.2339 -0.5081
    1OL     C16  875   2.234   1.776   6.494  0.1447  0.9539  0.2818
    1OL     H6R  876   2.333   1.741   6.465  0.3107  1.8132 -0.2238
    1OL     H6S  877   2.242   1.818   6.594  1.0108  0.5732  0.3772
    1OL     C17  878   2.187   1.884   6.395  0.3592 -0.2498 -0.2473
    1OL     H7R  879   2.244   1.974   6.420 -3.1537  1.6607  1.7972
    1OL     H7S  880   2.084   1.918   6.412  1.6642  4.4830 -0.2744
    1OL     C18  881   2.210   1.853   6.242 -0.6086  0.0490 -0.0226
    1OL     H8R  882   2.317   1.841   6.223 -0.2305  0.7015  1.4916
    1OL     H8S  883   2.193   1.949   6.193 -1.1279 -1.0910 -2.1542
    1OL     C19  884   2.122   1.740   6.187  0.3599  0.5648 -0.3066
    1OL     H9R  885   2.016   1.737   6.212  0.6595 -0.7942  0.9178
    1OL    C110  886   2.163   1.623   6.133 -0.4928  0.5537  0.1959
    1OL    H10R  887   2.089   1.547   6.110 -0.6562  0.7629  0.0282
    1OL    C111  888   2.306   1.590   6.090  0.8171 -0.3327 -0.1703
    1OL    H11R  889   2.361   1.533   6.165  1.6253  1.4936  0.6658
    1OL    H11S  890   2.366   1.676   6.061  0.7836 -0.7870 -1.6697
    1OL    C112  891   2.292   1.499   5.970  0.8176  0.1491 -0.0197
    1OL    H12R  892   2.230   1.415   6.002 -0.6395  0.4131 -1.9355
    1OL    H12S  893   2.394   1.471   5.945  0.2610  0.1252 -2.4876
    1OL    C113  894   2.237   1.565   5.841  0.1463 -0.7008  0.2852
    1OL    H13R  895   2.268   1.667   5.820 -0.9080 -0.6119 -0.9737
    1OL    H13S  896   2.130   1.574   5.862  0.3727 -0.0767  1.2133
    1OL    C114  897   2.244   1.469   5.718  0.0348 -0.2477 -0.2827
    1OL    H14R  898   2.195   1.376   5.748  0.0854 -0.1958 -0.0367
    1OL    H14S  899   2.348   1.441   5.700  0.5482  1.2551  0.1782
    1OL    C115  900   2.189   1.531   5.584  0.0665  0.2995  0.2301
    1OL    H15R  901   2.237   1.625   5.557  0.7727  0.0481  0.5793
    1OL    H15S  902   2.082   1.551   5.592 -0.1737 -0.8030 -0.1206
    1OL    C116  903   2.192   1.425   5.469  0.0723  0.4611  0.2930
    1OL    H16R  904   2.290   1.376   5.468  0.7266  1.7417 -0.2581
    1OL    H16S  905   2.190   1.484   5.377  1.2764 -1.1541 -0.8358
    1OL    C117  906   2.080   1.317   5.484  0.4376 -0.3951  0.2569
    1OL    H17R  907   1.978   1.357   5.479  0.0674 -1.3541 -0.1629
    1OL    H17S  908   2.092   1.272   5.582 -0.2116  1.8694  1.4707
    1OL    C118  909   2.082   1.205   5.379  0.2456  0.4889  0.2248
    1OL    H18R  910   2.017   1.126   5.417  2.2705 -0.9411  0.8354
    1OL    H18S  911   2.179   1.166   5.348 -0.0034 -0.1765  0.2726
    1OL    H18T  912   2.038   1.250   5.289  0.4083 -0.3371 -0.2722
    1PA    C116  913   2.953   3.266   5.557  0.3635  0.3072 -0.1996
    1PA    H16R  914   2.892   3.282   5.469 -0.5088 -2.1101 -0.1064
    1PA    H16S  915   2.937   3.169   5.604  0.3729 -0.3158 -1.4472
    1PA    H16T  916   3.057   3.279   5.525 -0.1090  3.0064 -0.8374
    1PA    C115  917   2.915   3.379   5.656 -0.2351 -0.2902  0.4504
    1PA    H15R  918   2.938   3.470   5.601  2.3595 -2.2173 -1.9767
    1PA    H15S  919   2.806   3.382   5.667 -0.5829 -0.5814 -2.1842
    1PA    C114  920   2.990   3.386   5.789 -0.2939 -0.6450 -0.1488
    1PA    H14R  921   3.078   3.323   5.777 -0.5659 -1.2885  1.0552
    1PA    H14S  922   3.018   3.491   5.798 -0.8324 -0.3815 -1.3049
    1PA    C113  923   2.907   3.329   5.902 -0.0619  0.0539 -0.3765
    1PA    H13R  924   2.831   3.402   5.926 -2.2235 -1.5841 -1.8426
    1PA    H13S  925   2.857   3.239   5.866  1.8898 -1.5060  0.5658
    1PA    C112  926   2.993   3.278   6.022  0.0519  0.3616  0.2189
    1PA    H12R  927   2.932   3.223   6.095  1.4202  1.0495  1.9498
    1PA    H12S  928   3.068   3.205   5.990  0.8636  0.0827  2.5410
    1PA    C111  929   3.060   3.394   6.102 -0.6005  0.3971  0.1636
    1PA    H11R  930   3.148   3.426   6.046  0.7731 -1.4589  1.1881
    1PA    H11S  931   2.990   3.474   6.127 -1.2501 -0.7877  2.4145
    1PA    C110  932   3.109   3.340   6.238  0.3433  0.5563  0.5291
    1PA    H10R  933   3.024   3.316   6.302 -0.4091 -0.1676 -0.6889
    1PA    H10S  934   3.161   3.247   6.212 -2.6965 -1.0554 -0.2853
    1PA     C19  935   3.208   3.439   6.302 -0.0500 -0.1238  0.3788
    1PA     H9R  936   3.288   3.461   6.230  1.0590 -0.0905  1.5819
    1PA     H9S  937   3.169   3.540   6.313 -0.9095 -0.6652  2.8054
    1PA     C18  938   3.276   3.387   6.442 -0.0396 -0.1084  0.8314
    1PA     H8R  939   3.314   3.286   6.429 -2.5819 -1.0779  0.3240
    1PA     H8S  940   3.360   3.452   6.465  0.5992 -0.0181 -1.5156
    1PA     C17  941   3.177   3.393   6.551  0.2289  0.2211 -0.6912
    1PA     H7R  942   3.131   3.492   6.562  1.8385  0.7873  1.4710
    1PA     H7S  943   3.097   3.319   6.541  0.3919 -0.2946  1.3786
    1PA     C16  944   3.236   3.347   6.680  0.3621 -0.3975  0.3750
    1PA     H6R  945   3.260   3.241   6.665  1.8339  0.0014 -0.2669
    1PA     H6S  946   3.326   3.406   6.700  0.5253 -0.7631  0.7475
    1PA     C15  947   3.150   3.362   6.810 -0.3849  0.2102  0.1672
    1PA     H5R  948   3.085   3.274   6.816 -0.4356  0.1922 -0.5958
    1PA     H5S  949   3.219   3.354   6.895 -0.9297  0.6061  0.6515
    1PA     C14  950   3.063   3.486   6.818  0.1338 -0.6663 -0.0079
    1PA     H4R  951   3.131   3.571   6.819  0.4578 -0.8679  2.7774
    1PA     H4S  952   2.990   3.501   6.738  0.0001  2.1244  0.5542
    1PA     C13  953   2.980   3.495   6.954  0.2676 -0.0112  0.1332
    1PA     H3R  954   2.921   3.587   6.959  1.5979  0.8112  1.7745
    1PA     H3S  955   2.907   3.415   6.965 -0.9260  1.1882  1.2458
    1PA     C12  956   3.077   3.513   7.073  0.3572  0.5557  0.1229
    1PA     H2R  957   3.094   3.421   7.128  1.4772  0.0197 -1.0640
    1PA     H2S  958   3.174   3.552   7.040  0.8097  0.0098  0.7841
    1PC     C11  959   3.033   3.618   7.168 -0.1666 -0.0964 -0.2399
    1PC     O12  960   2.986   3.595   7.280  0.7136  0.0738  0.1376
    1PC     O11  961   3.049   3.739   7.115  0.1088 -0.1700  0.0823
    1PC      C1  962   3.017   3.855   7.196 -0.1269 -0.3329 -0.1318
    1PC      HR  963   3.018   3.943   7.131  1.2202 -1.8058 -2.2645
    1PC      HS  964   2.925   3.838   7.252  0.4079 -1.8033  0.3366
    1PC      C2  965   3.115   3.880   7.308 -0.3399 -0.5012  0.3900
    1PC      HX  966   3.141   3.783   7.352 -0.1532 -2.8716 -4.2701
    1PC      C3  967   3.061   3.986   7.411  0.4596  0.3760  0.0252
    1PC      HA  968   3.064   4.081   7.356 -1.9124  1.0435  0.9321
    1PC      HB  969   2.957   3.969   7.440  1.2814  0.2941  3.4385
    1PC     O31  970   3.143   3.993   7.537  0.4264 -0.2977  0.2281
    1PC     P31  971   3.101   3.892   7.655  0.1689  0.1254  0.3138
    1PC     O32  972   3.120   3.746   7.587  0.2080  0.1452  0.0095
    1PC     C31  973   3.246   3.679   7.575 -0.2095 -0.4214 -0.1063
    1PC     H1A  974   3.303   3.718   7.490 -2.3875 -1.3178 -2.0920
    1PC     H1B  975   3.311   3.700   7.660  0.7967 -0.4137 -0.8616
    1PC     C32  976   3.235   3.526   7.552 -0.0157 -0.0977  0.3113
    1PC     H2A  977   3.190   3.477   7.639  1.0678 -0.8640  0.4573
    1PC     H2B  978   3.165   3.521   7.469 -0.2686  1.2169  0.4206
    1PC     N31  979   3.362   3.450   7.518  0.1070 -0.6176  0.2236
    1PC     C33  980   3.474   3.481   7.614  0.3734  0.2232 -0.8335
    1PC     H3A  981   3.518   3.577   7.589 -1.0913  1.3035  0.5239
    1PC     H3B  982   3.432   3.490   7.715  0.1251  1.2590 -1.0210
    1PC     H3C  983   3.547   3.399   7.619  0.3764  0.1859 -1.4259
    1PC     C34  984   3.328   3.306   7.530 -0.3212 -0.7623 -0.1569
    1PC     H4A  985   3.385   3.253   7.453  1.4942 -2.8008  2.4001
    1PC     H4B  986   3.355   3.274   7.631 -0.2579 -2.6005 -0.7324
    1PC     H4C  987   3.222   3.290   7.514 -0.0226 -4.0421  0.4209
    1PC     C35  988   3.418   3.471   7.379 -0.6429 -0.0400  0.3046
    1PC     H5A  989   3.525   3.453   7.368 -0.4238  1.1167  0.3492
    1PC     H5B  990   3.405   3.575   7.346  1.5726  0.4766  0.8922
    1PC     H5C  991   3.365   3.413   7.303  2.1720  0.2967 -2.1294
    1PC     O33  992   3.203   3.903   7.764  0.8061 -0.2080  0.2978
    1PC     O34  993   2.960   3.916   7.689  0.1459 -0.1124  0.4469
    1PC     O21  994   3.240   3.931   7.255 -0.0432  0.4340 -0.2780
    1PC     C21  995   3.336   3.846   7.217 -0.6885 -0.1398  0.1406
    1PC     O22  996   3.334   3.723   7.222  0.0783 -0.2984  0.0784
    1OL     C12  997   3.453   3.924   7.167  0.3194 -0.8996  1.0605
    1OL     H2R  998   3.535   3.860   7.135 -0.2189 -1.2553  0.3362
    1OL     H2S  999   3.483   3.980   7.256 -2.3044 -0.3208  1.6886
    1OL     C13 1000   3.416   4.031   7.057  0.4784 -0.3960 -0.4804
    1OL     H3R 1001   3.498   4.103   7.054 -0.2809  0.5873  1.2237
    1OL     H3S 1002   3.337   4.095   7.095 -1.4198 -1.3974 -2.5083
    1OL     C14 1003   3.390   3.984   6.909  0.1789 -0.3827  0.4975
    1OL     H4R 1004   3.474   3.926   6.870  0.9916  1.6521 -0.9792
    1OL     H4S 1005   3.383   4.075   6.849  2.9105 -1.4393 -1.6329
    1OL     C15 1006   3.255   3.902   6.918 -0.1490 -0.0860  0.0132
    1OL     H5R 1007   3.194   3.953   6.993  0.8085  0.4503  0.4423
    1OL     H5S 1008   3.269   3.796   6.942 -2.7102 -0.9010 -1.6654
    1OL     C16 1009   3.174   3.909   6.788 -0.4016 -0.0395 -0.1751
    1OL     H6R 1010   3.095   3.835   6.799  0.2940 -0.6371  1.0572
    1OL     H6S 1011   3.135   4.008   6.762  0.8444  0.4208 -0.3673
    1OL     C17 1012   3.253   3.854   6.670 -0.0464  0.2863  0.6925
    1OL     H7R 1013   3.297   3.757   6.696 -1.7947 -1.1095 -1.2143
    1OL     H7S 1014   3.337   3.923   6.654 -1.5674  2.0377 -0.1006
    1OL     C18 1015   3.174   3.828   6.535  0.0722  0.1774 -0.1550
    1OL     H8R 1016   3.146   3.927   6.496 -2.1778 -0.2051  0.3476
    1OL     H8S 1017   3.082   3.773   6.555  0.5453 -1.2644 -1.7967
    1OL     C19 1018   3.262   3.758   6.430 -0.3478  1.0235  0.3511
    1OL     H9R 1019   3.323   3.681   6.476 -1.2019  1.0757  1.6378
    1OL    C110 1020   3.269   3.792   6.300  1.2527  0.3580 -0.3617
    1OL    H10R 1021   3.332   3.727   6.239  0.6230  0.5634 -1.2473
    1OL    C111 1022   3.184   3.902   6.237  0.7296 -0.0276 -0.2308
    1OL    H11R 1023   3.237   3.941   6.150  0.7536 -0.4448 -0.4095
    1OL    H11S 1024   3.166   3.992   6.295  0.3926 -1.1592  1.5181
    1OL    C112 1025   3.051   3.845   6.183 -0.1820 -0.0848 -0.6477
    1OL    H12R 1026   2.983   3.813   6.262 -0.6786 -0.8671 -1.3616
    1OL    H12S 1027   3.080   3.759   6.123  2.0008  0.6383 -0.6896
    1OL    C113 1028   2.976   3.953   6.112  0.5553  0.9353  0.5221
    1OL    H13R 1029   3.032   3.988   6.025 -1.5420 -2.6171 -2.5649
    1OL    H13S 1030   2.959   4.035   6.181 -0.1171 -0.2774  1.8347
    1OL    C114 1031   2.834   3.911   6.054  0.6277  0.4595  0.2502
    1OL    H14R 1032   2.780   4.001   6.025  2.0137  1.3976  0.5191
    1OL    H14S 1033   2.764   3.866   6.126  0.9857  0.2131  0.4502
    1OL    C115 1034   2.859   3.832   5.925  0.1965 -0.2242 -0.1883
    1OL    H15R 1035   2.762   3.789   5.898 -0.7323  0.9021  1.2158
    1OL    H15S 1036   2.921   3.743   5.942  0.3517 -0.2388 -0.8104
    1OL    C116 1037   2.884   3.920   5.806 -0.2470 -0.4212 -0.2326
    1OL    H16R 1038   2.985   3.958   5.822 -0.7496  0.4628  0.8779
    1OL    H16S 1039   2.819   4.007   5.805 -0.1986 -0.3830  0.0309
    1OL    C117 1040   2.896   3.836   5.679 -0.5305 -0.3991  0.3778
    1OL    H17R 1041   2.795   3.798   5.661 -0.5920 -0.1405  0.1683
    1OL    H17S 1042   2.962   3.752   5.700  0.7262  0.5231  0.1652
    1OL    C118 1043   2.946   3.917   5.559 -0.7060 -0.9323  0.3560
    1OL    H18R 1044   2.925   3.875   5.460  1.5247  0.3888 -0.7666
    1OL    H18S 1045   3.046   3.958   5.577 -2.1724  2.1508  2.1371
    1OL    H18T 1046   2.885   4.007   5.556  0.5276 -0.0089  1.7308
    1PA    C116 1047   3.325   3.776   5.712 -0.3734  0.8838 -0.4412
    1PA    H16R 1048   3.295   3.782   5.607  2.4935  1.6920 -1.3085
    1PA    H16S 1049   3.424   3.823   5.715  0.4677 -0.8163 -0.0060
    1PA    H16T 1050   3.247   3.833   5.761 -0.3077  1.9780 -1.5490
    1PA    C115 1051   3.331   3.629   5.767  0.7407 -0.2032  0.6124
    1PA    H15R 1052   3.232   3.584   5.756  0.1002  1.1643  0.4646
    1PA    H15S 1053   3.398   3.577   5.698  1.6131  1.5607  0.0680
    1PA    C114 1054   3.384   3.635   5.914 -0.4360  0.3246 -0.0370
    1PA    H14R 1055   3.315   3.696   5.973  0.7563  0.5460  1.1824
    1PA    H14S 1056   3.391   3.534   5.954  0.9398  0.0534 -0.9132
    1PA    C113 1057   3.521   3.704   5.921 -0.8912 -0.1316  0.1371
    1PA    H13R 1058   3.579   3.657   5.841 -1.9168 -1.4135  0.1272
    1PA    H13S 1059   3.506   3.808   5.890 -2.3415 -1.0006 -2.3518
    1PA    C112 1060   3.585   3.700   6.058  0.4987 -0.0473  0.3587
    1PA    H12R 1061   3.678   3.754   6.043 -0.0330  1.1605  1.2414
    1PA    H12S 1062   3.525   3.758   6.128 -1.4502  0.3281 -1.5025
    1PA    C111 1063   3.629   3.572   6.114 -0.5149  0.6627 -0.1339
    1PA    H11R 1064   3.548   3.499   6.108 -0.4046  0.6799 -3.6568
    1PA    H11S 1065   3.699   3.531   6.041  0.6829 -0.7705  1.7086
    1PA    C110 1066   3.695   3.571   6.256  0.1555  0.0584  0.6444
    1PA    H10R 1067   3.740   3.474   6.278 -0.5047 -0.1991  0.8932
    1PA    H10S 1068   3.778   3.641   6.243 -1.6726  1.9425 -2.0859
    1PA     C19 1069   3.602   3.612   6.373 -0.3996 -0.0814  0.5644
    1PA     H9R 1070   3.584   3.719   6.364 -1.2937 -0.2811 -0.2358
    1PA     H9S 1071   3.500   3.576   6.353 -0.8993  2.5885 -2.4394
    1PA     C18 1072   3.661   3.561   6.506 -0.0981  0.0766 -0.0486
    1PA     H8R 1073   3.696   3.459   6.495  0.1235  0.2666 -1.2380
    1PA     H8S 1074   3.759   3.609   6.517  2.3107 -4.1477 -1.2047
    1PA     C17 1075   3.578   3.585   6.630  0.1890  0.1718  0.1662
    1PA     H7R 1076   3.578   3.691   6.654  1.7932  0.1965  0.1411
    1PA     H7S 1077   3.479   3.551   6.597  0.9535 -1.1890 -0.8471
    1PA     C16 1078   3.623   3.519   6.757 -0.0877  0.4921  0.0428
    1PA     H6R 1079   3.623   3.410   6.746 -0.3015  0.3261  1.5487
    1PA     H6S 1080   3.729   3.538   6.773  0.4042 -1.7507 -0.2702
    1PA     C15 1081   3.553   3.554   6.890 -0.4252 -0.4817  0.2856
    1PA     H5R 1082   3.566   3.662   6.904  0.6836 -0.8335  2.3743
    1PA     H5S 1083   3.447   3.531   6.883 -0.1984 -1.8791  1.1856
    1PA     C14 1084   3.629   3.505   7.014  0.2189 -0.7131 -0.4659
    1PA     H4R 1085   3.734   3.536   7.017  1.1953 -3.6068  2.7727
    1PA     H4S 1086   3.583   3.543   7.105  2.1398 -2.5176  1.3895
    1PA     C13 1087   3.617   3.353   7.002  0.0777 -0.1637 -0.4206
    1PA     H3R 1088   3.512   3.331   6.984  0.6209 -1.4997 -2.3234
    1PA     H3S 1089   3.675   3.306   6.922  0.4666 -0.5510  0.0798
    1PA     C12 1090   3.663   3.288   7.132 -0.1932  0.1104 -0.4883
    1PA     H2R 1091   3.604   3.331   7.213 -1.5389  0.6937 -1.7487
    1PA     H2S 1092   3.649   3.179   7.128  1.4328 -0.2008  0.7114
    1PC     C11 1093   3.809   3.316   7.152 -0.6173 -0.2042  0.2421
    1PC     O12 1094   3.892   3.304   7.064 -0.1358  0.2075 -0.1367
    1PC     O11 1095   3.835   3.369   7.271 -0.4528 -0.0178  0.1004
    1PC      C1 1096   3.970   3.415   7.307 -0.4796 -0.6093 -0.0027
    1PC      HR 1097   3.999   3.402   7.411 -0.3486 -1.0660 -0.0947
    1PC      HS 1098   4.047   3.363   7.249  0.1352  0.8103 -0.5074
    1PC      C2 1099   3.991   3.569   7.279  0.2455 -0.3886 -0.9078
    1PC      HX 1100   4.097   3.588   7.298  0.5013 -1.7400 -0.8573
    1PC      C3 1101   3.912   3.655   7.379 -0.3642  0.5756 -0.2479
    1PC      HA 1102   3.861   3.740   7.333 -0.0286 -0.9133 -3.6714
    1PC      HB 1103   3.832   3.591   7.416 -0.5543  0.6168 -0.5884
    1PC     O31 1104   4.010   3.701   7.475 -0.3770 -0.3971 -0.6540
    1PC     P31 1105   4.013   3.644   7.621 -0.1355 -0.2863 -0.2484
    1PC     O32 1106   4.124   3.529   7.615 -0.4381 -0.0360  0.0220
    1PC     C31 1107   4.261   3.544   7.572  0.0664 -0.8264  0.0103
    1PC     H1A 1108   4.283   3.439   7.552 -0.1598 -0.5739 -1.7792
    1PC     H1B 1109   4.267   3.603   7.480 -0.4323  2.1975  1.7822
    1PC     C32 1110   4.348   3.600   7.679 -0.6168  0.1882  0.2562
    1PC     H2A 1111   4.450   3.607   7.643 -0.5704 -0.1877  0.3102
    1PC     H2B 1112   4.318   3.702   7.703 -1.6225 -0.5273  2.2551
    1PC     N31 1113   4.366   3.524   7.809 -0.0756  0.3710  0.2305
    1PC     C33 1114   4.248   3.538   7.899  0.1655  0.5901 -0.2305
    1PC     H3A 1115   4.166   3.509   7.834 -0.3070 -1.8855  1.2966
    1PC     H3B 1116   4.256   3.490   7.997 -1.6459 -1.9984 -1.2388
    1PC     H3C 1117   4.246   3.645   7.918 -1.0859  0.6133 -0.4282
    1PC     C34 1118   4.400   3.380   7.786 -0.0569  0.0394  0.3969
    1PC     H4A 1119   4.320   3.340   7.725 -0.6104  0.0028  1.1274
    1PC     H4B 1120   4.495   3.371   7.734  0.4441 -0.3768  1.3488
    1PC     H4C 1121   4.398   3.317   7.875 -0.6943 -0.0889  0.2956
    1PC     C35 1122   4.485   3.586   7.876  0.4994 -0.4257  0.8529
    1PC     H5A 1123   4.489   3.556   7.980 -0.9681 -0.0547  1.0364
    1PC     H5B 1124   4.482   3.695   7.865 -1.6726 -0.5406 -0.1535
    1PC     H5C 1125   4.569   3.539   7.825 -0.5794 -1.8397  0.3087
    1PC     O33 1126   4.060   3.746   7.710  0.7939 -0.0433  0.0607
    1PC     O34 1127   3.881   3.581   7.648  0.1802  0.3130  0.0379
    1PC     O21 1128   3.966   3.594   7.137  0.4990  0.1468  0.2328
    1PC     C21 1129   4.068   3.566   7.056 -0.1188  0.4696  0.3039
    1PC     O22 1130   4.182   3.542   7.100  0.2164 -0.3485 -0.3819
    1OL     C12 1131   4.023   3.560   6.913  0.4298  0.4573  0.5049
    1OL     H2R 1132   3.948   3.636   6.892 -0.5933 -0.4270  0.8361
    1OL     H2S 1133   3.967   3.466   6.907 -4.6939  3.1034  0.8531
    1OL     C13 1134   4.136   3.572   6.813  0.3593  0.2841  0.4455
    1OL     H3R 1135   4.204   3.487   6.816 -3.0899 -2.6926  0.4760
    1OL     H3S 1136   4.192   3.663   6.837  0.8730 -0.1622  0.9847
    1OL     C14 1137   4.083   3.587   6.671  0.7260  0.2227  0.3025
    1OL     H4R 1138   3.999   3.656   6.662 -0.4685 -1.2876 -0.5905
    1OL     H4S 1139   4.034   3.490   6.658  1.7149 -0.1790 -0.6308
    1OL     C15 1140   4.186   3.597   6.561 -0.1894 -0.1200 -0.1902
    1OL     H5R 1141   4.260   3.517   6.558 -1.4632 -1.3106 -1.9780
    1OL     H5S 1142   4.239   3.691   6.578 -2.5522  1.1937  0.2977
    1OL     C16 1143   4.125   3.604   6.420  0.1921  0.2187  0.8576
    1OL     H6R 1144   4.065   3.693   6.400  0.4811  0.2617  0.1601
    1OL     H6S 1145   4.055   3.520   6.419  0.8488 -0.3385  0.4977
    1OL     C17 1146   4.230   3.587   6.313  0.4476  0.1445 -0.0677
    1OL     H7R 1147   4.289   3.497   6.326 -1.0805 -0.6933  1.5339
    1OL     H7S 1148   4.312   3.657   6.332  0.9685 -0.5527  0.2883
    1OL     C18 1149   4.189   3.606   6.173  0.3041  0.1770 -0.1543
    1OL     H8R 1150   4.274   3.620   6.107  0.1836  0.1989 -0.3055
    1OL     H8S 1151   4.126   3.696   6.177 -0.7646 -0.5887  1.3501
    1OL     C19 1152   4.094   3.501   6.144 -0.2242  0.4014  0.3873
    1OL     H9R 1153   4.062   3.444   6.230  2.0674  0.3322  1.2698
    1OL    C110 1154   4.040   3.471   6.028  0.1746 -1.0480  0.7308
    1OL    H10R 1155   3.964   3.394   6.015 -2.1356  1.2811 -0.3063
    1OL    C111 1156   4.068   3.543   5.901 -0.4289 -0.3030  0.7812
    1OL    H11R 1157   4.099   3.482   5.816  0.2055  3.0369 -1.5905
    1OL    H11S 1158   4.144   3.619   5.917 -0.2836 -0.8716  3.1015
    1OL    C112 1159   3.941   3.624   5.863 -0.2521 -0.0436  0.1531
    1OL    H12R 1160   3.917   3.697   5.941  1.4370  2.9854 -1.9167
    1OL    H12S 1161   3.862   3.549   5.865  0.8838 -1.2904 -0.2362
    1OL    C113 1162   3.943   3.680   5.720  0.2153 -0.4701 -0.3143
    1OL    H13R 1163   3.940   3.596   5.650 -0.0369 -1.5318  0.9493
    1OL    H13S 1164   4.039   3.727   5.696  0.2301 -0.3751 -0.0764
    1OL    C114 1165   3.814   3.765   5.705  0.2964  0.5380  0.0865
    1OL    H14R 1166   3.795   3.825   5.795 -2.0470  0.0307  0.0008
    1OL    H14S 1167   3.725   3.702   5.714  0.0036  1.2014  3.5200
    1OL    C115 1168   3.814   3.854   5.578 -0.0390 -0.4028 -0.2123
    1OL    H15R 1169   3.866   3.805   5.495  0.3694 -1.6571  0.7544
    1OL    H15S 1170   3.855   3.953   5.597  1.3923 -0.5278 -2.3174
    1OL    C116 1171   3.669   3.895   5.535 -0.1444 -0.2175 -0.0948
    1OL    H16R 1172   3.615   3.937   5.620 -0.4807 -1.2148  0.1989
    1OL    H16S 1173   3.618   3.807   5.494  0.1718 -0.0974 -0.7573
    1OL    C117 1174   3.661   3.993   5.426  0.0480  0.1018 -0.9001
    1OL    H17R 1175   3.695   4.088   5.469  2.0236 -1.2771  0.8632
    1OL    H17S 1176   3.561   4.010   5.386 -0.1178  1.6471  0.0904
    1OL    C118 1177   3.732   3.967   5.298 -0.1703  0.0938 -0.0770
    1OL    H18R 1178   3.840   3.974   5.314 -0.3679  0.7066  1.0618
    1OL    H18S 1179   3.705   4.048   5.230  0.3914  0.5464  0.2199
    1OL    H18T 1180   3.702   3.874   5.251  2.5547  0.5346 -3.0332
    1PA    C116 1181   3.943   2.307   5.482 -0.1333  0.2657 -0.3709
    1PA    H16R 1182   4.050   2.310   5.462  0.0819  1.3154  0.8164
    1PA    H16S 1183   3.896   2.328   5.386  1.2777 -0.7328 -1.3255
    1PA    H16T 1184   3.913   2.204   5.501  1.2467 -0.0668  0.1245
    1PA    C115 1185   3.892   2.403   5.595 -0.8840 -0.0426 -0.4362
    1PA    H15R 1186   3.910   2.505   5.563  1.5487 -0.6512 -1.2332
    1PA    H15S 1187   3.784   2.396   5.606 -1.0010 -0.1429 -1.5524
    1PA    C114 1188   3.971   2.383   5.725 -0.0487 -0.1378  0.0029
    1PA    H14R 1189   3.938   2.289   5.771  0.4456  0.1624  1.0019
    1PA    H14S 1190   4.074   2.361   5.695 -0.4050 -0.3346 -1.1284
    1PA    C113 1191   3.959   2.499   5.826  0.2715 -0.1675 -0.1488
    1PA    H13R 1192   3.990   2.586   5.768  1.7057 -0.3523  0.2989
    1PA    H13S 1193   3.858   2.510   5.866 -0.1750 -2.8504 -0.3221
    1PA    C112 1194   4.053   2.465   5.942  0.5864  0.0941  0.2274
    1PA    H12R 1195   4.035   2.361   5.970 -1.1910  0.0825 -0.7950
    1PA    H12S 1196   4.157   2.474   5.909  0.2818 -2.9714 -2.0136
    1PA    C111 1197   4.029   2.567   6.056  0.0404  0.3769  0.4317
    1PA    H11R 1198   4.103   2.539   6.131  1.6255  1.0865 -0.8168
    1PA    H11S 1199   4.060   2.668   6.030 -2.3026  1.1991  0.5578
    1PA    C110 1200   3.888   2.567   6.129  0.2777  0.5160  0.0355
    1PA    H10R 1201   3.882   2.658   6.189 -1.8622 -0.6048  1.6336
    1PA    H10S 1202   3.812   2.581   6.052 -0.1633  0.9021  0.5315
    1PA     C19 1203   3.859   2.437   6.213  0.3416 -0.7634  0.1553
    1PA     H9R 1204   3.753   2.440   6.237 -0.2969  0.8048 -2.3878
    1PA     H9S 1205   3.872   2.358   6.139 -0.2143 -0.9256  0.2325
    1PA     C18 1206   3.960   2.399   6.325  0.3133 -0.3723  0.4758
    1PA     H8R 1207   3.928   2.308   6.376 -0.3837 -0.5928 -0.3251
    1PA     H8S 1208   4.045   2.357   6.273 -1.2459 -3.6278  0.3469
    1PA     C17 1209   3.993   2.513   6.422  0.4458 -0.0753 -0.5089
    1PA     H7R 1210   4.043   2.597   6.373  0.5948  0.9748  1.3723
    1PA     H7S 1211   3.913   2.556   6.483  2.5322  1.1386  1.5642
    1PA     C16 1212   4.086   2.463   6.536 -0.5516 -0.1327  0.8733
    1PA     H6R 1213   4.084   2.538   6.616  2.0821 -1.7838  2.6651
    1PA     H6S 1214   4.048   2.367   6.571  2.0819 -2.4011 -1.9995
    1PA     C15 1215   4.242   2.450   6.508  0.5237 -0.3868  0.0090
    1PA     H5R 1216   4.288   2.394   6.589  1.3193  1.0494  0.5818
    1PA     H5S 1217   4.251   2.392   6.416  0.2349 -1.1316  0.4468
    1PA     C14 1218   4.318   2.587   6.497  0.2896  0.2623  0.0933
    1PA     H4R 1219   4.414   2.567   6.451 -0.6861  0.3604 -2.0900
    1PA     H4S 1220   4.284   2.659   6.422  1.1442 -0.6939 -1.2377
    1PA     C13 1221   4.346   2.651   6.636  0.1217 -0.2377 -0.0796
    1PA     H3R 1222   4.269   2.644   6.713  1.4849  1.2694  1.4844
    1PA     H3S 1223   4.437   2.606   6.676 -0.0082 -0.6999 -0.2928
    1PA     C12 1224   4.366   2.803   6.616  0.4406  0.4325 -0.9461
    1PA     H2R 1225   4.434   2.827   6.535 -0.7370  2.4640 -1.3973
    1PA     H2S 1226   4.277   2.859   6.588 -1.2195 -0.3840  2.1745
    1PC     C11 1227   4.415   2.856   6.753 -0.5028  0.5150  0.1828
    1PC     O12 1228   4.499   2.800   6.821  0.1272 -0.2798 -0.1186
    1PC     O11 1229   4.367   2.979   6.771  0.2098  0.1802 -0.4239
    1PC      C1 1230   4.366   3.036   6.911  0.0332 -0.2162 -0.6677
    1PC      HR 1231   4.363   2.966   6.995 -1.1692  0.8758  0.2407
    1PC      HS 1232   4.461   3.086   6.932 -0.0530 -0.0142 -0.7583
    1PC      C2 1233   4.267   3.151   6.920 -0.5379 -0.1247 -0.2622
    1PC      HX 1234   4.301   3.234   6.858 -1.6121  1.3800  1.0639
    1PC      C3 1235   4.247   3.211   7.063 -0.5980 -0.3443 -0.2051
    1PC      HA 1236   4.329   3.278   7.090  0.8394 -1.9234 -0.5111
    1PC      HB 1237   4.148   3.258   7.070 -0.6589 -0.1457 -1.9797
    1PC     O31 1238   4.250   3.114   7.167  0.1285 -0.2841 -0.0311
    1PC     P31 1239   4.290   3.142   7.319  0.2716 -0.0620 -0.0925
    1PC     O32 1240   4.151   3.181   7.397 -0.0059  0.5312 -0.1176
    1PC     C31 1241   4.051   3.079   7.384 -1.0802  0.1056  0.4153
    1PC     H1A 1242   3.995   3.121   7.299 -0.4498 -1.1343 -0.6564
    1PC     H1B 1243   4.101   2.989   7.348  1.2290  1.3965  0.2307
    1PC     C32 1244   3.965   3.056   7.510  0.2905 -0.1400 -0.3542
    1PC     H2A 1245   3.900   3.140   7.533 -0.2761 -0.6451 -0.0942
    1PC     H2B 1246   3.907   2.964   7.505 -0.1708  0.0230  1.4200
    1PC     N31 1247   4.041   3.034   7.637  0.4642 -0.2317 -0.4452
    1PC     C33 1248   4.134   2.923   7.623 -0.1626  0.4613  0.2055
    1PC     H3A 1249   4.072   2.842   7.585 -2.7151  1.9373  0.9700
    1PC     H3B 1250   4.209   2.954   7.549  0.4056  1.7061  1.2710
    1PC     H3C 1251   4.180   2.903   7.719 -1.1987 -0.3178  0.5548
    1PC     C34 1252   4.116   3.153   7.691  0.8768  0.3897  1.1277
    1PC     H4A 1253   4.039   3.227   7.713  0.5250  0.3650  0.0319
    1PC     H4B 1254   4.172   3.131   7.782  0.6704 -0.0832  1.1441
    1PC     H4C 1255   4.188   3.178   7.612  1.0256  2.1583  1.7714
    1PC     C35 1256   3.936   3.007   7.743  0.0637  0.3970  0.3831
    1PC     H5A 1257   3.868   3.092   7.750 -0.4161 -0.0318  1.1598
    1PC     H5B 1258   3.987   2.990   7.838  0.5700  2.9389  0.6204
    1PC     H5C 1259   3.880   2.915   7.725  0.2611  0.4776 -0.6712
    1PC     O33 1260   4.332   3.010   7.376  0.5542  0.5337 -0.2295
    1PC     O34 1261   4.385   3.257   7.324  0.1507 -0.1596 -0.0957
    1PC     O21 1262   4.141   3.089   6.880 -0.4040 -0.0609  0.3577
    1PC     C21 1263   4.056   3.154   6.799 -0.5664 -0.0459 -0.1122
    1PC     O22 1264   4.078   3.264   6.750 -0.3195 -0.1649 -0.1482
    1OL     C12 1265   3.921   3.076   6.773  0.6684 -0.1125  0.5104
    1OL     H2R 1266   3.859   3.150   6.721  0.8268  1.3016  2.2331
    1OL     H2S 1267   3.877   3.053   6.870  1.4408 -2.4537  0.3679
    1OL     C13 1268   3.938   2.956   6.680  0.2221  0.2773  0.2150
    1OL     H3R 1269   3.847   2.898   6.667  0.4666  0.3460 -2.1958
    1OL     H3S 1270   3.999   2.887   6.739  1.6499  0.5632 -0.8524
    1OL     C14 1271   4.003   2.996   6.552 -0.1988 -0.3466 -0.4334
    1OL     H4R 1272   4.105   3.028   6.574 -1.1227  1.0425  2.1607
    1OL     H4S 1273   3.952   3.082   6.508  0.5030  0.0139 -0.5643
    1OL     C15 1274   3.996   2.880   6.454  0.1499  0.0883  0.2001
    1OL     H5R 1275   3.895   2.854   6.422  0.5729 -0.3996 -0.7784
    1OL     H5S 1276   4.029   2.792   6.508  0.0841  0.6534  1.1799
    1OL     C16 1277   4.087   2.887   6.328 -0.6267  0.4912 -0.1044
    1OL     H6R 1278   4.051   2.816   6.253  0.9488 -1.0411  0.5437
    1OL     H6S 1279   4.187   2.857   6.360 -1.9642 -3.5882  0.8169
    1OL     C17 1280   4.092   3.020   6.248  0.3336  0.5906 -0.6373
    1OL     H7R 1281   4.186   3.022   6.193 -0.6726  0.0411 -2.4462
    1OL     H7S 1282   4.100   3.100   6.322  1.6551 -0.2819  0.2158
    1OL     C18 1283   3.967   3.040   6.154 -0.0379 -0.8378  0.3670
    1OL     H8R 1284   3.958   3.145   6.123  2.2756 -0.9396 -0.8399
    1OL     H8S 1285   3.878   3.020   6.214  0.3256  0.7395  1.4860
    1OL     C19 1286   3.976   2.953   6.031  0.0359  0.2087 -0.5262
    1OL     H9R 1287   3.937   2.853   6.048  1.5376 -0.2390  0.4128
    1OL    C110 1288   4.011   2.985   5.908 -1.0342 -0.1455  0.0512
    1OL    H10R 1289   4.002   2.912   5.829 -4.0770 -0.4530  0.5719
    1OL    C111 1290   4.059   3.126   5.867 -0.5505  0.1911  1.3057
    1OL    H11R 1291   4.168   3.124   5.854 -0.8918 -2.2935 -2.6814
    1OL    H11S 1292   4.044   3.210   5.935 -0.1381  3.3324 -2.1732
    1OL    C112 1293   4.008   3.172   5.734  0.6275 -0.1183  0.2555
    1OL    H12R 1294   4.019   3.101   5.653  0.2258  1.1804 -0.9740
    1OL    H12S 1295   4.073   3.255   5.705  1.0078 -0.9306 -1.2998
    1OL    C113 1296   3.860   3.218   5.722 -0.3979  0.4560  0.4116
    1OL    H13R 1297   3.822   3.290   5.795 -1.2481  1.0083 -0.5645
    1OL    H13S 1298   3.808   3.123   5.733  2.2555 -0.9206  2.2292
    1OL    C114 1299   3.834   3.284   5.583  1.0037  0.3130  0.1812
    1OL    H14R 1300   3.876   3.209   5.515  1.3710 -0.6507  1.4205
    1OL    H14S 1301   3.885   3.381   5.584  0.0663  0.8548 -1.1209
    1OL    C115 1302   3.689   3.332   5.565  0.4776  0.1308  0.0209
    1OL    H15R 1303   3.659   3.385   5.656 -0.2379  1.9078 -1.1841
    1OL    H15S 1304   3.634   3.238   5.554 -1.0265  1.1208 -1.5133
    1OL    C116 1305   3.665   3.426   5.445 -0.2987  0.4638 -0.2830
    1OL    H16R 1306   3.717   3.384   5.359  0.8672 -0.8675  1.0115
    1OL    H16S 1307   3.702   3.527   5.463 -2.3766  1.2991 -0.3988
    1OL    C117 1308   3.513   3.428   5.420  0.0030 -0.1504  0.3098
    1OL    H17R 1309   3.456   3.434   5.513 -0.6050  0.6458 -0.0940
    1OL    H17S 1310   3.479   3.344   5.360 -2.2786  1.2072 -0.4296
    1OL    C118 1311   3.481   3.551   5.330 -0.1711  0.3450  0.4445
    1OL    H18R 1312   3.519   3.513   5.235  0.3124 -0.4538  0.9397
    1OL    H18S 1313   3.530   3.644   5.360  0.0786  0.7913 -1.2741
    1OL    H18T 1314   3.372   3.557   5.320 -0.3547  1.6513  2.5413
    1PA    C116 1315   3.831   1.043   5.380  0.5907 -0.2852  0.5376
    1PA    H16R 1316   3.767   0.977   5.440 -2.4293  0.5566 -1.5181
    1PA    H16S 1317   3.933   1.014   5.406  0.4264  0.5251  2.1979
    1PA    H16T 1318   3.804   1.034   5.275  2.3874  0.3117 -0.0026
    1PA    C115 1319   3.833   1.194   5.410 -0.3983  0.6252 -0.2187
    1PA    H15R 1320   3.864   1.222   5.511 -0.7848 -0.1539  0.1279
    1PA    H15S 1321   3.907   1.242   5.346  1.2706  0.4238  1.4701
    1PA    C114 1322   3.704   1.272   5.380  0.0065 -0.0237 -0.1034
    1PA    H14R 1323   3.683   1.289   5.274  1.6571  0.7225 -0.3307
    1PA    H14S 1324   3.624   1.212   5.426 -0.1206  2.0214  2.5850
    1PA    C113 1325   3.682   1.401   5.465  0.2718 -0.1959  0.0528
    1PA    H13R 1326   3.770   1.466   5.464  0.5461 -0.5519  0.7269
    1PA    H13S 1327   3.600   1.460   5.425 -0.1917  0.1021  1.4023
    1PA    C112 1328   3.648   1.371   5.619 -0.4056 -0.3172 -0.8178
    1PA    H12R 1329   3.556   1.313   5.632 -0.1601 -0.8198 -1.2610
    1PA    H12S 1330   3.732   1.332   5.676 -0.3213  1.6087  0.4471
    1PA    C111 1331   3.642   1.497   5.708 -0.2440 -0.1621  0.9056
    1PA    H11R 1332   3.738   1.544   5.730 -0.4706  2.1581 -2.2858
    1PA    H11S 1333   3.567   1.563   5.663  1.5012  1.2406 -0.0491
    1PA    C110 1334   3.595   1.471   5.854  0.2904  0.0656 -0.2441
    1PA    H10R 1335   3.513   1.400   5.855 -0.0694  0.4457 -1.3383
    1PA    H10S 1336   3.674   1.420   5.910 -0.3170  0.2707  0.8209
    1PA     C19 1337   3.573   1.595   5.936  0.5369 -0.3372  0.4817
    1PA     H9R 1338   3.669   1.636   5.969 -0.1404  0.3579  1.6598
    1PA     H9S 1339   3.519   1.668   5.875 -0.6214 -1.2520  0.3706
    1PA     C18 1340   3.486   1.574   6.061 -0.0047 -0.6386 -0.0822
    1PA     H8R 1341   3.382   1.552   6.035 -0.6807  0.6021  1.3968
    1PA     H8S 1342   3.520   1.484   6.112 -2.0748 -0.5110  1.6573
    1PA     C17 1343   3.495   1.695   6.152 -0.3716 -0.0015  0.1455
    1PA     H7R 1344   3.595   1.737   6.160  0.0256 -0.9185  0.1611
    1PA     H7S 1345   3.431   1.776   6.117 -1.2016 -1.1721 -1.1573
    1PA     C16 1346   3.448   1.657   6.294 -0.4125  0.1332  0.4018
    1PA     H6R 1347   3.350   1.610   6.284 -0.9736  0.6264  2.9964
    1PA     H6S 1348   3.519   1.579   6.323  0.2099  0.4503 -0.2439
    1PA     C15 1349   3.455   1.769   6.397  0.1444  0.1652 -0.4966
    1PA     H5R 1350   3.562   1.786   6.413 -0.1349  3.3620 -1.2341
    1PA     H5S 1351   3.412   1.866   6.372  3.1122  1.5451 -0.6793
    1PA     C14 1352   3.394   1.726   6.533  0.7967  0.0023 -0.4883
    1PA     H4R 1353   3.294   1.685   6.517 -1.2836  4.0648  0.6317
    1PA     H4S 1354   3.445   1.634   6.560  0.8659  0.7523  2.1549
    1PA     C13 1355   3.410   1.837   6.636  0.6372  0.0645  0.7524
    1PA     H3R 1356   3.381   1.931   6.590 -1.1639 -1.1460 -0.7210
    1PA     H3S 1357   3.337   1.827   6.717 -0.1819  1.1756  0.1672
    1PA     C12 1358   3.557   1.823   6.692 -0.4158 -0.1096 -0.2600
    1PA     H2R 1359   3.635   1.820   6.615 -0.5569 -0.8934 -0.3870
    1PA     H2S 1360   3.586   1.915   6.744  2.0704 -1.4999  1.0253
    1PC     C11 1361   3.574   1.718   6.796  0.2321 -0.3142  0.1865
    1PC     O12 1362   3.480   1.668   6.858  0.0881  0.0460  0.3070
    1PC     O11 1363   3.705   1.701   6.832 -0.3362  0.4819  0.0568
    1PC      C1 1364   3.736   1.585   6.912  0.0572 -0.9949 -0.6877
    1PC      HR 1365   3.839   1.602   6.944  0.5161  2.7969 -3.4387
    1PC      HS 1366   3.664   1.588   6.994 -0.4565  2.3159 -1.0852
    1PC      C2 1367   3.723   1.459   6.820  0.3694 -0.1571  0.5303
    1PC      HX 1368   3.627   1.462   6.768  0.8455 -0.2012 -0.3671
    1PC      C3 1369   3.737   1.343   6.904 -0.0497  0.8114 -0.8789
    1PC      HA 1370   3.650   1.333   6.970  1.2531 -0.2786  0.7777
    1PC      HB 1371   3.743   1.256   6.838 -0.7787 -0.7296  0.9469
    1PC     O31 1372   3.855   1.353   6.990 -0.6590  0.1219 -0.1562
    1PC     P31 1373   3.870   1.257   7.110  0.0269  0.0574  0.1622
    1PC     O32 1374   3.893   1.110   7.053  0.1911 -0.2021 -0.2130
    1PC     C31 1375   3.786   1.024   7.017 -0.4245 -0.1228  0.4889
    1PC     H1A 1376   3.757   0.963   7.103 -2.0630 -0.2968 -0.1362
    1PC     H1B 1377   3.704   1.086   6.978 -0.3552 -0.9238 -1.0413
    1PC     C32 1378   3.831   0.936   6.896  0.4642  0.0994  0.3280
    1PC     H2A 1379   3.847   1.001   6.810 -1.5585 -0.1002 -0.2427
    1PC     H2B 1380   3.929   0.892   6.913  0.3835 -0.8440 -1.4563
    1PC     N31 1381   3.745   0.824   6.853 -0.1569  0.7175 -0.0257
    1PC     C33 1382   3.819   0.746   6.749 -0.5470  0.1131  0.0398
    1PC     H3A 1383   3.909   0.704   6.794 -0.5081 -0.1620 -0.2848
    1PC     H3B 1384   3.761   0.658   6.720  1.5198 -2.5723  3.2735
    1PC     H3C 1385   3.827   0.823   6.672  0.0589 -0.6268 -0.6632
    1PC     C34 1386   3.717   0.723   6.960 -0.0485  0.4377 -0.2527
    1PC     H4A 1387   3.813   0.690   6.998 -0.3446 -0.7507 -0.5127
    1PC     H4B 1388   3.662   0.773   7.040 -0.1405  0.8243 -0.5531
    1PC     H4C 1389   3.677   0.630   6.919  4.0847 -2.0514  0.8373
    1PC     C35 1390   3.619   0.875   6.792 -0.2941 -0.1234 -0.4651
    1PC     H5A 1391   3.550   0.792   6.780 -0.0207 -1.1481  3.5608
    1PC     H5B 1392   3.637   0.928   6.698  0.9921  0.1970 -0.0606
    1PC     H5C 1393   3.576   0.933   6.874 -2.1247 -1.1926 -0.6144
    1PC     O33 1394   3.994   1.307   7.180 -0.1356  0.1463  0.2378
    1PC     O34 1395   3.738   1.258   7.175 -0.5956 -0.0979 -0.0851
    1PC     O21 1396   3.836   1.468   6.719  0.8064  0.6760  0.4877
    1PC     C21 1397   3.816   1.511   6.596 -0.2046  0.2065  0.1162
    1PC     O22 1398   3.707   1.543   6.552 -0.3902 -0.1758  0.6191
    1OL     C12 1399   3.947   1.521   6.523  0.1970 -0.7810 -0.7815
    1OL     H2R 1400   4.023   1.468   6.581  2.5978  3.0730 -0.0803
    1OL     H2S 1401   3.973   1.627   6.524  1.4039 -1.0471 -1.9471
    1OL     C13 1402   3.952   1.466   6.383  0.1863  0.0616  0.4220
    1OL     H3R 1403   3.919   1.362   6.381  0.7896 -0.1372  0.7771
    1OL     H3S 1404   4.053   1.461   6.343 -0.3209 -3.8199 -0.8282
    1OL     C14 1405   3.862   1.552   6.291  0.4227  0.4727 -0.1670
    1OL     H4R 1406   3.894   1.657   6.292 -0.0942  0.6550  2.0298
    1OL     H4S 1407   3.760   1.554   6.328  0.0325 -1.1091 -1.0565
    1OL     C15 1408   3.873   1.495   6.147  0.1745 -0.2853 -0.5149
    1OL     H5R 1409   3.785   1.526   6.091 -3.0767 -1.1896  3.5470
    1OL     H5S 1410   3.868   1.387   6.160  5.2660 -0.4997  2.3540
    1OL     C16 1411   4.006   1.521   6.062 -0.0675  0.2394 -0.0533
    1OL     H6R 1412   4.078   1.448   6.098 -0.9164 -0.5642  0.0519
    1OL     H6S 1413   4.046   1.622   6.074  0.5727  0.0651 -0.6535
    1OL     C17 1414   3.983   1.496   5.909 -0.3234 -0.1011  0.2465
    1OL     H7R 1415   3.895   1.552   5.878  0.1854  0.6062  0.0483
    1OL     H7S 1416   3.975   1.389   5.891 -1.5514 -0.1850  1.1835
    1OL     C18 1417   4.091   1.559   5.819 -0.0417  0.1602  0.1392
    1OL     H8R 1418   4.186   1.536   5.867  0.2465 -0.8442 -0.8537
    1OL     H8S 1419   4.078   1.667   5.814 -0.3647  0.2115  1.6286
    1OL     C19 1420   4.090   1.486   5.682 -0.0729 -0.3502 -0.2497
    1OL     H9R 1421   4.119   1.381   5.680 -1.0143 -0.6279 -2.4305
    1OL    C110 1422   4.062   1.541   5.563  0.6980 -0.0634  0.1392
    1OL    H10R 1423   4.059   1.473   5.479 -3.0308 -1.6311  1.3370
    1OL    C111 1424   4.005   1.679   5.540  0.4933  0.1336  0.6845
    1OL    H11R 1425   3.950   1.709   5.630  2.6818 -1.9229  2.8632
    1OL    H11S 1426   3.932   1.672   5.459 -1.0296  0.1377  2.0075
    1OL    C112 1427   4.113   1.781   5.508 -0.9010  0.8402  0.1790
    1OL    H12R 1428   4.180   1.731   5.438 -2.0116 -3.1042  1.6600
    1OL    H12S 1429   4.172   1.791   5.600  0.8623 -0.0764 -0.7932
    1OL    C113 1430   4.067   1.926   5.472  0.1879  0.2562 -0.3552
    1OL    H13R 1431   3.986   1.961   5.536 -0.4152 -2.2528  0.3892
    1OL    H13S 1432   4.029   1.932   5.370 -0.3566 -1.4635 -0.2838
    1OL    C114 1433   4.186   2.021   5.485  0.5629 -0.0615 -0.3967
    1OL    H14R 1434   4.228   2.011   5.585  2.7870  3.0197 -0.8688
    1OL    H14S 1435   4.145   2.121   5.473  3.2336  1.0162 -1.3622
    1OL    C115 1436   4.298   2.005   5.377 -0.4538  0.0654  0.2890
    1OL    H15R 1437   4.349   1.908   5.385 -1.8474 -0.7244 -0.1322
    1OL    H15S 1438   4.362   2.088   5.407  0.2728 -0.9549  1.6994
    1OL    C116 1439   4.260   2.026   5.231  0.1795  0.0479 -0.2668
    1OL    H16R 1440   4.179   2.097   5.216 -1.1318 -1.7447 -2.0599
    1OL    H16S 1441   4.220   1.934   5.189 -0.6952 -0.0110  0.6752
    1OL    C117 1442   4.386   2.051   5.139  0.1904  0.5020 -0.6819
    1OL    H17R 1443   4.440   1.957   5.135  0.5453  0.6694  0.0297
    1OL    H17S 1444   4.460   2.122   5.175  0.3037  0.4104 -0.7355
    1OL    C118 1445   4.357   2.094   4.999  0.0571 -0.4142  0.4156
    1OL    H18R 1446   4.450   2.079   4.943 -0.8239 -0.0806 -1.2021
    1OL    H18S 1447   4.322   2.197   5.001 -0.0134 -0.4166 -0.3031
    1OL    H18T 1448   4.283   2.032   4.948  0.9747 -1.4969  0.3516
    1PA    C116 1449   1.758   2.076   5.997  0.5536 -0.0650 -0.3778
    1PA    H16R 1450   1.700   2.151   5.943  0.5359  0.2625  0.0902
    1PA    H16S 1451   1.711   2.043   6.090  0.0997 -2.8080 -1.4954
    1PA    H16T 1452   1.738   1.987   5.938 -1.3590  1.1773 -1.7237
    1PA    C115 1453   1.904   2.100   5.984 -0.6684 -0.0048 -0.3106
    1PA    H15R 1454   1.960   2.007   5.996  2.4825  1.6044 -1.3084
    1PA    H15S 1455   1.919   2.129   5.879 -0.0524 -0.3974 -0.3370
    1PA    C114 1456   1.951   2.207   6.086 -0.1010 -0.5686 -0.1080
    1PA    H14R 1457   2.051   2.240   6.060 -0.4801  0.5283 -0.2103
    1PA    H14S 1458   1.889   2.296   6.072 -1.9758 -1.4449  1.8801
    1PA    C113 1459   1.941   2.159   6.233 -0.3175 -0.3796  0.3458
    1PA    H13R 1460   1.835   2.147   6.256 -0.9139  0.7645 -1.6252
    1PA    H13S 1461   2.002   2.072   6.259  0.2563  0.2037  0.9901
    1PA    C112 1462   1.995   2.275   6.318 -0.2944  0.0284  0.0873
    1PA    H12R 1463   1.933   2.365   6.309  0.5487  0.6431  0.2647
    1PA    H12S 1464   1.991   2.246   6.423  1.8570 -0.1046  0.1866
    1PA    C111 1465   2.131   2.337   6.280 -0.0507  0.7449 -0.2015
    1PA    H11R 1466   2.205   2.258   6.270 -1.5867 -0.5001 -2.4312
    1PA    H11S 1467   2.117   2.388   6.184  1.2349  0.0680 -0.7748
    1PA    C110 1468   2.177   2.442   6.378 -0.2421  0.0036  0.0970
    1PA    H10R 1469   2.232   2.518   6.322 -0.2547  0.7026  1.0248
    1PA    H10S 1470   2.094   2.497   6.421  0.5007 -0.4968  2.3246
    1PA     C19 1471   2.266   2.388   6.487 -0.4980 -0.0105  0.0605
    1PA     H9R 1472   2.235   2.292   6.529 -0.9021 -0.2955 -0.8691
    1PA     H9S 1473   2.363   2.372   6.439  0.6659  2.6027  1.3602
    1PA     C18 1474   2.285   2.485   6.600  0.2169  0.3068  0.1070
    1PA     H8R 1475   2.192   2.508   6.652 -0.5527  0.0412 -1.0961
    1PA     H8S 1476   2.345   2.432   6.673 -1.3728 -0.0972  1.1533
    1PA     C17 1477   2.351   2.616   6.562  0.5322  0.0616 -0.4781
    1PA     H7R 1478   2.440   2.609   6.500  0.7350  0.2674 -0.2164
    1PA     H7S 1479   2.282   2.672   6.498  1.3960 -0.1274 -1.5960
    1PA     C16 1480   2.390   2.695   6.692  0.0176 -0.3193 -0.3175
    1PA     H6R 1481   2.298   2.703   6.750  0.5766  1.0923  0.4150
    1PA     H6S 1482   2.463   2.630   6.739 -0.2362  0.0274  0.5754
    1PA     C15 1483   2.451   2.836   6.672 -0.2578  1.2576  0.2327
    1PA     H5R 1484   2.452   2.884   6.770 -0.5083  0.7815  0.4728
    1PA     H5S 1485   2.556   2.824   6.647  0.1887  1.8730  1.6645
    1PA     C14 1486   2.396   2.930   6.564  0.0005  0.5739 -0.8986
    1PA     H4R 1487   2.435   3.031   6.575 -0.9394  0.8213  0.4060
    1PA     H4S 1488   2.425   2.874   6.474  3.3389 -1.0817  1.0044
    1PA     C13 1489   2.245   2.954   6.566  0.6601  0.3378  0.1836
    1PA     H3R 1490   2.212   2.999   6.472 -0.0783  0.5060  0.5133
    1PA     H3S 1491   2.194   2.859   6.582 -1.8421  1.8928  2.5303
    1PA     C12 1492   2.196   3.059   6.678 -0.4031  0.0160 -0.2297
    1PA     H2R 1493   2.232   3.035   6.778 -0.2538 -1.2836 -0.5644
    1PA     H2S 1494   2.220   3.157   6.639  1.3984 -0.1712  0.3398
    1PC     C11 1495   2.048   3.048   6.698  0.0454  0.4794 -0.9691
    1PC     O12 1496   1.973   3.116   6.631  0.6867 -0.0047 -0.5810
    1PC     O11 1497   2.006   2.962   6.791 -0.0773 -0.0892 -0.3700
    1PC      C1 1498   1.867   2.954   6.824 -0.3938  0.0637  0.0510
    1PC      HR 1499   1.850   2.981   6.928 -2.3717  0.9041 -0.4483
    1PC      HS 1500   1.810   3.027   6.765 -1.7259  0.5540  1.8529
    1PC      C2 1501   1.823   2.808   6.809  0.4436  0.2840  0.6213
    1PC      HX 1502   1.721   2.802   6.849 -0.0457  1.3339 -0.4364
    1PC      C3 1503   1.916   2.709   6.873 -0.9106 -0.8163  0.1088
    1PC      HA 1504   1.887   2.608   6.847  0.7774 -1.1225 -0.7034
    1PC      HB 1505   2.011   2.722   6.820 -1.4526  0.7282 -0.5462
    1PC     O31 1506   1.944   2.715   7.020 -0.1774 -0.8469 -0.0964
    1PC     P31 1507   1.844   2.657   7.128  0.1358 -0.1284  0.1737
    1PC     O32 1508   1.867   2.496   7.117  0.4625  0.1069 -0.1103
    1PC     C31 1509   1.796   2.401   7.030 -0.0623  0.3029  0.4650
    1PC     H1A 1510   1.690   2.413   7.054 -0.3302  0.5303 -0.7823
    1PC     H1B 1511   1.823   2.439   6.931 -1.1490 -2.0579 -0.8206
    1PC     C32 1512   1.858   2.261   7.054 -0.3955 -0.3471  0.3133
    1PC     H2A 1513   1.825   2.202   6.969 -0.4429 -0.0928  0.1546
    1PC     H2B 1514   1.965   2.260   7.071 -0.4164 -0.5762  0.4407
    1PC     N31 1515   1.820   2.183   7.174  0.4355  0.1959 -0.3278
    1PC     C33 1516   1.883   2.247   7.292  0.1554  0.3686 -0.1360
    1PC     H3A 1517   1.987   2.215   7.289 -0.0274 -0.2123 -2.5292
    1PC     H3B 1518   1.865   2.354   7.283  0.4891  0.5108  0.7590
    1PC     H3C 1519   1.833   2.218   7.384  2.4609  0.6983  1.2986
    1PC     C34 1520   1.674   2.184   7.193 -0.8688  0.1148 -0.3160
    1PC     H4A 1521   1.617   2.119   7.125  0.5020 -0.5058 -0.9003
    1PC     H4B 1522   1.656   2.146   7.293  2.1402 -1.3516 -0.2284
    1PC     H4C 1523   1.621   2.280   7.191 -0.5760  0.2703 -1.3982
    1PC     C35 1524   1.854   2.036   7.166  0.2977  0.0756 -0.5812
    1PC     H5A 1525   1.961   2.015   7.159  0.4820  1.0135 -0.7285
    1PC     H5B 1526   1.807   2.000   7.074  1.0219  0.0377 -0.9444
    1PC     H5C 1527   1.817   1.970   7.244 -1.3323 -0.5750 -1.8373
    1PC     O33 1528   1.888   2.706   7.257  0.2918 -0.0043  0.3757
    1PC     O34 1529   1.702   2.684   7.091  0.0827  0.0819  0.4317
    1PC     O21 1530   1.825   2.784   6.664 -0.0645  0.2165 -0.0006
    1PC     C21 1531   1.722   2.824   6.593 -0.7310  0.5467 -0.1482
    1PC     O22 1532   1.621   2.880   6.641 -0.2757 -0.1738  0.3899
    1OL     C12 1533   1.746   2.798   6.443 -0.5471  0.5454 -0.5550
    1OL     H2R 1534   1.835   2.736   6.429  0.0652  0.5621  2.5489
    1OL     H2S 1535   1.759   2.896   6.395 -0.8186  1.0633  0.3966
    1OL     C13 1536   1.627   2.718   6.380  0.8322 -0.2659  0.5008
    1OL     H3R 1537   1.534   2.744   6.431 -0.5362 -1.4127 -1.3121
    1OL     H3S 1538   1.644   2.611   6.389  0.1826 -0.5930 -1.6075
    1OL     C14 1539   1.622   2.733   6.224 -0.2150 -0.3060 -0.8858
    1OL     H4R 1540   1.598   2.836   6.198 -4.1041 -1.2024 -1.4750
    1OL     H4S 1541   1.533   2.675   6.198 -0.4351 -1.4267  2.0594
    1OL     C15 1542   1.752   2.681   6.164 -0.0032  0.7495  0.0869
    1OL     H5R 1543   1.770   2.581   6.202 -0.6455  0.8025  0.5412
    1OL     H5S 1544   1.837   2.748   6.178  0.3045  0.5108 -0.5906
    1OL     C16 1545   1.715   2.669   6.017 -0.1637  0.0827  0.5018
    1OL     H6R 1546   1.700   2.771   5.980  1.4498  0.5065  0.9214
    1OL     H6S 1547   1.630   2.601   6.004 -0.6004  0.7274 -0.0975
    1OL     C17 1548   1.833   2.605   5.943 -0.4875 -0.4673  0.1933
    1OL     H7R 1549   1.895   2.545   6.010 -0.1072 -0.4860 -0.1691
    1OL     H7S 1550   1.901   2.683   5.908  2.5724 -1.8677  2.5568
    1OL     C18 1551   1.789   2.527   5.822  0.3308 -0.0192  0.1144
    1OL     H8R 1552   1.726   2.595   5.765  0.6056 -0.0929 -0.2894
    1OL     H8S 1553   1.721   2.448   5.856  0.8989 -0.5657  0.0124
    1OL     C19 1554   1.904   2.476   5.742  0.6371  0.2091 -0.3777
    1OL     H9R 1555   1.992   2.449   5.801  0.3781 -1.0257 -0.5171
    1OL    C110 1556   1.905   2.449   5.615 -0.4941 -0.2592  0.8940
    1OL    H10R 1557   1.985   2.392   5.569 -2.2905 -1.2936 -1.1526
    1OL    C111 1558   1.788   2.472   5.520  0.3166  0.5263  0.3805
    1OL    H11R 1559   1.796   2.565   5.463  0.9276  0.5801  0.5360
    1OL    H11S 1560   1.696   2.480   5.578 -1.8580 -0.4892 -2.6613
    1OL    C112 1561   1.770   2.344   5.439  0.2914 -0.7853  0.5897
    1OL    H12R 1562   1.772   2.264   5.514  1.0076 -0.2101  1.1933
    1OL    H12S 1563   1.861   2.331   5.380 -1.7698 -0.1490 -3.0764
    1OL    C113 1564   1.646   2.341   5.352  1.0518 -0.6947  0.4779
    1OL    H13R 1565   1.564   2.381   5.411  1.6089 -1.4034  1.7727
    1OL    H13S 1566   1.635   2.236   5.322  1.9155 -0.3683 -1.0900
    1OL    C114 1567   1.659   2.435   5.229 -0.6016  0.7697 -0.6029
    1OL    H14R 1568   1.755   2.432   5.178  0.0055  1.0741  0.4958
    1OL    H14S 1569   1.641   2.539   5.257  0.7135  0.7228  0.5389
    1OL    C115 1570   1.554   2.387   5.116  0.2476 -0.5364  0.5322
    1OL    H15R 1571   1.452   2.421   5.133  0.3834 -1.3286  3.2741
    1OL    H15S 1572   1.551   2.279   5.106  2.0102 -0.5454 -0.3620
    1OL    C116 1573   1.597   2.430   4.974 -0.7265  0.1347 -0.0578
    1OL    H16R 1574   1.527   2.385   4.904 -1.1387 -1.6914  1.4561
    1OL    H16S 1575   1.696   2.387   4.961 -1.9113 -2.6416 -0.5727
    1OL    C117 1576   1.595   2.582   4.942  0.7076  0.0627 -0.6374
    1OL    H17R 1577   1.631   2.641   5.026 -0.7311  0.0325  0.0299
    1OL    H17S 1578   1.490   2.601   4.921  0.2610  0.6515  1.9169
    1OL    C118 1579   1.666   2.621   4.815  0.2335 -0.3397 -0.2931
    1OL    H18R 1580   1.659   2.548   4.735 -0.1046 -2.8505  1.8753
    1OL    H18S 1581   1.768   2.619   4.853 -0.0445 -0.1151  0.5009
    1OL    H18T 1582   1.632   2.719   4.779 -1.1123 -0.0264  1.6279
    1PA    C116 1583   4.033   0.640   6.122  0.8482 -0.3374  0.0061
    1PA    H16R 1584   4.046   0.736   6.174 -2.1472  0.2440 -0.1317
    1PA    H16S 1585   4.121   0.603   6.069  0.4458 -0.6502 -0.4598
    1PA    H16T 1586   4.004   0.551   6.178 -1.2943 -1.0410 -2.0394
    1PA    C115 1587   3.922   0.673   6.022 -0.1682  0.1651  0.8244
    1PA    H15R 1588   3.956   0.757   5.961  0.9734 -1.1157 -0.3833
    1PA    H15S 1589   3.920   0.588   5.954  2.2739  0.9208 -0.3215
    1PA    C114 1590   3.786   0.698   6.094 -0.9455  0.1395 -0.0231
    1PA    H14R 1591   3.754   0.612   6.154 -2.6642  1.5194  1.1483
    1PA    H14S 1592   3.793   0.783   6.161  2.4565 -1.5546  2.0338
    1PA    C113 1593   3.674   0.707   5.993 -0.1011  0.0141  0.4417
    1PA    H13R 1594   3.693   0.782   5.915 -1.6123 -0.6632 -0.6063
    1PA    H13S 1595   3.676   0.613   5.938  0.5948  0.8981 -1.1438
    1PA    C112 1596   3.531   0.735   6.045  0.2761  0.1795  0.5573
    1PA    H12R 1597   3.501   0.669   6.128 -0.0906 -0.1771  0.1465
    1PA    H12S 1598   3.514   0.839   6.072  0.4553  1.2708 -3.0150
    1PA    C111 1599   3.434   0.711   5.924  0.3123  0.3709 -0.3271
    1PA    H11R 1600   3.457   0.789   5.851  1.4679 -0.1654 -0.5553
    1PA    H11S 1601   3.449   0.611   5.883  0.9806  0.1293  0.4941
    1PA    C110 1602   3.288   0.729   5.976 -0.8565 -0.3496  0.3282
    1PA    H10R 1603   3.277   0.666   6.064 -0.7002 -1.2579 -0.2813
    1PA    H10S 1604   3.274   0.833   6.004 -0.4868  0.2866 -1.6647
    1PA     C19 1605   3.168   0.667   5.889  0.3955 -0.3198 -0.5237
    1PA     H9R 1606   3.160   0.711   5.789  0.0705 -0.6863 -0.6652
    1PA     H9S 1607   3.193   0.563   5.867  0.2345  0.1102 -3.1178
    1PA     C18 1608   3.028   0.673   5.967  0.4065 -0.3981 -0.0426
    1PA     H8R 1609   2.949   0.627   5.907 -0.5524 -1.3297  1.8554
    1PA     H8S 1610   3.033   0.611   6.057  1.2746 -0.2226  0.0367
    1PA     C17 1611   2.984   0.816   5.995 -0.2793 -0.8273 -0.5211
    1PA     H7R 1612   3.041   0.855   6.080  0.8631 -1.5448 -0.9414
    1PA     H7S 1613   3.001   0.882   5.910 -0.3929 -0.3888 -0.2048
    1PA     C16 1614   2.834   0.817   6.038 -0.1558  0.1833  0.4757
    1PA     H6R 1615   2.796   0.918   6.048  0.2835  0.3047  0.9429
    1PA     H6S 1616   2.773   0.762   5.966  0.7584 -2.3934  1.5441
    1PA     C15 1617   2.812   0.753   6.182  0.2030  0.0412  0.3047
    1PA     H5R 1618   2.847   0.649   6.186  0.5689  0.1792  0.8479
    1PA     H5S 1619   2.872   0.811   6.252 -0.5264  2.7000 -1.1169
    1PA     C14 1620   2.664   0.749   6.225  0.3445 -0.4645 -0.1906
    1PA     H4R 1621   2.614   0.845   6.209 -0.5161 -1.3369 -3.2980
    1PA     H4S 1622   2.616   0.675   6.161  0.7555  0.4149 -1.5397
    1PA     C13 1623   2.634   0.703   6.369 -0.6925 -0.6081  0.1220
    1PA     H3R 1624   2.697   0.753   6.443 -3.9925  0.9624  2.1316
    1PA     H3S 1625   2.530   0.730   6.389  0.0675  0.1467  3.8548
    1PA     C12 1626   2.651   0.554   6.394  0.4221 -0.5113  0.2655
    1PA     H2R 1627   2.578   0.499   6.334 -2.1199  1.7984  1.0013
    1PA     H2S 1628   2.751   0.533   6.355  1.6650  1.5715  2.1080
    1PC     C11 1629   2.638   0.525   6.540  0.3372 -0.2150 -1.0885
    1PC     O12 1630   2.717   0.575   6.625 -0.0243 -0.6633 -0.1823
    1PC     O11 1631   2.536   0.448   6.576 -0.0372 -0.5512  0.3183
    1PC      C1 1632   2.526   0.425   6.721  0.6801 -0.0302 -0.0077
    1PC      HR 1633   2.450   0.346   6.728  0.0985  0.1294 -3.0866
    1PC      HS 1634   2.611   0.383   6.775 -0.2389 -1.3039  0.5201
    1PC      C2 1635   2.462   0.539   6.800 -0.3264  0.0098 -0.2651
    1PC      HX 1636   2.535   0.620   6.801  0.7333 -0.9035  1.4866
    1PC      C3 1637   2.448   0.507   6.946  0.1065  0.1471  0.3932
    1PC      HA 1638   2.547   0.527   6.989  2.4223 -3.5446 -2.6126
    1PC      HB 1639   2.365   0.569   6.982  0.0428  0.6478 -0.5692
    1PC     O31 1640   2.410   0.366   6.964 -0.0284 -0.1355 -0.7680
    1PC     P31 1641   2.465   0.269   7.076  0.1845 -0.3334  0.0630
    1PC     O32 1642   2.415   0.339   7.208 -0.6466  0.4288  0.4944
    1PC     C31 1643   2.285   0.325   7.257  0.2075  0.1995 -0.1084
    1PC     H1A 1644   2.269   0.418   7.311  0.6641  0.7059 -0.8374
    1PC     H1B 1645   2.213   0.322   7.174  1.1162  1.8664 -0.9910
    1PC     C32 1646   2.272   0.202   7.344  0.1130  0.6237 -0.6550
    1PC     H2A 1647   2.166   0.178   7.347 -0.1080  1.6197  1.8872
    1PC     H2B 1648   2.327   0.121   7.295 -0.9689 -0.0827 -0.7164
    1PC     N31 1649   2.316   0.206   7.485  0.1694  0.4239  0.1152
    1PC     C33 1650   2.298   0.069   7.548 -0.4208 -0.3755  0.6829
    1PC     H3A 1651   2.301   0.079   7.657  0.2110  1.7151  0.5185
    1PC     H3B 1652   2.209   0.022   7.506  2.1711 -3.9809 -1.3026
    1PC     H3C 1653   2.384   0.007   7.522 -0.3781  0.1813 -0.5417
    1PC     C34 1654   2.465   0.238   7.479  0.1650  0.2178  0.1445
    1PC     H4A 1655   2.504   0.226   7.580 -1.1568  1.7088  0.8791
    1PC     H4B 1656   2.502   0.167   7.405 -0.9231 -0.1176 -0.0850
    1PC     H4C 1657   2.484   0.341   7.447 -1.4890  0.0304 -1.6005
    1PC     C35 1658   2.237   0.307   7.563 -0.0410  0.9051  0.1026
    1PC     H5A 1659   2.137   0.264   7.570  0.1784  0.4964  0.7885
    1PC     H5B 1660   2.236   0.402   7.508 -0.8295 -0.1933 -1.8824
    1PC     H5C 1661   2.286   0.311   7.660  1.5548 -0.0729 -0.6337
    1PC     O33 1662   2.395   0.139   7.071  0.0517  0.0297  0.1690
    1PC     O34 1663   2.613   0.259   7.091 -0.2334 -0.6769  0.3604
    1PC     O21 1664   2.332   0.574   6.739 -0.1522  0.6119  0.5870
    1PC     C21 1665   2.321   0.684   6.662  0.5534 -0.5608 -0.2054
    1PC     O22 1666   2.412   0.763   6.656  0.1413 -0.0479 -0.0657
    1OL     C12 1667   2.184   0.705   6.602 -0.8080  0.3252 -0.7231
    1OL     H2R 1668   2.146   0.796   6.650  1.0087  2.2119 -2.6759
    1OL     H2S 1669   2.123   0.617   6.624 -0.4148  0.8613  3.3391
    1OL     C13 1670   2.184   0.732   6.450 -0.2164  0.1155 -0.1688
    1OL     H3R 1671   2.250   0.817   6.434  1.2173 -0.9419 -0.1037
    1OL     H3S 1672   2.079   0.748   6.426 -0.0086 -0.5037 -1.6348
    1OL     C14 1673   2.234   0.626   6.350  0.0545 -0.0919  0.1483
    1OL     H4R 1674   2.176   0.534   6.361 -1.2396  0.7894  0.9327
    1OL     H4S 1675   2.333   0.594   6.381 -0.8866 -2.8812  0.5258
    1OL     C15 1676   2.215   0.687   6.208  0.0329 -0.5783 -0.1866
    1OL     H5R 1677   2.234   0.794   6.221 -0.6805 -0.4290 -0.3123
    1OL     H5S 1678   2.116   0.673   6.165  0.7786 -1.6481 -1.6152
    1OL     C16 1679   2.304   0.627   6.102  0.6486 -0.0630  0.5985
    1OL     H6R 1680   2.270   0.524   6.090  1.1625 -0.0753 -0.9106
    1OL     H6S 1681   2.408   0.637   6.135  1.2676 -0.5931 -1.0737
    1OL     C17 1682   2.285   0.711   5.973  0.3485  1.1668 -0.4083
    1OL     H7R 1683   2.338   0.806   5.970 -1.0952  1.9979 -0.3939
    1OL     H7S 1684   2.178   0.729   5.964 -0.1240 -1.2732 -0.5175
    1OL     C18 1685   2.326   0.613   5.859 -0.3934 -0.1411  0.1813
    1OL     H8R 1686   2.253   0.533   5.856 -0.0538 -0.4490 -3.2920
    1OL     H8S 1687   2.430   0.578   5.863  0.0513  0.9272 -1.3040
    1OL     C19 1688   2.308   0.681   5.725  0.1362 -0.1367  0.7194
    1OL     H9R 1689   2.248   0.771   5.715 -0.6436 -0.4911  1.9845
    1OL    C110 1690   2.364   0.629   5.616 -0.1003 -0.4492 -0.4006
    1OL    H10R 1691   2.347   0.683   5.522  0.3870 -0.2895 -0.4007
    1OL    C111 1692   2.446   0.496   5.605 -0.2736  0.2716 -0.4839
    1OL    H11R 1693   2.396   0.436   5.528  0.1586  0.0876 -0.6251
    1OL    H11S 1694   2.459   0.444   5.700 -0.9362 -0.9966 -1.0689
    1OL    C112 1695   2.590   0.529   5.550  0.6699  0.2499 -0.1223
    1OL    H12R 1696   2.595   0.617   5.485  2.1548  0.9617  0.8949
    1OL    H12S 1697   2.636   0.448   5.494  0.6734  0.7076 -0.7882
    1OL    C113 1698   2.683   0.574   5.665 -0.2008  0.2183  0.1837
    1OL    H13R 1699   2.717   0.495   5.732 -1.6266 -0.5570  0.0381
    1OL    H13S 1700   2.641   0.653   5.727 -0.1789  1.1899 -1.0033
    1OL    C114 1701   2.809   0.643   5.604 -0.6389  0.3488 -0.0583
    1OL    H14R 1702   2.880   0.695   5.668  2.0690 -1.6646 -1.1940
    1OL    H14S 1703   2.777   0.719   5.532  2.7082  0.1926 -1.9237
    1OL    C115 1704   2.897   0.542   5.525 -0.5656 -0.4880 -0.2961
    1OL    H15R 1705   2.981   0.584   5.471 -1.2614  0.7627 -0.4416
    1OL    H15S 1706   2.835   0.495   5.448 -1.1980  0.5043 -0.4120
    1OL    C116 1707   2.941   0.420   5.605  0.3796  0.2537 -0.3443
    1OL    H16R 1708   2.857   0.359   5.638  0.5091 -0.7590 -1.7855
    1OL    H16S 1709   2.993   0.450   5.696  1.1023  0.5846 -0.8556
    1OL    C117 1710   3.026   0.329   5.513  0.9108  0.5256  0.5864
    1OL    H17R 1711   3.094   0.388   5.452 -0.3787  1.1037 -0.3541
    1OL    H17S 1712   2.955   0.275   5.450 -0.3129  2.9521 -0.2189
    1OL    C118 1713   3.099   0.220   5.595  0.4541  0.2318  0.2228
    1OL    H18R 1714   3.124   0.141   5.524 -1.3170 -0.4942  0.3549
    1OL    H18S 1715   3.030   0.187   5.673 -0.0110  0.6134 -0.0179
    1OL    H18T 1716   3.191   0.261   5.636  0.8527 -0.5157  0.0785
    1PA    C116 1717   4.321   1.105   5.407 -0.3859 -0.2480 -0.0702
    1PA    H16R 1718   4.328   1.038   5.321  0.5979  0.4002 -0.5179
    1PA    H16S 1719   4.215   1.124   5.423 -1.1016 -1.0344 -3.2472
    1PA    H16T 1720   4.359   1.045   5.490  1.3179 -0.6432 -1.0737
    1PA    C115 1721   4.398   1.239   5.387  0.7516  0.6110  0.3954
    1PA    H15R 1722   4.497   1.219   5.346 -0.1383  0.2258 -1.7048
    1PA    H15S 1723   4.353   1.294   5.304 -0.1452 -0.1514  0.3548
    1PA    C114 1724   4.390   1.319   5.522 -0.4312 -0.1491  0.2410
    1PA    H14R 1725   4.288   1.305   5.560 -0.3796 -0.5157  0.2470
    1PA    H14S 1726   4.450   1.263   5.595  0.3403  0.0062 -0.2647
    1PA    C113 1727   4.441   1.462   5.512  0.5639  1.1716 -0.0381
    1PA    H13R 1728   4.529   1.458   5.447 -0.6466 -0.8574 -1.6752
    1PA    H13S 1729   4.364   1.521   5.461 -1.7838 -0.1877  1.7248
    1PA    C112 1730   4.461   1.522   5.656  0.2137 -0.1966 -0.5920
    1PA    H12R 1731   4.364   1.531   5.707 -0.0665  2.1105 -1.3798
    1PA    H12S 1732   4.525   1.461   5.720  0.8407  0.8018 -0.2428
    1PA    C111 1733   4.522   1.663   5.660 -0.4253 -0.1037 -0.0558
    1PA    H11R 1734   4.615   1.660   5.604  0.0158  1.6791  0.5174
    1PA    H11S 1735   4.458   1.734   5.606  1.5636 -0.1317 -2.6428
    1PA    C110 1736   4.550   1.715   5.806 -0.1820 -0.2758  0.2449
    1PA    H10R 1737   4.606   1.634   5.854  1.1691  1.8782  2.5263
    1PA    H10S 1738   4.609   1.806   5.801  0.8448 -0.9200  0.1740
    1PA     C19 1739   4.417   1.747   5.877  0.4146 -0.0359  0.6375
    1PA     H9R 1740   4.368   1.835   5.835 -3.9558 -1.9443  1.1197
    1PA     H9S 1741   4.346   1.666   5.856  2.6874 -2.0113  0.0618
    1PA     C18 1742   4.431   1.756   6.029  0.2403  0.5669 -0.1471
    1PA     H8R 1743   4.465   1.663   6.075  0.4124  0.9511  0.5100
    1PA     H8S 1744   4.519   1.818   6.045 -1.8270  2.8385  3.9930
    1PA     C17 1745   4.311   1.824   6.092  0.7384 -0.3556  0.2339
    1PA     H7R 1746   4.317   1.931   6.069 -0.4742  0.2057  2.2347
    1PA     H7S 1747   4.224   1.772   6.052  1.2992 -1.0198 -0.1302
    1PA     C16 1748   4.312   1.812   6.241 -0.3459  0.6333 -0.1572
    1PA     H6R 1749   4.405   1.857   6.276 -0.6210  2.8317 -2.0494
    1PA     H6S 1750   4.228   1.871   6.279 -1.6525 -0.5550 -1.0717
    1PA     C15 1751   4.311   1.669   6.282 -0.1998  0.5597 -0.1331
    1PA     H5R 1752   4.223   1.619   6.240 -1.4290  1.9530  0.6988
    1PA     H5S 1753   4.399   1.612   6.250 -1.4413 -2.3346  1.2271
    1PA     C14 1754   4.304   1.654   6.434  0.4249  0.4475  0.6963
    1PA     H4R 1755   4.377   1.725   6.473 -0.3087  0.7586  1.5323
    1PA     H4S 1756   4.208   1.688   6.472  0.4977 -0.8444  2.1418
    1PA     C13 1757   4.347   1.520   6.498 -0.1512  0.6507  0.2348
    1PA     H3R 1758   4.284   1.439   6.460 -0.9471  1.3162  0.1287
    1PA     H3S 1759   4.452   1.490   6.497 -0.1332  0.6582  1.0591
    1PA     C12 1760   4.313   1.514   6.646 -0.2435  0.3423 -0.5329
    1PA     H2R 1761   4.229   1.575   6.678 -2.1629 -2.1838 -0.5184
    1PA     H2S 1762   4.274   1.415   6.669  3.0583 -0.5538  2.1354
    1PC     C11 1763   4.425   1.518   6.743 -0.5242 -0.5634 -0.3429
    1PC     O12 1764   4.500   1.423   6.761  0.1184 -0.2228 -0.0749
    1PC     O11 1765   4.440   1.636   6.799  0.0261  0.0418 -0.2709
    1PC      C1 1766   4.557   1.657   6.892 -0.2552 -0.0049 -0.2471
    1PC      HR 1767   4.572   1.575   6.963 -2.5012  2.0551  2.8635
    1PC      HS 1768   4.649   1.669   6.834  1.1065 -0.7160  1.6468
    1PC      C2 1769   4.541   1.782   6.981 -0.3051 -0.3632  1.3597
    1PC      HX 1770   4.625   1.800   7.048  1.7257  1.3174 -1.4032
    1PC      C3 1771   4.420   1.769   7.075 -0.0648 -0.3157 -0.3140
    1PC      HA 1772   4.398   1.866   7.120 -0.1593 -0.8683  0.8822
    1PC      HB 1773   4.331   1.731   7.024 -1.7411  1.2189  1.3078
    1PC     O31 1774   4.448   1.667   7.178 -0.0770 -0.4004  0.5432
    1PC     P31 1775   4.536   1.705   7.306 -0.3300 -0.1943 -0.3299
    1PC     O32 1776   4.431   1.745   7.417 -0.2032 -0.1943 -0.0789
    1PC     C31 1777   4.393   1.882   7.436 -0.0717 -0.2525 -0.3648
    1PC     H1A 1778   4.476   1.942   7.475 -0.0577 -1.9148  2.4555
    1PC     H1B 1779   4.354   1.925   7.343 -1.6529 -1.7639 -0.4586
    1PC     C32 1780   4.292   1.873   7.552 -0.2576 -0.0526 -0.1471
    1PC     H2A 1781   4.263   1.978   7.565 -0.1367  0.1557 -1.4650
    1PC     H2B 1782   4.206   1.813   7.521 -0.5429 -0.2494  0.9649
    1PC     N31 1783   4.328   1.829   7.695  0.4829 -0.0872  0.0637
    1PC     C33 1784   4.360   1.685   7.701  0.4322 -0.0311 -0.4746
    1PC     H3A 1785   4.338   1.644   7.800 -0.4713  0.2353 -0.5625
    1PC     H3B 1786   4.285   1.646   7.632 -0.6486 -1.6258  1.5193
    1PC     H3C 1787   4.460   1.650   7.674 -0.0249 -0.1127 -2.1751
    1PC     C34 1788   4.441   1.913   7.751 -0.1146 -0.3877  0.6884
    1PC     H4A 1789   4.412   2.016   7.731  1.9432  0.3867  1.4744
    1PC     H4B 1790   4.455   1.888   7.856 -2.3917 -0.1731  1.1009
    1PC     H4C 1791   4.525   1.889   7.686 -0.2339  1.9273 -0.4107
    1PC     C35 1792   4.214   1.858   7.787 -0.1929  0.3175 -0.9392
    1PC     H5A 1793   4.123   1.814   7.745  0.6394 -0.1298 -2.3304
    1PC     H5B 1794   4.208   1.967   7.789  2.0140  0.4680  0.7677
    1PC     H5C 1795   4.238   1.820   7.886  0.3699 -0.4499 -1.3545
    1PC     O33 1796   4.605   1.585   7.353  0.0551 -0.0757  0.4052
    1PC     O34 1797   4.617   1.825   7.281 -0.5088  0.1292 -0.1041
    1PC     O21 1798   4.518   1.896   6.900 -0.4476 -0.5632  0.3120
    1PC     C21 1799   4.623   1.963   6.855 -0.3076 -1.0469  1.1806
    1PC     O22 1800   4.738   1.929   6.871  0.6740 -0.1771 -0.1130
    1OL     C12 1801   4.594   2.093   6.776  0.6789 -0.1998  0.3675
    1OL     H2R 1802   4.592   2.175   6.848 -1.0281  1.0180 -1.0008
    1OL     H2S 1803   4.492   2.087   6.736  0.4250  0.4656  0.8938
    1OL     C13 1804   4.701   2.134   6.675  0.1067 -0.5350 -0.1821
    1OL     H3R 1805   4.742   2.043   6.631  0.8077 -0.3935  0.1624
    1OL     H3S 1806   4.781   2.180   6.732 -1.9348 -0.4238  2.7866
    1OL     C14 1807   4.648   2.230   6.565  0.3604 -0.2663  0.1470
    1OL     H4R 1808   4.730   2.264   6.502  0.4132  0.7916  0.7565
    1OL     H4S 1809   4.604   2.320   6.608  3.4929  0.7362  1.5353
    1OL     C15 1810   4.543   2.181   6.461 -0.0344  0.7079  0.2252
    1OL     H5R 1811   4.442   2.177   6.502 -0.8791 -2.1997 -1.8575
    1OL     H5S 1812   4.555   2.077   6.430  1.5110  1.3697 -1.6079
    1OL     C16 1813   4.537   2.262   6.331  0.1059 -0.1152 -0.0348
    1OL     H6R 1814   4.639   2.260   6.291 -0.4401  0.0487 -1.4708
    1OL     H6S 1815   4.519   2.368   6.353  0.0207  0.2235 -1.6455
    1OL     C17 1816   4.435   2.195   6.232  0.2568  0.2897 -0.4211
    1OL     H7R 1817   4.334   2.180   6.271  0.1597 -0.0221 -0.7824
    1OL     H7S 1818   4.485   2.105   6.197 -0.8443 -0.0503 -1.1862
    1OL     C18 1819   4.436   2.274   6.099  0.6885 -0.8055 -0.0759
    1OL     H8R 1820   4.538   2.265   6.062  0.4297 -1.0362 -0.7421
    1OL     H8S 1821   4.424   2.381   6.118 -1.7051 -1.2130  1.0909
    1OL     C19 1822   4.341   2.224   5.991 -0.0804  0.1942 -0.4212
    1OL     H9R 1823   4.265   2.159   6.032 -1.6975  1.4021 -1.3639
    1OL    C110 1824   4.360   2.249   5.863 -0.4227  0.2420  0.2374
    1OL    H10R 1825   4.290   2.204   5.792  1.5932 -1.0309 -1.0711
    1OL    C111 1826   4.460   2.350   5.813  0.3685  0.0272  0.5529
    1OL    H11R 1827   4.525   2.384   5.893 -0.3558  0.9160  0.7766
    1OL    H11S 1828   4.403   2.435   5.776  0.1384 -0.9909 -1.6191
    1OL    C112 1829   4.541   2.281   5.703 -0.3981  0.1362  0.0020
    1OL    H12R 1830   4.468   2.239   5.633  0.4016 -0.0283 -0.7569
    1OL    H12S 1831   4.604   2.207   5.754 -0.5254 -0.2678 -0.4182
    1OL    C113 1832   4.633   2.382   5.629 -0.4415  0.1197 -0.2480
    1OL    H13R 1833   4.712   2.405   5.701  0.6975 -1.5138 -0.9264
    1OL    H13S 1834   4.590   2.481   5.610  1.5369  1.3693  1.3480
    1OL    C114 1835   4.697   2.340   5.490  0.3153 -0.1524 -0.2757
    1OL    H14R 1836   4.789   2.398   5.477  1.5793 -1.9861  0.1353
    1OL    H14S 1837   4.630   2.363   5.406 -3.0737 -0.6825  2.0641
    1OL    C115 1838   4.742   2.199   5.500 -0.2905  0.4690  0.6355
    1OL    H15R 1839   4.775   2.165   5.598 -2.1838 -1.4209  0.6912
    1OL    H15S 1840   4.831   2.193   5.437 -2.3475 -0.9442 -2.4159
    1OL    C116 1841   4.648   2.097   5.440  0.5470  0.0618  1.1257
    1OL    H16R 1842   4.629   2.121   5.335  0.9544  1.2375  1.3054
    1OL    H16S 1843   4.556   2.105   5.497 -0.1897 -0.0970  0.0019
    1OL    C117 1844   4.704   1.954   5.451 -0.3282  0.6170 -0.1680
    1OL    H17R 1845   4.674   1.910   5.546 -1.0930 -0.6674 -0.9817
    1OL    H17S 1846   4.813   1.959   5.442 -0.4141  0.8292 -1.2923
    1OL    C118 1847   4.664   1.854   5.346  0.0736 -0.2296  0.2147
    1OL    H18R 1848   4.672   1.900   5.247  1.5753  0.3956  0.5926
    1OL    H18S 1849   4.567   1.812   5.372  0.1435  0.4705  1.7250
    1OL    H18T 1850   4.739   1.775   5.344 -1.6433 -1.9689  0.7747
    1PA    C116 1851   4.206   0.586   5.587  0.4342 -0.4077 -0.2806
    1PA    H16R 1852   4.287   0.520   5.557  0.7342  0.2715 -1.0165
    1PA    H16S 1853   4.209   0.653   5.501 -0.7883  0.1252  0.0724
    1PA    H16T 1854   4.105   0.545   5.590 -0.7299  2.2643  0.4340
    1PA    C115 1855   4.249   0.669   5.711  0.0841  0.3103  0.0944
    1PA    H15R 1856   4.227   0.606   5.798  0.7020  1.9546  1.4895
    1PA    H15S 1857   4.357   0.686   5.708  0.2688 -0.8143 -0.1220
    1PA    C114 1858   4.186   0.807   5.710 -0.1229 -0.1417  0.5311
    1PA    H14R 1859   4.198   0.857   5.614  0.3559  1.8207  1.5614
    1PA    H14S 1860   4.081   0.780   5.723  0.4224 -1.7535  2.0672
    1PA    C113 1861   4.231   0.900   5.823  0.4400  0.0524  0.2257
    1PA    H13R 1862   4.203   0.865   5.923 -1.3610  0.4626 -0.0875
    1PA    H13S 1863   4.339   0.899   5.811  0.1687 -1.0450 -3.4315
    1PA    C112 1864   4.192   1.055   5.802  0.6014  1.0251 -0.3737
    1PA    H12R 1865   4.221   1.110   5.891  0.9111  0.2497  0.0074
    1PA    H12S 1866   4.248   1.104   5.721  1.7420  1.5181  0.6846
    1PA    C111 1867   4.032   1.088   5.798 -0.7080  0.0170 -1.1316
    1PA    H11R 1868   4.028   1.188   5.755 -0.3261 -0.8089 -3.2480
    1PA    H11S 1869   3.987   1.013   5.733  0.6795 -0.6728 -1.3311
    1PA    C110 1870   3.967   1.081   5.940 -0.4760  0.0652  0.9396
    1PA    H10R 1871   3.949   0.977   5.969 -4.1690 -1.0355 -3.8640
    1PA    H10S 1872   4.028   1.130   6.016  0.0728  1.5028 -0.3844
    1PA     C19 1873   3.828   1.157   5.942  0.6063 -0.6957  0.2799
    1PA     H9R 1874   3.838   1.264   5.962  3.3318 -0.6133 -1.1060
    1PA     H9S 1875   3.779   1.141   5.846 -1.3298  2.5942  0.5899
    1PA     C18 1876   3.745   1.116   6.071 -0.1574 -0.1883  0.5914
    1PA     H8R 1877   3.753   1.007   6.079 -1.1585 -0.4213 -1.0596
    1PA     H8S 1878   3.795   1.145   6.163  1.4681  2.8952 -1.1059
    1PA     C17 1879   3.593   1.151   6.065  0.0513  0.5529  0.0503
    1PA     H7R 1880   3.570   1.258   6.054 -0.7604  0.5215  1.3316
    1PA     H7S 1881   3.554   1.105   5.974  2.5007  1.8966 -1.8168
    1PA     C16 1882   3.515   1.104   6.186  1.3024  0.0174 -0.4018
    1PA     H6R 1883   3.409   1.096   6.162  0.5289  0.5409  2.4323
    1PA     H6S 1884   3.536   1.001   6.215  1.1699  0.8704  3.2778
    1PA     C15 1885   3.538   1.207   6.296 -0.0582  0.6400  0.7501
    1PA     H5R 1886   3.638   1.191   6.338 -0.2103  0.8093  1.1845
    1PA     H5S 1887   3.544   1.310   6.259  3.0514 -0.0599 -1.0714
    1PA     C14 1888   3.437   1.188   6.410 -0.5044  0.1319 -0.0467
    1PA     H4R 1889   3.339   1.167   6.366 -0.4378 -0.9951  0.3106
    1PA     H4S 1890   3.473   1.106   6.472  1.3170  0.8661 -0.0763
    1PA     C13 1891   3.434   1.316   6.499 -0.4618 -0.5938  0.6550
    1PA     H3R 1892   3.536   1.332   6.534  0.1576 -0.3853 -1.1560
    1PA     H3S 1893   3.409   1.402   6.436 -0.8182 -1.8814 -1.0358
    1PA     C12 1894   3.347   1.306   6.627  0.1303  0.5422  0.3663
    1PA     H2R 1895   3.358   1.393   6.692 -1.8451 -0.3200  1.9618
    1PA     H2S 1896   3.242   1.296   6.597 -0.1466  2.3613  0.6167
    1PC     C11 1897   3.388   1.180   6.705  0.1114 -0.1014  0.2427
    1PC     O12 1898   3.503   1.142   6.728  0.1148 -0.5659 -0.1615
    1PC     O11 1899   3.274   1.124   6.747 -0.1883 -0.5102 -0.2958
    1PC      C1 1900   3.285   0.996   6.813 -0.3920  0.0727 -0.0150
    1PC      HR 1901   3.353   0.927   6.764  0.3419  0.6155  0.2191
    1PC      HS 1902   3.315   1.005   6.918 -1.2192 -1.3441  0.3606
    1PC      C2 1903   3.152   0.926   6.803  0.2472  0.5752  0.5815
    1PC      HX 1904   3.071   0.986   6.844  0.5675  0.2970  1.6329
    1PC      C3 1905   3.162   0.781   6.866 -0.0809 -0.3163 -0.1033
    1PC      HA 1906   3.156   0.794   6.974 -2.1760  0.8219 -0.3108
    1PC      HB 1907   3.078   0.717   6.837  0.0265  0.0132 -1.1935
    1PC     O31 1908   3.287   0.715   6.822 -0.5527 -0.1468 -0.1629
    1PC     P31 1909   3.368   0.608   6.917  0.0242  0.0854  0.2598
    1PC     O32 1910   3.278   0.490   6.919  0.0630 -0.0336  0.4689
    1PC     C31 1911   3.170   0.471   7.008 -0.3503  0.0534  0.2468
    1PC     H1A 1912   3.129   0.567   7.041 -2.4173 -0.2593 -1.2217
    1PC     H1B 1913   3.098   0.408   6.955  0.3138  0.4355 -1.1550
    1PC     C32 1914   3.219   0.400   7.135  0.1683  0.3335 -0.5915
    1PC     H2A 1915   3.295   0.463   7.182  0.7260 -1.7281  1.4730
    1PC     H2B 1916   3.134   0.390   7.202  0.4834 -0.8616 -0.3268
    1PC     N31 1917   3.285   0.261   7.127 -1.0314  0.2071  0.1572
    1PC     C33 1918   3.420   0.269   7.066  0.4650  0.2403  0.0170
    1PC     H3A 1919   3.453   0.172   7.027 -0.9356 -0.8265  1.4020
    1PC     H3B 1920   3.426   0.353   6.996  0.4755 -0.6002 -1.0286
    1PC     H3C 1921   3.490   0.294   7.146 -0.8708  2.0643  0.6956
    1PC     C34 1922   3.287   0.200   7.257  0.3448 -0.6653 -0.7708
    1PC     H4A 1923   3.181   0.180   7.270  0.1096  0.7137 -0.4569
    1PC     H4B 1924   3.342   0.105   7.257 -0.6649 -1.2671 -0.7435
    1PC     H4C 1925   3.329   0.271   7.328  0.1966 -0.9936 -0.3472
    1PC     C35 1926   3.213   0.171   7.029 -0.3130 -0.1330  0.2828
    1PC     H5A 1927   3.261   0.073   7.021  0.3370  0.2984 -1.6948
    1PC     H5B 1928   3.221   0.225   6.935 -3.4744 -0.2773 -0.1876
    1PC     H5C 1929   3.108   0.172   7.057 -0.1954  0.1173  0.7107
    1PC     O33 1930   3.488   0.567   6.842 -0.1997  0.1175  0.0330
    1PC     O34 1931   3.377   0.667   7.051  0.0853 -0.0276  0.3357
    1PC     O21 1932   3.133   0.915   6.660 -0.3273 -1.2426 -0.0844
    1PC     C21 1933   3.016   0.942   6.602 -0.4695  0.1032  0.5320
    1PC     O22 1934   2.915   0.950   6.666  0.1449 -0.6233  0.0991
    1OL     C12 1935   3.025   0.966   6.452 -0.3550  0.8018  0.0294
    1OL     H2R 1936   2.937   0.912   6.416 -0.6440  0.3328  1.3911
    1OL     H2S 1937   3.118   0.938   6.402  0.2434  2.2700  0.2847
    1OL     C13 1938   3.013   1.113   6.416 -0.5019  0.2539 -0.3290
    1OL     H3R 1939   3.107   1.167   6.432 -0.7731  1.4601 -2.3788
    1OL     H3S 1940   2.942   1.170   6.476 -0.6085  0.8032 -0.9675
    1OL     C14 1941   2.961   1.112   6.267 -0.3002 -0.4470  0.6122
    1OL     H4R 1942   2.864   1.062   6.258  0.2385 -1.2997 -0.6390
    1OL     H4S 1943   3.024   1.056   6.199  0.2115  1.0193 -0.1521
    1OL     C15 1944   2.945   1.257   6.214 -0.1653  0.1488 -0.3119
    1OL     H5R 1945   2.866   1.304   6.273 -1.5904  0.3058 -2.2222
    1OL     H5S 1946   2.908   1.263   6.111  0.6028 -0.8562 -0.6555
    1OL     C16 1947   3.071   1.344   6.217 -0.8070  0.1811  0.1190
    1OL     H6R 1948   3.123   1.334   6.312 -0.2613  2.0894  0.0450
    1OL     H6S 1949   3.047   1.449   6.200 -2.9509  0.1354  2.3058
    1OL     C17 1950   3.181   1.307   6.114 -0.5816  0.1491 -0.0776
    1OL     H7R 1951   3.220   1.210   6.145  0.9837  0.6359 -0.4369
    1OL     H7S 1952   3.249   1.392   6.116 -0.4472  0.0404  1.3378
    1OL     C18 1953   3.135   1.281   5.962  0.0756  0.3333  0.4959
    1OL     H8R 1954   3.079   1.365   5.921  2.3317  1.4173 -0.5219
    1OL     H8S 1955   3.071   1.192   5.959  3.2524 -2.1610  0.8917
    1OL     C19 1956   3.255   1.261   5.864  0.0688 -0.0325 -0.3966
    1OL     H9R 1957   3.346   1.318   5.880  0.2280 -0.4124  0.0636
    1OL    C110 1958   3.267   1.165   5.772 -0.2286  0.5096 -0.1469
    1OL    H10R 1959   3.358   1.160   5.712  0.9575 -1.3170  1.6671
    1OL    C111 1960   3.158   1.074   5.714  0.4146  0.0556 -1.1909
    1OL    H11R 1961   3.056   1.108   5.733  0.4856 -0.7064  0.7722
    1OL    H11S 1962   3.168   0.977   5.763 -1.1185 -0.1753 -1.2885
    1OL    C112 1963   3.173   1.063   5.565  0.2328  0.3917  0.5892
    1OL    H12R 1964   3.258   0.998   5.541 -1.4392 -1.8870  0.5795
    1OL    H12S 1965   3.177   1.163   5.520 -1.5561  0.0672 -0.3824
    1OL    C113 1966   3.057   0.991   5.502  0.1408  0.8209  0.5795
    1OL    H13R 1967   2.973   1.061   5.505 -1.3405 -0.5949 -2.6915
    1OL    H13S 1968   3.040   0.901   5.561  0.2133  0.6457  0.3387
    1OL    C114 1969   3.079   0.972   5.353 -0.2036 -0.3510 -0.0303
    1OL    H14R 1970   3.178   0.927   5.344 -1.3664 -2.6451 -3.1260
    1OL    H14S 1971   3.088   1.074   5.315  0.2911 -0.1251  0.6667
    1OL    C115 1972   2.971   0.880   5.290  0.6740 -0.7285 -0.2783
    1OL    H15R 1973   2.869   0.916   5.301  0.4616 -1.7207  1.3449
    1OL    H15S 1974   2.978   0.786   5.344  2.1764 -1.3235 -1.4345
    1OL    C116 1975   3.007   0.844   5.138  0.4476  0.3628  0.5269
    1OL    H16R 1976   2.945   0.760   5.107  2.2099 -0.7412 -0.1640
    1OL    H16S 1977   3.110   0.811   5.120 -0.1904 -0.9200 -1.0612
    1OL    C117 1978   2.991   0.966   5.040 -0.0103  1.0070 -0.5071
    1OL    H17R 1979   3.051   1.050   5.076  1.5752 -1.0570  2.0547
    1OL    H17S 1980   2.886   0.996   5.054 -0.1987 -0.3703  1.4202
    1OL    C118 1981   3.019   0.942   4.895 -0.2526  0.1450  0.0959
    1OL    H18R 1982   3.027   1.041   4.849  0.7191  0.5269  1.0584
    1OL    H18S 1983   2.946   0.881   4.842 -1.4064  0.7116  0.9910
    1OL    H18T 1984   3.114   0.894   4.868 -1.4611 -2.2658 -0.1186
    1PA    C116 1985   2.811   4.274   5.434 -0.0290 -0.8591  0.0294
    1PA    H16R 1986   2.887   4.242   5.362  0.8801 -0.8374  0.9552
    1PA    H16S 1987   2.726   4.206   5.439 -0.0747 -0.7412  1.0861
    1PA    H16T 1988   2.856   4.291   5.532 -1.3534  1.3499  0.3322
    1PA    C115 1989   2.744   4.407   5.395  0.2800 -0.6906 -0.6866
    1PA    H15R 1990   2.809   4.494   5.383 -0.3335 -0.0846  0.2297
    1PA    H15S 1991   2.677   4.403   5.309  0.0648 -2.0458 -0.4644
    1PA    C114 1992   2.650   4.455   5.509 -0.3508 -0.2897  0.3383
    1PA    H14R 1993   2.708   4.476   5.600 -0.6914  0.5380  0.3782
    1PA    H14S 1994   2.618   4.556   5.482 -3.6961 -1.0137  1.1540
    1PA    C113 1995   2.529   4.371   5.556 -0.4973 -0.2280  0.0424
    1PA    H13R 1996   2.477   4.326   5.471 -0.0293  0.5186 -0.6537
    1PA    H13S 1997   2.567   4.283   5.608 -1.2138 -2.0163 -2.3023
    1PA    C112 1998   2.437   4.445   5.639  0.7524  0.0890  0.2321
    1PA    H12R 1999   2.485   4.471   5.734  1.5898 -0.6338  0.0206
    1PA    H12S 2000   2.405   4.531   5.580 -0.5106  1.3170  2.5506
    1PA    C111 2001   2.301   4.378   5.675 -0.1948  1.1137  0.0946
    1PA    H11R 2002   2.247   4.442   5.744 -1.9614  0.8961 -1.0166
    1PA    H11S 2003   2.240   4.374   5.585 -0.2906 -0.6720  0.2042
    1PA    C110 2004   2.319   4.230   5.718  0.6822  0.1292 -0.1577
    1PA    H10R 2005   2.351   4.177   5.628  2.1537  1.0312 -0.2008
    1PA    H10S 2006   2.396   4.234   5.795 -1.0202  0.0151  1.6458
    1PA     C19 2007   2.191   4.190   5.793  0.2106 -0.8867  0.3744
    1PA     H9R 2008   2.145   4.272   5.848  1.2491 -0.5624  0.7793
    1PA     H9S 2009   2.116   4.178   5.714  1.5555 -1.0451 -0.9216
    1PA     C18 2010   2.199   4.074   5.884 -0.1150 -0.5888  0.1448
    1PA     H8R 2011   2.217   3.981   5.830  0.6762 -0.6021  0.4184
    1PA     H8S 2012   2.281   4.110   5.946  1.1644  1.5013 -2.5357
    1PA     C17 2013   2.065   4.062   5.959 -1.2665  0.0517 -0.3488
    1PA     H7R 2014   2.041   4.155   6.009 -1.1406  0.9094 -1.8068
    1PA     H7S 2015   1.991   4.054   5.879 -0.7022 -1.3433 -0.7712
    1PA     C16 2016   2.063   3.937   6.051 -0.5821 -0.6329 -0.3499
    1PA     H6R 2017   1.961   3.918   6.085 -0.5577  0.1672  0.1924
    1PA     H6S 2018   2.099   3.849   5.996  1.3089  0.0604 -0.2858
    1PA     C15 2019   2.159   3.955   6.170 -0.8417 -0.3148 -0.6547
    1PA     H5R 2020   2.190   3.864   6.223 -1.2552 -1.0154 -1.5757
    1PA     H5S 2021   2.255   3.995   6.138 -0.8189 -0.5701 -0.9143
    1PA     C14 2022   2.114   4.056   6.273 -0.3003  1.0952 -0.4513
    1PA     H4R 2023   2.190   4.062   6.351 -1.1762 -2.0768  0.8101
    1PA     H4S 2024   2.105   4.151   6.221 -0.6005  0.8549 -0.8508
    1PA     C13 2025   1.977   4.022   6.334 -0.4334 -0.4072  0.2738
    1PA     H3R 2026   1.953   4.113   6.390 -0.0130 -0.7449  1.0149
    1PA     H3S 2027   1.905   4.004   6.254  1.2792  0.0401 -1.4293
    1PA     C12 2028   1.974   3.896   6.433  0.5897  0.2597 -0.5385
    1PA     H2R 2029   1.878   3.848   6.450  2.5942 -3.1013  2.9081
    1PA     H2S 2030   2.035   3.821   6.381  1.0900  0.3987 -0.1576
    1PC     C11 2031   2.037   3.937   6.567 -0.1491 -0.4436 -0.2569
    1PC     O12 2032   1.969   3.973   6.663  0.1854 -0.6137  0.1768
    1PC     O11 2033   2.169   3.907   6.573 -0.1283  0.2941  0.5292
    1PC      C1 2034   2.225   3.903   6.702 -0.1928  0.2362 -0.7989
    1PC      HR 2035   2.333   3.911   6.693  0.3326 -2.1209  2.0387
    1PC      HS 2036   2.194   3.988   6.763 -0.8281 -0.2559 -0.4278
    1PC      C2 2037   2.188   3.771   6.779  0.0539  0.0609 -0.1765
    1PC      HX 2038   2.080   3.774   6.796 -0.0290 -1.8763 -0.1979
    1PC      C3 2039   2.246   3.757   6.922 -0.0199 -0.6543  0.0130
    1PC      HA 2040   2.217   3.660   6.963 -0.4254 -0.2087  0.8125
    1PC      HB 2041   2.355   3.762   6.910 -0.1322 -0.2071 -0.8475
    1PC     O31 2042   2.198   3.864   7.009 -0.3951  0.4614 -0.4435
    1PC     P31 2043   2.217   3.860   7.168 -0.2455 -0.0214 -0.6879
    1PC     O32 2044   2.367   3.903   7.189  0.1967 -0.0700  0.3379
    1PC     C31 2045   2.402   4.046   7.182  0.0547 -0.4260 -0.3117
    1PC     H1A 2046   2.499   4.059   7.132  0.0090  0.0612 -0.2833
    1PC     H1B 2047   2.336   4.098   7.111 -0.6512 -0.9636 -0.0634
    1PC     C32 2048   2.396   4.103   7.324 -0.5672 -0.0310 -0.4823
    1PC     H2A 2049   2.425   4.205   7.346 -1.4381 -0.2147  1.7665
    1PC     H2B 2050   2.298   4.081   7.365 -1.0870  2.8966  0.0183
    1PC     N31 2051   2.486   4.040   7.423 -0.7095  0.5485 -0.1270
    1PC     C33 2052   2.448   3.892   7.460  0.2967 -0.3718 -0.2001
    1PC     H3A 2053   2.472   3.824   7.377  1.2444 -2.3486  1.6049
    1PC     H3B 2054   2.502   3.856   7.548 -0.9681  0.4386  0.9330
    1PC     H3C 2055   2.341   3.890   7.480  0.0877  1.2052 -1.0228
    1PC     C34 2056   2.628   4.054   7.391  0.7527  0.1441 -0.3723
    1PC     H4A 2057   2.644   4.160   7.368  2.3293  0.3830  1.5453
    1PC     H4B 2058   2.689   4.016   7.473  0.8918 -0.0216 -0.5494
    1PC     H4C 2059   2.652   3.978   7.316  1.3482 -0.0143 -0.0301
    1PC     C35 2060   2.476   4.109   7.556  0.1393  0.6698  0.3606
    1PC     H5A 2061   2.522   4.208   7.554 -0.6303  1.0331 -1.2356
    1PC     H5B 2062   2.536   4.050   7.625  1.1524  0.1582 -0.9319
    1PC     H5C 2063   2.372   4.125   7.588 -0.0948 -1.7428  0.9636
    1PC     O33 2064   2.132   3.962   7.225  0.3426  0.1707 -0.4590
    1PC     O34 2065   2.205   3.723   7.210  0.4292  0.2399 -0.1429
    1PC     O21 2066   2.235   3.660   6.696  0.1750  0.0628 -0.3171
    1PC     C21 2067   2.144   3.603   6.615  0.0164  0.4933  0.1170
    1PC     O22 2068   2.026   3.641   6.603 -0.3373 -0.1352  0.2594
    1OL     C12 2069   2.212   3.494   6.526  0.2533  0.5880 -0.0388
    1OL     H2R 2070   2.306   3.467   6.575 -0.0626  0.0968  0.3041
    1OL     H2S 2071   2.239   3.534   6.428  0.0194 -0.1933 -0.4360
    1OL     C13 2072   2.120   3.373   6.505 -0.0079 -0.3141  0.1930
    1OL     H3R 2073   2.094   3.328   6.601  1.8919 -4.6969 -1.0819
    1OL     H3S 2074   2.183   3.301   6.451 -1.4864 -2.3942  1.1043
    1OL     C14 2075   1.989   3.383   6.429 -0.5196  0.3167 -0.0520
    1OL     H4R 2076   1.921   3.435   6.497  0.9544  1.3682  0.6533
    1OL     H4S 2077   1.948   3.286   6.397 -1.2792  0.4058  0.6018
    1OL     C15 2078   1.980   3.474   6.301 -0.5373  0.2237 -0.1700
    1OL     H5R 2079   2.003   3.576   6.333 -2.6522  0.7313 -0.1701
    1OL     H5S 2080   1.882   3.468   6.253  0.3789 -0.9825 -2.0463
    1OL     C16 2081   2.083   3.425   6.197  0.1777 -0.1339  0.3880
    1OL     H6R 2082   2.060   3.324   6.162  1.8909 -0.0744 -1.0246
    1OL     H6S 2083   2.184   3.433   6.238  1.4249  1.0359 -2.6221
    1OL     C17 2084   2.069   3.519   6.078  0.1408  0.4084 -0.0527
    1OL     H7R 2085   1.969   3.512   6.035  0.2750 -1.4949 -0.1295
    1OL     H7S 2086   2.097   3.623   6.098  0.2198  0.5478 -0.8739
    1OL     C18 2087   2.167   3.496   5.960 -0.8290  0.7641 -0.5831
    1OL     H8R 2088   2.159   3.393   5.923 -0.5794  0.0881  1.1353
    1OL     H8S 2089   2.270   3.512   5.992 -1.0957  3.2797 -0.8261
    1OL     C19 2090   2.137   3.576   5.837 -0.7453 -0.1606 -0.7396
    1OL     H9R 2091   2.042   3.538   5.799 -1.3838  0.8961 -0.2535
    1OL    C110 2092   2.221   3.653   5.765  0.5527 -0.4381 -0.2802
    1OL    H10R 2093   2.183   3.702   5.675 -0.2182 -0.2105  0.1560
    1OL    C111 2094   2.359   3.698   5.819  0.5910 -0.1949 -0.3704
    1OL    H11R 2095   2.358   3.700   5.928  0.5984  2.1074 -0.3685
    1OL    H11S 2096   2.361   3.804   5.795 -1.7710  0.4782  1.9498
    1OL    C112 2097   2.479   3.625   5.762 -0.0506 -1.0124 -0.8752
    1OL    H12R 2098   2.453   3.520   5.756  0.2357 -1.2743  1.4616
    1OL    H12S 2099   2.565   3.642   5.827 -0.0592 -0.8826 -0.8966
    1OL    C113 2100   2.520   3.667   5.619  0.0565  0.1875 -0.2222
    1OL    H13R 2101   2.465   3.612   5.543 -3.4945  1.4332  1.2529
    1OL    H13S 2102   2.623   3.631   5.615 -0.4856 -1.4576 -0.0106
    1OL    C114 2103   2.518   3.813   5.574 -1.0085  0.2726 -0.1331
    1OL    H14R 2104   2.580   3.869   5.645 -1.5347 -2.8231  3.0416
    1OL    H14S 2105   2.416   3.852   5.584 -0.6698  1.0005  0.6425
    1OL    C115 2106   2.578   3.842   5.438 -0.0077  0.4450  0.1230
    1OL    H15R 2107   2.547   3.766   5.366  1.6944 -1.5836  1.4156
    1OL    H15S 2108   2.686   3.832   5.430 -0.0915  0.6662 -1.5070
    1OL    C116 2109   2.537   3.982   5.385 -0.6172  0.5821  0.6995
    1OL    H16R 2110   2.568   4.054   5.461 -0.6489  0.8399  0.4685
    1OL    H16S 2111   2.428   3.994   5.386 -0.5918  1.6887 -1.7197
    1OL    C117 2112   2.590   4.023   5.242 -0.0242  0.2992 -0.0029
    1OL    H17R 2113   2.698   4.023   5.256 -0.1465  0.7282  0.9815
    1OL    H17S 2114   2.555   3.937   5.185 -0.2409 -0.4105  1.1782
    1OL    C118 2115   2.547   4.164   5.199 -0.7906  0.0215  0.1500
    1OL    H18R 2116   2.559   4.231   5.285 -1.5964 -0.6959  0.8466
    1OL    H18S 2117   2.444   4.179   5.167 -0.1590  2.2880 -0.9873
    1OL    H18T 2118   2.617   4.189   5.119  0.8609  0.9969  1.8081
    1PA    C116 2119   3.753   4.171   5.832 -0.6618 -0.5184 -0.4069
    1PA    H16R 2120   3.770   4.107   5.746 -1.7879 -0.5752 -0.6024
    1PA    H16S 2121   3.848   4.216   5.860  1.5216 -4.6115 -0.5774
    1PA    H16T 2122   3.686   4.247   5.791  0.7262 -0.0509 -1.9241
    1PA    C115 2123   3.687   4.090   5.948  0.2327 -0.1138 -1.2417
    1PA    H15R 2124   3.580   4.085   5.922 -0.0567 -4.2125  0.1721
    1PA    H15S 2125   3.715   3.985   5.948  0.3858 -0.0749 -1.4179
    1PA    C114 2126   3.716   4.149   6.088  0.1618  0.3972 -0.7374
    1PA    H14R 2127   3.821   4.172   6.103 -0.1652  2.6400 -1.5110
    1PA    H14S 2128   3.669   4.248   6.097 -0.6525 -0.0575  0.2709
    1PA    C113 2129   3.666   4.064   6.206  0.6885 -0.1518  1.6731
    1PA    H13R 2130   3.557   4.064   6.200  0.7536  0.2726  0.3540
    1PA    H13S 2131   3.705   3.964   6.190  1.8131  0.6695 -1.1730
    1PA    C112 2132   3.720   4.115   6.341  0.3741 -0.5752  0.7941
    1PA    H12R 2133   3.825   4.088   6.354  1.1442  2.1296  0.8532
    1PA    H12S 2134   3.705   4.222   6.359 -0.3140 -0.5721  0.2706
    1PA    C111 2135   3.644   4.041   6.447  0.5598 -0.0590 -0.3547
    1PA    H11R 2136   3.536   4.040   6.433  0.2842  1.0144  1.4158
    1PA    H11S 2137   3.668   3.934   6.453 -1.1576 -0.3862  2.0843
    1PA    C110 2138   3.679   4.087   6.594  0.2132 -0.1994 -0.1919
    1PA    H10R 2139   3.753   4.167   6.592  2.0781 -1.7265  1.9756
    1PA    H10S 2140   3.590   4.126   6.643 -2.2215 -2.5430 -2.4197
    1PA     C19 2141   3.738   3.970   6.676  0.7119  0.5957 -0.1434
    1PA     H9R 2142   3.665   3.890   6.689  1.5055  0.2616  3.0652
    1PA     H9S 2143   3.824   3.924   6.627 -0.9974 -1.0298 -1.7628
    1PA     C18 2144   3.762   4.003   6.822  1.1721  0.3136 -0.7649
    1PA     H8R 2145   3.826   4.092   6.815 -1.0427  2.0281 -0.1791
    1PA     H8S 2146   3.670   4.034   6.871  2.3961  0.4661  1.6150
    1PA     C17 2147   3.816   3.881   6.904 -0.5795 -0.7424  0.5570
    1PA     H7R 2148   3.741   3.803   6.890  0.2269 -2.0892  3.1361
    1PA     H7S 2149   3.909   3.842   6.864  0.7697  0.7386  2.0704
    1PA     C16 2150   3.833   3.916   7.054 -0.3668 -0.3801  0.0968
    1PA     H6R 2151   3.739   3.967   7.078 -1.1264 -0.5828 -2.1713
    1PA     H6S 2152   3.833   3.818   7.103  1.2327 -0.2846  0.3371
    1PA     C15 2153   3.958   4.006   7.081 -0.1899  0.3049 -0.9729
    1PA     H5R 2154   4.049   3.950   7.059  1.4321  0.9217  3.1922
    1PA     H5S 2155   3.953   4.096   7.019 -1.1349  1.1450  0.2745
    1PA     C14 2156   3.971   4.046   7.226  0.5897 -0.2591 -0.3019
    1PA     H4R 2157   3.977   3.954   7.284 -0.2574  0.3316  0.7415
    1PA     H4S 2158   4.063   4.104   7.233 -0.2318  0.8904  1.7834
    1PA     C13 2159   3.849   4.130   7.281  0.4342  0.2788  0.0840
    1PA     H3R 2160   3.859   4.229   7.237  0.8097 -0.5899 -1.9175
    1PA     H3S 2161   3.761   4.086   7.235 -0.1381 -0.5847  1.9396
    1PA     C12 2162   3.840   4.131   7.437 -0.2262 -0.3329  0.0196
    1PA     H2R 2163   3.752   4.182   7.478  0.1795 -1.3132  2.2602
    1PA     H2S 2164   3.841   4.024   7.460 -0.9076 -0.4532 -0.4692
    1PC     C11 2165   3.961   4.192   7.497  0.7886 -0.4807  0.0343
    1PC     O12 2166   4.062   4.122   7.515 -0.3008  0.1005 -0.2588
    1PC     O11 2167   3.950   4.323   7.522  0.4333  0.0747 -0.1668
    1PC      C1 2168   4.060   4.416   7.534 -0.0695  0.4249  0.1138
    1PC      HR 2169   4.043   4.472   7.626  0.5565 -1.5942  1.5462
    1PC      HS 2170   4.155   4.364   7.549  1.0731  1.8489 -1.6813
    1PC      C2 2171   4.071   4.511   7.413  0.7531  0.6158 -0.1902
    1PC      HX 2172   4.150   4.583   7.436  0.1583  0.4570  2.8201
    1PC      C3 2173   3.947   4.603   7.403  0.4185 -0.3050  0.1494
    1PC      HA 2174   3.956   4.678   7.323  0.4636  1.4868  1.7637
    1PC      HB 2175   3.865   4.536   7.375  0.4657 -0.4158  0.2773
    1PC     O31 2176   3.925   4.678   7.527  0.7427 -0.1760 -0.1180
    1PC     P31 2177   4.009   4.818   7.550 -0.5189 -0.1242  0.3265
    1PC     O32 2178   4.148   4.765   7.604 -0.2730 -0.0195  0.3770
    1PC     C31 2179   4.173   4.758   7.745 -0.5783  0.8045 -0.5409
    1PC     H1A 2180   4.089   4.708   7.792 -0.7691  2.1582  0.6170
    1PC     H1B 2181   4.259   4.692   7.761 -2.3664 -2.0482 -1.8609
    1PC     C32 2182   4.193   4.896   7.810  0.2397 -0.4324 -0.3029
    1PC     H2A 2183   4.281   4.945   7.769 -1.4651  2.0774 -1.2321
    1PC     H2B 2184   4.108   4.962   7.788 -0.5368 -1.0066  0.8856
    1PC     N31 2185   4.186   4.896   7.960 -0.0266 -0.0426 -0.0986
    1PC     C33 2186   4.237   5.027   7.999 -0.1799 -0.0891 -0.0167
    1PC     H3A 2187   4.173   5.110   7.970 -1.4434 -0.8908  0.4084
    1PC     H3B 2188   4.257   5.017   8.106  0.7969 -1.1621 -0.2785
    1PC     H3C 2189   4.332   5.027   7.946  0.3171 -1.3935  0.8077
    1PC     C34 2190   4.041   4.884   8.003 -0.2619 -0.2533 -0.3105
    1PC     H4A 2191   3.979   4.956   7.949 -1.2523 -0.9339 -0.1121
    1PC     H4B 2192   3.999   4.786   7.980 -0.2025 -0.3015 -0.2156
    1PC     H4C 2193   4.043   4.893   8.112 -1.8135  0.3870 -0.3014
    1PC     C35 2194   4.263   4.784   8.028 -0.3601  0.0475 -0.1383
    1PC     H5A 2195   4.289   4.820   8.128 -0.6725  0.2449 -0.1288
    1PC     H5B 2196   4.358   4.774   7.975  0.8290  2.2843  1.4043
    1PC     H5C 2197   4.218   4.687   8.048  2.1120 -0.6937  2.6948
    1PC     O33 2198   4.027   4.884   7.420  0.0776  0.3352  0.3036
    1PC     O34 2199   3.939   4.895   7.653 -0.6502 -0.4615 -0.1260
    1PC     O21 2200   4.079   4.431   7.292  0.1966 -0.0797  0.1441
    1PC     C21 2201   4.149   4.475   7.187 -0.5645 -0.4863 -0.5919
    1PC     O22 2202   4.179   4.596   7.171 -0.5547 -0.4018  0.2946
    1OL     C12 2203   4.166   4.379   7.074  0.2643 -0.3113  0.7410
    1OL     H2R 2204   4.079   4.315   7.063  0.2128 -0.6402  2.7579
    1OL     H2S 2205   4.244   4.304   7.091 -0.2825 -0.6865  1.6180
    1OL     C13 2206   4.197   4.456   6.944  0.2565 -0.4554 -0.7164
    1OL     H3R 2207   4.277   4.526   6.967 -1.5338  1.3113  0.5833
    1OL     H3S 2208   4.109   4.517   6.922 -0.9641 -2.2383 -1.0131
    1OL     C14 2209   4.239   4.367   6.830 -0.7773 -0.3139  0.4747
    1OL     H4R 2210   4.316   4.301   6.871 -1.1575 -0.2376  1.3390
    1OL     H4S 2211   4.272   4.421   6.741 -1.8207 -1.3968 -0.5909
    1OL     C15 2212   4.139   4.266   6.780  0.2194  0.2701  0.7114
    1OL     H5R 2213   4.037   4.303   6.792 -0.1207  0.2391 -1.6345
    1OL     H5S 2214   4.136   4.178   6.845  1.0404 -0.2674  0.0453
    1OL     C16 2215   4.169   4.225   6.636  0.0808  0.0391 -0.4861
    1OL     H6R 2216   4.271   4.186   6.645  0.4105  1.0224  0.2595
    1OL     H6S 2217   4.178   4.310   6.567  1.7996  1.3145  1.1913
    1OL     C17 2218   4.072   4.116   6.581  0.0999  0.4029  0.2188
    1OL     H7R 2219   3.971   4.157   6.572 -0.1559  0.1360  1.6384
    1OL     H7S 2220   4.063   4.032   6.651 -5.4095  1.1166  0.7819
    1OL     C18 2221   4.134   4.073   6.450 -0.1050 -0.2942 -0.2072
    1OL     H8R 2222   4.147   4.151   6.375  0.0842  0.6134  0.7453
    1OL     H8S 2223   4.056   4.017   6.398 -0.3609  1.5701 -1.9736
    1OL     C19 2224   4.254   3.983   6.461  0.2859 -0.3826  0.3319
    1OL     H9R 2225   4.255   3.928   6.555 -0.3408 -0.1454  0.4808
    1OL    C110 2226   4.360   3.988   6.384 -0.6266 -0.1737  0.0126
    1OL    H10R 2227   4.439   3.915   6.401 -0.4240 -0.1344 -0.7102
    1OL    C111 2228   4.370   4.055   6.251  0.1496 -0.0974  0.3767
    1OL    H11R 2229   4.475   4.075   6.227  0.0311 -0.0291 -0.1008
    1OL    H11S 2230   4.313   4.147   6.256  0.5250  0.0774  1.7143
    1OL    C112 2231   4.324   3.953   6.139 -0.3760  0.1134 -1.0549
    1OL    H12R 2232   4.236   3.893   6.162 -0.1847  0.0726 -0.3979
    1OL    H12S 2233   4.406   3.880   6.134 -0.3618 -0.0706  0.9410
    1OL    C113 2234   4.316   4.024   6.002  0.2960  0.0975 -0.0629
    1OL    H13R 2235   4.412   4.071   5.979  1.4397 -2.0753 -0.0358
    1OL    H13S 2236   4.243   4.105   6.005 -1.9950 -1.8350 -0.5039
    1OL    C114 2237   4.273   3.934   5.888 -0.5035 -0.2559 -0.0614
    1OL    H14R 2238   4.177   3.886   5.910  1.3243 -2.7887  3.5221
    1OL    H14S 2239   4.346   3.854   5.874 -0.5704 -0.5233  1.0175
    1OL    C115 2240   4.268   4.014   5.756  0.0883  0.1735 -0.1717
    1OL    H15R 2241   4.368   4.055   5.741  1.4753 -2.2005  1.8650
    1OL    H15S 2242   4.203   4.101   5.766 -0.2889 -0.3296  2.3684
    1OL    C116 2243   4.220   3.927   5.646  0.1879 -0.0011  0.4170
    1OL    H16R 2244   4.111   3.936   5.648  0.3940  4.8985  0.7497
    1OL    H16S 2245   4.255   3.824   5.652 -1.2509 -0.6365 -1.1145
    1OL    C117 2246   4.268   3.968   5.503 -0.2840 -0.3477  0.2779
    1OL    H17R 2247   4.218   3.917   5.421 -0.0253  1.5713 -1.1505
    1OL    H17S 2248   4.374   3.942   5.501 -0.1086 -0.1793  2.9967
    1OL    C118 2249   4.260   4.116   5.479 -0.7124 -0.0251 -0.2494
    1OL    H18R 2250   4.338   4.176   5.527  0.6647 -0.7964 -1.4419
    1OL    H18S 2251   4.164   4.153   5.516 -0.2821 -3.0576  4.7387
    1OL    H18T 2252   4.274   4.146   5.375 -0.2581 -0.7949 -0.4197
    1PA    C116 2253   4.818   2.491   6.156  0.0367  0.5973 -0.0410
    1PA    H16R 2254   4.873   2.493   6.250 -2.0408 -2.3599  1.4090
    1PA    H16S 2255   4.817   2.392   6.110 -2.1004  0.5458  0.0158
    1PA    H16T 2256   4.711   2.499   6.178 -0.3860 -1.8463 -0.8105
    1PA    C115 2257   4.863   2.601   6.059  0.2790  0.4188  0.4468
    1PA    H15R 2258   4.876   2.695   6.112  1.7553 -0.7495  2.3109
    1PA    H15S 2259   4.964   2.573   6.028  1.5285  1.4217  3.2714
    1PA    C114 2260   4.776   2.606   5.933  0.5127  0.2151  0.3788
    1PA    H14R 2261   4.788   2.518   5.870  1.4165  1.2189 -0.8994
    1PA    H14S 2262   4.671   2.612   5.962  0.8695 -0.2146  1.8530
    1PA    C113 2263   4.787   2.719   5.833  0.5874 -0.7264  0.8744
    1PA    H13R 2264   4.892   2.725   5.804  0.2590 -1.0314 -0.4482
    1PA    H13S 2265   4.730   2.686   5.746 -1.3980 -0.3479  1.9679
    1PA    C112 2266   4.737   2.859   5.881  0.0085  0.4857  0.3570
    1PA    H12R 2267   4.637   2.852   5.924 -1.4354 -0.2686 -2.8590
    1PA    H12S 2268   4.815   2.892   5.951  1.2432 -0.5898 -0.4574
    1PA    C111 2269   4.735   2.959   5.764 -0.1020  0.1420 -0.0488
    1PA    H11R 2270   4.828   2.984   5.712 -0.8234  0.5246 -1.2012
    1PA    H11S 2271   4.674   2.923   5.681  0.8708  0.1965 -0.8119
    1PA    C110 2272   4.694   3.099   5.806 -0.1216  0.1540  0.4584
    1PA    H10R 2273   4.765   3.126   5.885  1.7592 -3.2851  0.1386
    1PA    H10S 2274   4.718   3.162   5.720  1.1652  0.0696  0.7274
    1PA     C19 2275   4.554   3.111   5.849  0.4118 -0.5760  0.9087
    1PA     H9R 2276   4.487   3.097   5.764  0.3247  1.1745  0.6451
    1PA     H9S 2277   4.540   3.044   5.934  2.3163 -0.4606  1.3646
    1PA     C18 2278   4.539   3.260   5.899 -0.0708  0.1714  0.6424
    1PA     H8R 2279   4.615   3.267   5.976  0.3379 -0.5897  0.3155
    1PA     H8S 2280   4.564   3.341   5.829  2.1547 -1.2739 -0.3334
    1PA     C17 2281   4.400   3.291   5.962 -0.0882  0.2840 -0.8564
    1PA     H7R 2282   4.403   3.397   5.989 -0.6449 -0.2012  1.2955
    1PA     H7S 2283   4.313   3.280   5.896 -0.6865  2.4424 -0.5018
    1PA     C16 2284   4.360   3.215   6.089 -0.1567  0.1179  0.1694
    1PA     H6R 2285   4.260   3.248   6.117  0.4679  1.3334  1.0817
    1PA     H6S 2286   4.352   3.108   6.069  1.2278  0.4650 -2.6932
    1PA     C15 2287   4.450   3.250   6.204  0.5296  0.5520 -0.1086
    1PA     H5R 2288   4.537   3.184   6.211 -0.3613 -0.9184 -1.9623
    1PA     H5S 2289   4.487   3.353   6.205  2.0549  0.0240 -0.0359
    1PA     C14 2290   4.366   3.224   6.335  0.1060 -0.5136 -0.0438
    1PA     H4R 2291   4.266   3.268   6.330  0.4306  0.1208 -1.3943
    1PA     H4S 2292   4.348   3.118   6.351 -2.4317 -0.1737 -0.2117
    1PA     C13 2293   4.439   3.284   6.462 -0.4126 -0.1965  0.4405
    1PA     H3R 2294   4.468   3.388   6.444 -0.0334  0.0444  2.1970
    1PA     H3S 2295   4.370   3.268   6.546  0.3465  1.8669  1.5371
    1PA     C12 2296   4.568   3.213   6.513 -0.0102 -0.0857 -0.3097
    1PA     H2R 2297   4.550   3.106   6.527  1.1395 -0.1342  0.9270
    1PA     H2S 2298   4.646   3.217   6.436 -0.0333 -2.0449 -0.4701
    1PC     C11 2299   4.625   3.257   6.645 -0.5940  0.1579  0.6784
    1PC     O12 2300   4.595   3.355   6.707 -0.5799 -0.1383  0.1195
    1PC     O11 2301   4.715   3.166   6.686  0.4276  0.1889 -0.9931
    1PC      C1 2302   4.797   3.193   6.800  0.0428  0.5262 -0.4484
    1PC      HR 2303   4.809   3.300   6.820 -2.1277  0.9741 -1.3228
    1PC      HS 2304   4.748   3.150   6.888 -1.0573  0.7044 -0.9582
    1PC      C2 2305   4.935   3.138   6.762 -0.2213  0.3103 -0.0604
    1PC      HX 2306   4.934   3.035   6.728  1.7286  0.5835 -1.1441
    1PC      C3 2307   5.036   3.144   6.885  0.1244  0.1221 -0.3861
    1PC      HA 2308   5.051   3.044   6.925 -0.9535 -0.1316 -0.5932
    1PC      HB 2309   5.126   3.184   6.839  2.0662 -2.3961  0.9616
    1PC     O31 2310   4.991   3.234   6.995  0.0710 -0.1543  0.3566
    1PC     P31 2311   5.086   3.258   7.120  0.3024 -0.6395  0.1624
    1PC     O32 2312   5.082   3.127   7.208 -0.2763 -0.0005 -0.1512
    1PC     C31 2313   4.955   3.078   7.266  0.0252 -0.7052  0.7409
    1PC     H1A 2314   4.879   3.156   7.258 -1.7286 -2.3923  0.0320
    1PC     H1B 2315   4.917   2.997   7.202 -0.6644  1.4184 -1.6757
    1PC     C32 2316   4.981   3.020   7.404  0.0049  0.2809 -1.1427
    1PC     H2A 2317   5.071   2.960   7.401  0.6772  1.2802 -1.5928
    1PC     H2B 2318   4.994   3.105   7.472 -0.4700  0.3564 -1.1387
    1PC     N31 2319   4.856   2.955   7.466  0.2844 -0.3226 -0.2052
    1PC     C33 2320   4.880   2.918   7.606  0.0949 -0.6957 -0.2764
    1PC     H3A 2321   4.984   2.886   7.614  0.6480  1.2444  1.0808
    1PC     H3B 2322   4.877   3.015   7.656  0.2229  0.3971 -2.3044
    1PC     H3C 2323   4.810   2.845   7.648 -1.2455  0.6891 -0.0012
    1PC     C34 2324   4.743   3.058   7.469 -0.1249  0.0743 -0.2810
    1PC     H4A 2325   4.668   3.011   7.533  1.9277 -1.4888  1.1192
    1PC     H4B 2326   4.790   3.147   7.512  1.0396  0.1044 -1.5323
    1PC     H4C 2327   4.707   3.077   7.368 -1.6791 -0.0559  0.2258
    1PC     C35 2328   4.821   2.821   7.397  0.8598 -0.5016 -0.3918
    1PC     H5A 2329   4.813   2.831   7.288 -0.4232 -0.0085 -0.2678
    1PC     H5B 2330   4.723   2.793   7.437  0.9934  0.6661  0.8170
    1PC     H5C 2331   4.895   2.746   7.421  2.0913 -0.0628 -2.4916
    1PC     O33 2332   5.218   3.278   7.059  0.2201 -0.7834  0.2852
    1PC     O34 2333   5.027   3.369   7.197  0.1442  0.7793  0.3956
    1PC     O21 2334   4.984   3.225   6.660 -0.3356 -0.0055  0.3219
    1PC     C21 2335   5.033   3.168   6.550 -0.9569 -0.1230  0.5956
    1PC     O22 2336   5.039   3.053   6.527 -0.2187 -0.2510  0.4803
    1OL     C12 2337   5.084   3.283   6.457  0.0045  0.0866 -0.2395
    1OL     H2R 2338   5.186   3.268   6.421  0.1452 -0.6303  0.4273
    1OL     H2S 2339   5.080   3.375   6.515 -0.2326 -1.4193  2.2741
    1OL     C13 2340   4.986   3.299   6.345  0.5200 -0.6285  0.0931
    1OL     H3R 2341   5.035   3.384   6.296 -0.2586  0.3527  0.9537
    1OL     H3S 2342   4.901   3.341   6.399  1.2088 -0.0869  0.7827
    1OL     C14 2343   4.945   3.181   6.252 -0.2893  0.1091  0.2793
    1OL     H4R 2344   4.908   3.239   6.167 -0.5594  1.9697  1.6023
    1OL     H4S 2345   4.858   3.120   6.280 -0.6377 -0.2283 -1.3938
    1OL     C15 2346   5.071   3.107   6.197 -0.0499  1.0859 -0.0873
    1OL     H5R 2347   5.130   3.070   6.281  0.2130  1.1833 -0.2275
    1OL     H5S 2348   5.142   3.181   6.162  1.1022 -0.1205 -0.3747
    1OL     C16 2349   5.031   2.992   6.096  0.0686  0.1142 -0.4525
    1OL     H6R 2350   4.956   3.031   6.028  0.3009 -2.0692 -2.0515
    1OL     H6S 2351   4.991   2.906   6.151 -0.5594  1.0379  0.5891
    1OL     C17 2352   5.163   2.942   6.020  0.2002 -0.2803 -0.1038
    1OL     H7R 2353   5.238   2.926   6.098  1.5754  3.3313 -0.5152
    1OL     H7S 2354   5.205   3.027   5.967  2.5101 -0.7418  0.8660
    1OL     C18 2355   5.148   2.824   5.924 -0.2582 -0.5595 -0.2368
    1OL     H8R 2356   5.075   2.846   5.846 -0.3021  0.0200 -0.0318
    1OL     H8S 2357   5.111   2.743   5.988  1.5121 -0.7960  0.5523
    1OL     C19 2358   5.281   2.777   5.864 -0.6097 -0.5281 -0.1115
    1OL     H9R 2359   5.358   2.751   5.937 -2.1542  0.6752  2.0496
    1OL    C110 2360   5.295   2.739   5.735 -0.4236 -1.1830  0.2078
    1OL    H10R 2361   5.393   2.707   5.702  0.2230  1.0271 -0.1330
    1OL    C111 2362   5.200   2.767   5.622 -0.4360  0.1866  0.2883
    1OL    H11R 2363   5.241   2.837   5.549 -1.0353  0.0951 -0.1423
    1OL    H11S 2364   5.111   2.821   5.654 -1.1501  0.9398 -2.6961
    1OL    C112 2365   5.167   2.631   5.554  0.3097 -0.1061 -0.1313
    1OL    H12R 2366   5.121   2.560   5.622  0.4025 -0.4483 -0.4249
    1OL    H12S 2367   5.254   2.578   5.515 -0.2697 -1.5759  0.5190
    1OL    C113 2368   5.074   2.654   5.428 -0.1456  0.0324  0.3157
    1OL    H13R 2369   5.062   2.568   5.362  1.1071 -1.0503  1.4448
    1OL    H13S 2370   5.121   2.727   5.360  3.9280 -1.1368  1.5760
    1OL    C114 2371   4.938   2.702   5.475  0.8249 -0.3580 -0.0654
    1OL    H14R 2372   4.943   2.798   5.527  1.0338 -0.2911 -0.2095
    1OL    H14S 2373   4.903   2.632   5.552  0.9464  0.0054  0.3279
    1OL    C115 2374   4.850   2.707   5.350 -0.4126 -0.1643 -0.4198
    1OL    H15R 2375   4.835   2.608   5.304  1.3148  0.1186 -1.6677
    1OL    H15S 2376   4.883   2.781   5.277  1.4927  0.8519  1.3766
    1OL    C116 2377   4.711   2.754   5.396 -0.1023 -0.0559  1.0035
    1OL    H16R 2378   4.717   2.859   5.426 -1.8577  0.6566 -0.9413
    1OL    H16S 2379   4.676   2.692   5.479 -0.1678  0.9513  1.7486
    1OL    C117 2380   4.605   2.736   5.289  0.7425  0.0920  0.5837
    1OL    H17R 2381   4.505   2.755   5.329 -0.4463  0.3449 -2.2564
    1OL    H17S 2382   4.605   2.636   5.245 -0.1387  0.5762 -0.5700
    1OL    C118 2383   4.617   2.852   5.184 -0.5972 -0.2203 -0.0241
    1OL    H18R 2384   4.632   2.953   5.222 -1.5916  0.3759 -1.1558
    1OL    H18S 2385   4.539   2.862   5.109 -1.0967  1.9333  0.7072
    1OL    H18T 2386   4.706   2.828   5.126  0.3238  0.5208  1.0205
    1PA    C116 2387   2.069   3.385   5.400 -0.3710 -0.1228  0.3655
    1PA    H16R 2388   2.015   3.336   5.318 -1.6064  2.7643 -0.6545
    1PA    H16S 2389   2.114   3.307   5.461 -1.8687 -1.9212 -0.7046
    1PA    H16T 2390   2.146   3.441   5.347 -1.8047 -0.5598 -2.3632
    1PA    C115 2391   1.977   3.481   5.475 -0.3130 -0.0247 -0.3284
    1PA    H15R 2392   2.036   3.555   5.530 -1.1916 -0.9045  1.9032
    1PA    H15S 2393   1.919   3.540   5.404  1.6066  0.9295 -1.2042
    1PA    C114 2394   1.885   3.402   5.563  0.4687  0.1503 -0.0357
    1PA    H14R 2395   1.841   3.317   5.510  0.2249 -0.6190  1.3603
    1PA    H14S 2396   1.937   3.355   5.647  0.0403 -0.4619 -0.1117
    1PA    C113 2397   1.785   3.502   5.630 -0.7654  0.4268  0.8057
    1PA    H13R 2398   1.739   3.441   5.708  0.0065 -0.7004  0.4124
    1PA    H13S 2399   1.847   3.577   5.679 -0.5593 -0.2530  1.6143
    1PA    C112 2400   1.674   3.576   5.554 -0.4882  0.2376  0.2529
    1PA    H12R 2401   1.701   3.643   5.472 -0.6823 -0.2026 -0.1752
    1PA    H12S 2402   1.609   3.503   5.504  0.5818 -0.3801 -0.2588
    1PA    C111 2403   1.596   3.658   5.657  1.2573  0.3231  0.4116
    1PA    H11R 2404   1.568   3.594   5.742 -0.6412 -1.8509 -1.7121
    1PA    H11S 2405   1.657   3.742   5.690 -0.0596  1.0715  1.0242
    1PA    C110 2406   1.461   3.719   5.605 -0.7002  0.1149 -0.2407
    1PA    H10R 2407   1.491   3.784   5.523  0.7020 -1.1787 -0.7945
    1PA    H10S 2408   1.398   3.637   5.569  1.7761 -1.7218 -0.6179
    1PA     C19 2409   1.387   3.793   5.712 -0.6202 -0.0060  0.3858
    1PA     H9R 2410   1.308   3.849   5.662 -1.9674 -2.9952 -1.0788
    1PA     H9S 2411   1.338   3.725   5.782  0.7913 -2.2679 -0.7108
    1PA     C18 2412   1.462   3.911   5.788 -0.4244  0.2791 -0.2372
    1PA     H8R 2413   1.534   3.942   5.712  2.0514 -2.6897  0.6685
    1PA     H8S 2414   1.387   3.987   5.810 -2.5008 -2.3370  2.8684
    1PA     C17 2415   1.510   3.854   5.924 -0.2348 -0.3229 -0.5003
    1PA     H7R 2416   1.421   3.826   5.981 -0.2455  1.8854  0.7050
    1PA     H7S 2417   1.561   3.758   5.922  2.2902  0.9119 -0.1163
    1PA     C16 2418   1.593   3.958   5.994 -0.7713 -0.2369 -0.5115
    1PA     H6R 2419   1.676   3.981   5.926 -0.8443 -0.6626 -0.7439
    1PA     H6S 2420   1.528   4.044   6.010  0.1652  0.2712  0.7857
    1PA     C15 2421   1.646   3.912   6.129 -0.6445 -0.1444 -0.6925
    1PA     H5R 2422   1.689   3.812   6.124 -1.4769 -0.6097  0.8479
    1PA     H5S 2423   1.729   3.978   6.155  2.4508 -2.6562 -3.2923
    1PA     C14 2424   1.530   3.919   6.230 -0.4420 -0.0362 -0.3336
    1PA     H4R 2425   1.480   4.016   6.234 -0.2267  0.0474  1.7627
    1PA     H4S 2426   1.459   3.844   6.196  0.3969 -0.2053 -1.7683
    1PA     C13 2427   1.593   3.880   6.366 -0.0439 -0.3348 -0.8220
    1PA     H3R 2428   1.672   3.805   6.356 -0.5283 -1.0432  0.5003
    1PA     H3S 2429   1.638   3.966   6.417  0.9146 -2.2301  1.7574
    1PA     C12 2430   1.474   3.830   6.449  0.0345 -0.2349 -0.2190
    1PA     H2R 2431   1.398   3.909   6.458 -0.4680 -0.3766 -2.5962
    1PA     H2S 2432   1.421   3.750   6.397  0.7764 -1.2637  0.5812
    1PC     C11 2433   1.512   3.774   6.583 -0.3615  0.0867 -0.7083
    1PC     O12 2434   1.630   3.733   6.603  0.3255 -0.4737  0.2219
    1PC     O11 2435   1.420   3.799   6.677  0.6869  0.6238 -0.1796
    1PC      C1 2436   1.441   3.744   6.811 -0.3817 -0.8520 -0.0644
    1PC      HR 2437   1.543   3.743   6.849 -0.8291 -1.2531  1.1598
    1PC      HS 2438   1.385   3.821   6.864  0.8930  1.4399 -1.8489
    1PC      C2 2439   1.386   3.604   6.825 -0.5386 -0.1509  0.0594
    1PC      HX 2440   1.286   3.597   6.783 -0.7449  0.5273  0.4178
    1PC      C3 2441   1.386   3.552   6.979 -0.6692  0.2222  0.0027
    1PC      HA 2442   1.292   3.575   7.029 -0.7876  0.0669 -0.1448
    1PC      HB 2443   1.396   3.443   6.966  0.8410  0.3340  0.0005
    1PC     O31 2444   1.497   3.609   7.059  0.6874  0.2686  0.4346
    1PC     P31 2445   1.505   3.578   7.216 -0.3160 -0.1906  0.4790
    1PC     O32 2446   1.561   3.431   7.216 -0.0948  0.7507  0.0006
    1PC     C31 2447   1.704   3.414   7.202  0.1817  0.1937  0.1560
    1PC     H1A 2448   1.766   3.490   7.251 -0.2506  1.2236 -0.8573
    1PC     H1B 2449   1.732   3.313   7.234 -0.0549 -0.6685 -2.1755
    1PC     C32 2450   1.726   3.412   7.045  0.4428 -0.0031 -0.0999
    1PC     H2A 2451   1.660   3.335   7.004 -1.4307  0.9039  1.1184
    1PC     H2B 2452   1.696   3.500   6.990  2.1626 -0.7988 -2.4980
    1PC     N31 2453   1.861   3.378   6.989 -0.3944 -0.4625  0.1643
    1PC     C33 2454   1.905   3.244   7.044  0.4123 -0.4342 -0.0952
    1PC     H3A 2455   2.004   3.228   7.003 -0.5650 -0.6452 -2.5258
    1PC     H3B 2456   1.913   3.253   7.153 -2.2205 -2.9401  0.4362
    1PC     H3C 2457   1.834   3.168   7.012  0.4413 -0.4846 -0.0415
    1PC     C34 2458   1.848   3.362   6.840 -0.2663 -0.1161  0.8759
    1PC     H4A 2459   1.764   3.292   6.832 -1.9037  1.1786  4.5051
    1PC     H4B 2460   1.834   3.458   6.791  2.0071 -0.4353 -0.5645
    1PC     H4C 2461   1.943   3.320   6.807 -0.7914  0.3391 -1.3243
    1PC     C35 2462   1.968   3.484   7.012 -0.0873  0.8525 -0.2184
    1PC     H5A 2463   2.062   3.462   6.962  0.4150 -1.2860  1.5297
    1PC     H5B 2464   1.994   3.481   7.118  1.9449 -0.1419 -0.7029
    1PC     H5C 2465   1.927   3.583   6.992  0.2598  1.2668  1.0054
    1PC     O33 2466   1.600   3.675   7.275  0.6435  0.3047  0.5952
    1PC     O34 2467   1.364   3.587   7.265  0.0627  0.5728 -0.1124
    1PC     O21 2468   1.477   3.516   6.754  0.4399  0.1957  0.4594
    1PC     C21 2469   1.439   3.466   6.633 -0.3737 -0.2333 -0.5613
    1PC     O22 2470   1.335   3.489   6.575  0.3771  0.0273 -0.2896
    1OL     C12 2471   1.548   3.374   6.587 -0.0307 -0.0861  0.4024
    1OL     H2R 2472   1.574   3.303   6.665  0.0191 -1.3265 -0.7182
    1OL     H2S 2473   1.641   3.429   6.570  0.3294  0.3669  3.3631
    1OL     C13 2474   1.511   3.294   6.463 -0.1563  0.0570 -0.1505
    1OL     H3R 2475   1.598   3.239   6.425 -0.4145  0.5566 -1.5147
    1OL     H3S 2476   1.493   3.360   6.378 -1.8342  0.9516  0.8584
    1OL     C14 2477   1.399   3.186   6.487  0.1916 -0.3002 -0.6279
    1OL     H4R 2478   1.303   3.230   6.458  0.5515 -0.1862 -1.6840
    1OL     H4S 2479   1.398   3.163   6.594  2.1785 -1.2949 -0.7792
    1OL     C15 2480   1.414   3.060   6.399 -0.1507  0.1531  0.0170
    1OL     H5R 2481   1.339   2.987   6.431 -2.2687  1.0551 -2.5406
    1OL     H5S 2482   1.509   3.007   6.407 -0.4692 -0.5317 -0.6148
    1OL     C16 2483   1.386   3.099   6.246  0.4420  0.1518 -0.0429
    1OL     H6R 2484   1.473   3.136   6.191  0.0907  0.9871 -0.0469
    1OL     H6S 2485   1.308   3.175   6.255 -0.6017 -1.1510  4.0758
    1OL     C17 2486   1.334   2.985   6.168  0.1360  0.1430  0.4701
    1OL     H7R 2487   1.229   2.995   6.141  0.6766 -1.4957 -2.7855
    1OL     H7S 2488   1.348   2.894   6.228 -1.4445  0.7346  1.7832
    1OL     C18 2489   1.405   2.964   6.029 -0.1044  0.0190  0.1522
    1OL     H8R 2490   1.513   2.962   6.047  0.1238  2.9093 -0.3373
    1OL     H8S 2491   1.385   3.062   5.984 -1.0792  0.6860  1.9308
    1OL     C19 2492   1.357   2.842   5.965 -0.0914 -0.2159  0.2531
    1OL     H9R 2493   1.322   2.763   6.031 -0.6472  0.4595  0.7787
    1OL    C110 2494   1.350   2.817   5.838 -0.7161 -0.3954  0.2107
    1OL    H10R 2495   1.319   2.722   5.797 -0.0517 -0.0670 -1.1163
    1OL    C111 2496   1.418   2.906   5.727 -0.2326  0.3743  0.0538
    1OL    H11R 2497   1.415   3.011   5.755  0.2728  0.0998  1.2089
    1OL    H11S 2498   1.361   2.892   5.635  0.7208 -1.6209 -0.2870
    1OL    C112 2499   1.564   2.856   5.708  0.0355  0.2329 -0.0681
    1OL    H12R 2500   1.561   2.755   5.666 -2.8844 -0.0356  0.5353
    1OL    H12S 2501   1.607   2.844   5.807  1.3142  1.7849 -0.4143
    1OL    C113 2502   1.651   2.939   5.622 -0.2562  0.6250  0.1214
    1OL    H13R 2503   1.640   3.039   5.664  0.8150  0.6295  0.4455
    1OL    H13S 2504   1.610   2.944   5.521 -1.0849  0.3283  0.4401
    1OL    C114 2505   1.798   2.896   5.621  0.5791  0.9046 -0.2583
    1OL    H14R 2506   1.820   2.799   5.577 -0.2351  0.5632  0.0834
    1OL    H14S 2507   1.835   2.891   5.724  1.6005 -0.4102 -0.6559
    1OL    C115 2508   1.885   2.986   5.527  0.6318  0.4579  0.0229
    1OL    H15R 2509   1.987   2.965   5.559  0.5004 -1.1448 -0.5162
    1OL    H15S 2510   1.868   3.093   5.542 -0.8318  0.6476 -2.4637
    1OL    C116 2511   1.872   2.955   5.383 -0.0909  0.0462  0.5165
    1OL    H16R 2512   1.769   2.966   5.347  0.4629 -1.6862 -1.8433
    1OL    H16S 2513   1.902   2.852   5.362  2.5522  0.5677  1.4124
    1OL    C117 2514   1.969   3.044   5.301 -0.5681 -0.9783  0.2796
    1OL    H17R 2515   1.950   3.148   5.330 -2.2928 -1.5571  1.3964
    1OL    H17S 2516   1.941   3.050   5.196  1.8172  1.1390 -0.3354
    1OL    C118 2517   2.112   3.013   5.326  0.0758 -0.2477 -0.1067
    1OL    H18R 2518   2.169   3.074   5.255  0.6664 -0.9627 -0.2511
    1OL    H18S 2519   2.133   2.906   5.323 -1.0069 -0.4666 -0.1247
    1OL    H18T 2520   2.134   3.047   5.427 -0.9842  2.7140 -0.7524
    1PA    C116 2521   1.572   1.352   5.303 -0.4094  0.0403 -0.0345
    1PA    H16R 2522   1.566   1.332   5.196  0.9485 -0.3008 -0.0612
    1PA    H16S 2523   1.472   1.337   5.343  0.2659  1.5724  2.4679
    1PA    H16T 2524   1.647   1.284   5.343  0.1635  0.4224 -0.4289
    1PA    C115 2525   1.606   1.500   5.330 -1.3206  0.4813 -0.8924
    1PA    H15R 2526   1.711   1.526   5.315 -1.1368 -0.0642 -0.5852
    1PA    H15S 2527   1.544   1.558   5.262 -1.3289  2.4835  0.7220
    1PA    C114 2528   1.568   1.536   5.478 -0.7355 -0.2140 -0.0636
    1PA    H14R 2529   1.462   1.513   5.491 -0.2959 -1.6936  1.1457
    1PA    H14S 2530   1.627   1.469   5.541 -0.5914  0.3537  0.4115
    1PA    C113 2531   1.607   1.686   5.498  0.4843 -0.0085  1.0317
    1PA    H13R 2532   1.715   1.694   5.499  0.4012  1.3768  2.5160
    1PA    H13S 2533   1.580   1.755   5.417  1.9661  1.7741  2.0002
    1PA    C112 2534   1.554   1.739   5.628 -0.1295 -0.0190 -0.3463
    1PA    H12R 2535   1.569   1.847   5.619  1.1620 -0.2072 -0.6610
    1PA    H12S 2536   1.447   1.720   5.640 -0.5660  2.5631  0.4036
    1PA    C111 2537   1.630   1.684   5.746 -0.5657  0.2252  0.2001
    1PA    H11R 2538   1.603   1.578   5.742  2.1970 -0.6051  1.1246
    1PA    H11S 2539   1.739   1.682   5.742 -0.5387 -1.4528  0.7515
    1PA    C110 2540   1.588   1.752   5.876  0.4243 -0.0308  0.9107
    1PA    H10R 2541   1.605   1.859   5.859 -0.3045  0.2207  1.6963
    1PA    H10S 2542   1.480   1.738   5.886 -0.1242  2.5136 -0.6330
    1PA     C19 2543   1.650   1.711   6.010 -0.0269  0.5535  0.6630
    1PA     H9R 2544   1.641   1.604   6.026  1.0340  0.0467 -1.6063
    1PA     H9S 2545   1.756   1.737   6.016  0.2331 -0.0325 -0.9488
    1PA     C18 2546   1.581   1.797   6.115  0.2012 -0.3470 -0.1994
    1PA     H8R 2547   1.561   1.898   6.079 -2.0880 -0.5213  0.4385
    1PA     H8S 2548   1.483   1.752   6.134  0.8950 -2.1762 -0.6641
    1PA     C17 2549   1.661   1.789   6.239 -0.5777  0.2782  0.7013
    1PA     H7R 2550   1.664   1.686   6.275  3.3386  0.5345  1.5518
    1PA     H7S 2551   1.763   1.810   6.208 -0.4467  0.8805  1.5055
    1PA     C16 2552   1.616   1.900   6.336  0.1720 -0.2821  0.2008
    1PA     H6R 2553   1.680   1.896   6.424 -0.6516 -1.5362  0.7617
    1PA     H6S 2554   1.628   1.997   6.286  0.3936 -0.3112  0.1968
    1PA     C15 2555   1.468   1.892   6.386 -0.2622 -0.2044 -0.0770
    1PA     H5R 2556   1.450   1.982   6.445 -2.2062  0.3040 -1.3517
    1PA     H5S 2557   1.403   1.895   6.298 -1.1360  0.9868  0.5790
    1PA     C14 2558   1.435   1.760   6.463 -0.3697 -0.7149 -0.4239
    1PA     H4R 2559   1.464   1.675   6.401 -1.3283 -0.5365 -1.1448
    1PA     H4S 2560   1.484   1.749   6.560 -0.1592 -0.2880 -0.4820
    1PA     C13 2561   1.280   1.745   6.478  0.1888  0.0251  0.1052
    1PA     H3R 2562   1.231   1.832   6.522  0.5907  0.0568  0.4946
    1PA     H3S 2563   1.231   1.722   6.383 -0.7057  1.6117  0.1609
    1PA     C12 2564   1.244   1.622   6.566  0.0363 -0.0884 -0.1952
    1PA     H2R 2565   1.137   1.606   6.563 -0.1016  0.8033 -0.3011
    1PA     H2S 2566   1.294   1.530   6.534  1.5176  0.4407  0.4887
    1PC     C11 2567   1.300   1.636   6.708  0.1294 -0.4282 -0.2335
    1PC     O12 2568   1.320   1.744   6.763  0.8102 -0.0540 -0.5555
    1PC     O11 2569   1.322   1.515   6.768  0.1894  0.1148 -0.3132
    1PC      C1 2570   1.383   1.513   6.901  0.2740  0.1960  0.0993
    1PC      HR 2571   1.330   1.578   6.971  1.4058  0.6281  0.5803
    1PC      HS 2572   1.374   1.411   6.941 -1.4894  0.5340  0.6613
    1PC      C2 2573   1.538   1.539   6.892  0.0249  0.5441 -0.8695
    1PC      HX 2574   1.574   1.467   6.817 -0.2153  0.0417 -0.5069
    1PC      C3 2575   1.605   1.509   7.028 -0.3608 -0.0716 -0.8541
    1PC      HA 2576   1.594   1.403   7.053  1.1911  0.3662  2.3128
    1PC      HB 2577   1.709   1.545   7.029 -0.3599 -0.0745 -0.8543
    1PC     O31 2578   1.532   1.578   7.130  0.7120  0.4109  0.2835
    1PC     P31 2579   1.592   1.705   7.202  0.1980  0.4670 -0.1728
    1PC     O32 2580   1.570   1.821   7.099 -0.1941 -0.1506  0.2319
    1PC     C31 2581   1.443   1.856   7.054  0.1832  0.2347  0.4392
    1PC     H1A 2582   1.462   1.913   6.962 -0.3802 -1.9224 -1.0795
    1PC     H1B 2583   1.376   1.772   7.034 -0.5813  1.1678 -1.1112
    1PC     C32 2584   1.389   1.959   7.151 -0.3311 -0.1952 -0.1374
    1PC     H2A 2585   1.395   1.908   7.247 -1.3662 -0.2196 -0.0753
    1PC     H2B 2586   1.452   2.048   7.157  0.2834 -0.6959  1.6215
    1PC     N31 2587   1.240   2.004   7.140  0.1334 -0.4341  0.5335
    1PC     C33 2588   1.210   2.073   7.012  0.0528 -0.4203  0.2148
    1PC     H3A 2589   1.102   2.086   7.007  0.1115 -0.4451 -2.1657
    1PC     H3B 2590   1.257   2.171   7.006 -1.9181  0.7108  1.9299
    1PC     H3C 2591   1.242   2.021   6.922 -2.3470 -0.9876 -0.3719
    1PC     C34 2592   1.157   1.882   7.150  1.0377  0.6539 -0.6739
    1PC     H4A 2593   1.053   1.912   7.151  1.2427  1.4105  0.8160
    1PC     H4B 2594   1.174   1.809   7.071 -0.5597 -0.9472  0.3925
    1PC     H4C 2595   1.181   1.841   7.249  1.5694  2.4056 -0.0434
    1PC     C35 2596   1.209   2.086   7.262 -0.7455  0.4919  0.0638
    1PC     H5A 2597   1.239   2.046   7.359  1.6494 -0.2702 -0.9337
    1PC     H5B 2598   1.100   2.094   7.272 -0.9007 -2.2324  1.7891
    1PC     H5C 2599   1.255   2.183   7.242 -1.2340  0.2655 -2.5981
    1PC     O33 2600   1.519   1.732   7.321  0.6009  0.6011 -0.3344
    1PC     O34 2601   1.734   1.682   7.214 -0.5283 -0.3977 -0.2803
    1PC     O21 2602   1.573   1.669   6.860  0.3955 -0.0373 -0.5441
    1PC     C21 2603   1.698   1.690   6.813  0.6195  0.6513 -0.2492
    1PC     O22 2604   1.780   1.604   6.788  0.0929  0.3595 -0.5470
    1OL     C12 2605   1.730   1.838   6.804  1.1118  0.6037  0.8334
    1OL     H2R 2606   1.729   1.885   6.903  2.0764  2.5788 -0.0372
    1OL     H2S 2607   1.639   1.875   6.757  0.1197 -0.3493  1.9343
    1OL     C13 2608   1.843   1.869   6.707 -1.1097 -0.4123 -0.3334
    1OL     H3R 2609   1.818   1.840   6.605  1.1310  1.5270 -1.5280
    1OL     H3S 2610   1.936   1.824   6.744  0.1402 -0.5397 -3.3555
    1OL     C14 2611   1.879   2.027   6.688 -0.7099 -0.0139  0.6232
    1OL     H4R 2612   1.967   2.037   6.624 -1.7423  1.3931 -0.6504
    1OL     H4S 2613   1.912   2.051   6.789  3.9191 -3.2148  0.1948
    1OL     C15 2614   1.776   2.130   6.645 -0.3400  1.3617 -0.0917
    1OL     H5R 2615   1.687   2.113   6.706  0.5687 -0.8051  0.7362
    1OL     H5S 2616   1.752   2.100   6.543 -2.2742 -0.7637  0.8840
    1OL     C16 2617   1.807   2.280   6.661 -0.1639 -0.0395  0.1981
    1OL     H6R 2618   1.902   2.300   6.612  1.3276 -1.3419  2.4064
    1OL     H6S 2619   1.824   2.309   6.765 -2.0946  2.7056 -0.1227
    1OL     C17 2620   1.706   2.382   6.616  0.2285  0.1928 -0.3175
    1OL     H7R 2621   1.706   2.396   6.507  0.7506  0.6854 -0.2593
    1OL     H7S 2622   1.741   2.481   6.643 -0.2287  0.9261 -2.2504
    1OL     C18 2623   1.564   2.357   6.667  0.2903 -0.2029  0.2934
    1OL     H8R 2624   1.564   2.368   6.776  1.5411  2.8092  0.0721
    1OL     H8S 2625   1.516   2.263   6.640  0.7105 -0.8084  1.5397
    1OL     C19 2626   1.472   2.475   6.615  0.1557 -0.3284  0.0515
    1OL     H9R 2627   1.462   2.559   6.683  2.3459 -1.8336  2.4260
    1OL    C110 2628   1.415   2.472   6.492 -0.8436  0.0712  0.1815
    1OL    H10R 2629   1.363   2.557   6.449  0.3152 -0.1498 -1.7655
    1OL    C111 2630   1.425   2.362   6.395  0.8769  0.0370  0.5033
    1OL    H11R 2631   1.442   2.267   6.446 -0.9961 -0.5718  0.0897
    1OL    H11S 2632   1.511   2.380   6.330  1.3478 -0.6730  0.9190
    1OL    C112 2633   1.298   2.353   6.307 -0.2169  0.1745  0.2329
    1OL    H12R 2634   1.307   2.439   6.240  0.3393  0.5088  0.7264
    1OL    H12S 2635   1.211   2.370   6.370 -2.8164 -1.2902 -2.6503
    1OL    C113 2636   1.287   2.217   6.239  0.3799  0.0857 -0.4207
    1OL    H13R 2637   1.186   2.193   6.206 -0.0155 -1.0543  1.4642
    1OL    H13S 2638   1.309   2.139   6.312 -0.4504  0.4844  0.2679
    1OL    C114 2639   1.381   2.208   6.119  0.4847 -0.4090  0.2582
    1OL    H14R 2640   1.384   2.102   6.094 -0.5799 -0.4244  0.1376
    1OL    H14S 2641   1.486   2.231   6.139  0.9152 -2.2756  0.3005
    1OL    C115 2642   1.324   2.286   6.005  0.2376  0.3239 -0.8376
    1OL    H15R 2643   1.297   2.387   6.035  1.4090  0.6831 -0.9667
    1OL    H15S 2644   1.228   2.246   5.971 -0.8242  0.1027  2.1471
    1OL    C116 2645   1.407   2.302   5.873  0.2804  0.2774 -0.5779
    1OL    H16R 2646   1.508   2.321   5.910  0.0643  0.0614  0.1352
    1OL    H16S 2647   1.373   2.389   5.817  0.9330  1.7170  1.1622
    1OL    C117 2648   1.415   2.166   5.810  0.1073  0.6806  0.0163
    1OL    H17R 2649   1.314   2.131   5.788 -0.4742  2.2283  0.0887
    1OL    H17S 2650   1.458   2.090   5.876 -0.3153 -0.8676 -1.3899
    1OL    C118 2651   1.506   2.183   5.684  0.7479 -0.2686 -0.2169
    1OL    H18R 2652   1.528   2.080   5.654 -0.5672 -0.0460 -2.0732
    1OL    H18S 2653   1.596   2.244   5.691  1.5101 -1.2792 -0.8744
    1OL    H18T 2654   1.441   2.236   5.614  1.3667  0.4161 -0.2834
    1PA    C116 2655   2.629   0.944   5.672 -0.3978 -0.8249  0.4781
    1PA    H16R 2656   2.563   0.879   5.730  0.4750 -1.1060  1.1883
    1PA    H16S 2657   2.706   0.874   5.639  1.0317  2.0232 -2.8349
    1PA    H16T 2658   2.577   0.982   5.584 -0.2231 -0.8965  0.3428
    1PA    C115 2659   2.706   1.047   5.751  1.0638  0.2091 -0.4204
    1PA    H15R 2660   2.776   0.992   5.814  2.4470 -0.8519 -2.7963
    1PA    H15S 2661   2.764   1.100   5.675 -1.4859  0.9142 -1.9821
    1PA    C114 2662   2.612   1.135   5.828  0.7912  0.2869  0.0233
    1PA    H14R 2663   2.665   1.227   5.855  1.1971 -0.0502  0.3983
    1PA    H14S 2664   2.530   1.151   5.758  1.2331 -1.7303 -1.0345
    1PA    C113 2665   2.563   1.061   5.952  0.0496  0.6652 -0.2590
    1PA    H13R 2666   2.516   0.966   5.928  0.3192 -0.1044  2.0516
    1PA    H13S 2667   2.651   1.035   6.011 -0.2278  2.2727  0.9319
    1PA    C112 2668   2.478   1.154   6.037 -0.1294 -0.5330 -0.4941
    1PA    H12R 2669   2.521   1.254   6.041 -0.9399 -0.1513 -1.0521
    1PA    H12S 2670   2.381   1.172   5.990 -0.6501  3.9791  1.8039
    1PA    C111 2671   2.448   1.107   6.193 -0.4072  0.2443 -0.1344
    1PA    H11R 2672   2.403   1.008   6.204  1.8770 -0.9763 -1.0562
    1PA    H11S 2673   2.537   1.110   6.256 -0.5287 -2.1089  0.2282
    1PA    C110 2674   2.349   1.213   6.252  0.0528  0.6217 -0.0951
    1PA    H10R 2675   2.347   1.200   6.361 -1.2266 -0.0219 -0.1649
    1PA    H10S 2676   2.378   1.316   6.233 -1.6004  0.6318 -3.1457
    1PA     C19 2677   2.203   1.184   6.193  1.1896 -0.5692  0.0497
    1PA     H9R 2678   2.204   1.190   6.084  0.3411 -3.2067 -0.1702
    1PA     H9S 2679   2.166   1.085   6.219  0.0485 -0.6820 -1.7783
    1PA     C18 2680   2.096   1.294   6.245  0.6696 -0.6647 -0.1853
    1PA     H8R 2681   2.070   1.266   6.348 -1.7385  0.9495 -0.2766
    1PA     H8S 2682   2.153   1.383   6.271 -0.1929  0.0775 -0.7905
    1PA     C17 2683   1.959   1.324   6.175  0.2498 -0.2407  0.2237
    1PA     H7R 2684   1.975   1.381   6.083 -0.5929 -0.7818 -0.2698
    1PA     H7S 2685   1.920   1.223   6.161  0.9531 -0.4207 -0.5066
    1PA     C16 2686   1.863   1.412   6.257 -0.1074 -0.5755  0.0995
    1PA     H6R 2687   1.925   1.480   6.315  2.6661 -2.6531 -0.2451
    1PA     H6S 2688   1.803   1.469   6.186  0.5210 -0.5145 -0.3937
    1PA     C15 2689   1.780   1.327   6.352  0.1764 -0.1207 -1.6269
    1PA     H5R 2690   1.728   1.245   6.303 -2.0805  0.1078  0.1923
    1PA     H5S 2691   1.846   1.284   6.428  1.6819  0.4377 -2.5795
    1PA     C14 2692   1.675   1.417   6.426 -1.0196 -0.0703  0.2199
    1PA     H4R 2693   1.728   1.498   6.476 -2.0844 -0.2791  1.7508
    1PA     H4S 2694   1.614   1.461   6.346 -2.7007 -0.5900  1.1602
    1PA     C13 2695   1.584   1.339   6.521  0.1151 -0.6960  0.5542
    1PA     H3R 2696   1.516   1.410   6.567 -0.2373 -0.6494 -0.0245
    1PA     H3S 2697   1.528   1.277   6.451  0.2751 -1.4245  1.0616
    1PA     C12 2698   1.640   1.232   6.619 -0.5471  0.9221  0.2292
    1PA     H2R 2699   1.717   1.179   6.563 -0.7623  0.4780  0.3485
    1PA     H2S 2700   1.686   1.274   6.709 -1.0305 -0.8751  1.3804
    1PC     C11 2701   1.546   1.131   6.676 -0.7438 -0.6000  0.5961
    1PC     O12 2702   1.518   1.028   6.613 -0.5679 -0.2310 -0.0039
    1PC     O11 2703   1.502   1.166   6.797 -0.2457 -0.2980 -1.0439
    1PC      C1 2704   1.456   1.063   6.880 -0.0503  0.2419 -0.0304
    1PC      HR 2705   1.370   1.096   6.937  0.7696  1.5354  0.5064
    1PC      HS 2706   1.421   0.973   6.828 -0.7756  1.9093 -2.6544
    1PC      C2 2707   1.565   1.019   6.984 -0.1874 -0.5253 -0.3290
    1PC      HX 2708   1.517   0.938   7.040  0.4665  0.5328  1.8496
    1PC      C3 2709   1.588   1.139   7.079 -0.7999  0.6506 -0.6698
    1PC      HA 2710   1.696   1.158   7.080 -1.0046  1.9336  0.1582
    1PC      HB 2711   1.527   1.227   7.056  1.0363  1.5154 -2.6468
    1PC     O31 2712   1.566   1.081   7.213 -0.0727 -0.0515  0.1775
    1PC     P31 2713   1.429   1.079   7.279 -0.1243  0.1749  0.0585
    1PC     O32 2714   1.399   1.233   7.309  0.0420 -0.0324 -0.5030
    1PC     C31 2715   1.446   1.302   7.422  0.2378  0.0866 -0.2128
    1PC     H1A 2716   1.385   1.392   7.430 -1.3511 -1.0562  1.7192
    1PC     H1B 2717   1.419   1.238   7.507 -3.1734 -1.0359 -1.9335
    1PC     C32 2718   1.597   1.344   7.415 -0.6222  0.1108  0.2148
    1PC     H2A 2719   1.653   1.255   7.386 -1.1942 -0.4573  0.8126
    1PC     H2B 2720   1.613   1.427   7.345  0.1175  1.2385  1.6796
    1PC     N31 2721   1.658   1.399   7.542  0.1006  0.3774 -0.0229
    1PC     C33 2722   1.574   1.517   7.578 -0.0980  0.4318 -0.6070
    1PC     H3A 2723   1.484   1.485   7.631 -0.4693 -0.0728 -1.5122
    1PC     H3B 2724   1.635   1.574   7.648  0.7524 -0.1876 -0.8351
    1PC     H3C 2725   1.553   1.571   7.486 -1.9249 -0.7183 -0.9201
    1PC     C34 2726   1.658   1.299   7.652 -0.3419 -0.4538  0.5178
    1PC     H4A 2727   1.681   1.348   7.747 -0.7000 -1.0083  0.8956
    1PC     H4B 2728   1.560   1.251   7.661 -0.3666 -1.3739 -3.1776
    1PC     H4C 2729   1.731   1.223   7.625 -1.2439 -0.2599 -2.9115
    1PC     C35 2730   1.795   1.446   7.509 -0.2421 -0.0194  0.7584
    1PC     H5A 2731   1.856   1.363   7.472 -0.0930 -0.2164  1.4282
    1PC     H5B 2732   1.845   1.496   7.593 -2.1861 -2.2215  3.3995
    1PC     H5C 2733   1.780   1.518   7.428 -2.6335  0.2091  1.3339
    1PC     O33 2734   1.317   1.030   7.187 -0.1394 -0.4471 -0.1710
    1PC     O34 2735   1.455   1.004   7.409 -0.3485 -0.1187 -0.1465
    1PC     O21 2736   1.694   0.982   6.914 -0.2631  0.2708 -0.0012
    1PC     C21 2737   1.707   0.852   6.864 -0.4688 -0.1498  0.2203
    1PC     O22 2738   1.620   0.770   6.885 -0.2630 -0.0627 -0.2050
    1OL     C12 2739   1.826   0.819   6.779 -0.5978 -0.1396 -0.2183
    1OL     H2R 2740   1.908   0.795   6.847  0.6309 -0.3828 -1.7294
    1OL     H2S 2741   1.865   0.909   6.730 -0.0134 -0.2877 -0.0339
    1OL     C13 2742   1.802   0.715   6.676 -0.6176  0.7332  0.1362
    1OL     H3R 2743   1.760   0.631   6.731 -2.0313  0.9717 -0.5447
    1OL     H3S 2744   1.900   0.676   6.650 -1.1395  1.0192 -2.5332
    1OL     C14 2745   1.723   0.753   6.550 -0.6578  0.0571  0.4305
    1OL     H4R 2746   1.622   0.785   6.577 -1.3033 -1.2871 -0.2559
    1OL     H4S 2747   1.711   0.661   6.492  0.2357 -0.5866  1.2532
    1OL     C15 2748   1.793   0.862   6.467 -0.0859 -0.3174 -0.3498
    1OL     H5R 2749   1.899   0.839   6.452  0.3575  0.5644  1.1458
    1OL     H5S 2750   1.791   0.952   6.530 -3.4718 -1.8315  2.0055
    1OL     C16 2751   1.736   0.913   6.332 -0.7989 -0.6225  0.4042
    1OL     H6R 2752   1.796   0.997   6.297 -0.9117 -0.7511 -0.0989
    1OL     H6S 2753   1.632   0.946   6.340 -0.1732  2.4582 -2.0294
    1OL     C17 2754   1.742   0.808   6.216  0.6657 -0.1790  0.0182
    1OL     H7R 2755   1.664   0.834   6.144  0.8191  2.6642  0.7444
    1OL     H7S 2756   1.709   0.711   6.254  1.3249  0.2283  1.6831
    1OL     C18 2757   1.882   0.784   6.158 -0.7945  0.3173  0.6394
    1OL     H8R 2758   1.885   0.728   6.065  1.7860  0.2172  0.7089
    1OL     H8S 2759   1.936   0.731   6.236 -0.4361 -0.1960  0.0536
    1OL     C19 2760   1.961   0.906   6.119 -0.0987  0.5215  0.4424
    1OL     H9R 2761   2.027   0.947   6.194  0.2197 -1.3157  1.2200
    1OL    C110 2762   1.966   0.965   5.997  0.2209  0.2490  0.2246
    1OL    H10R 2763   2.036   1.047   5.984  1.4887 -0.6343  1.2475
    1OL    C111 2764   1.920   0.910   5.859 -0.3434  0.4280  0.1532
    1OL    H11R 2765   1.889   0.805   5.864  0.3685  0.1041 -1.3816
    1OL    H11S 2766   2.004   0.915   5.790 -0.0807 -0.3086  0.4037
    1OL    C112 2767   1.796   0.988   5.801  0.0124  0.3464 -0.0043
    1OL    H12R 2768   1.710   0.975   5.867 -1.4991  0.4292 -1.8560
    1OL    H12S 2769   1.781   0.949   5.700  0.0562 -0.9402  0.4633
    1OL    C113 2770   1.826   1.143   5.797  0.6744 -0.1555  0.0498
    1OL    H13R 2771   1.919   1.154   5.742  0.4463  0.2696 -0.2562
    1OL    H13S 2772   1.835   1.184   5.898 -0.2845 -0.4411  0.2639
    1OL    C114 2773   1.707   1.205   5.723 -0.4993  0.6519 -0.1818
    1OL    H14R 2774   1.637   1.126   5.695 -0.0153 -1.0578  2.9521
    1OL    H14S 2775   1.749   1.251   5.633  0.7389  1.6142  0.8508
    1OL    C115 2776   1.628   1.305   5.806  0.1014  0.1901 -0.3477
    1OL    H15R 2777   1.542   1.340   5.749 -1.3725 -3.2141 -0.4459
    1OL    H15S 2778   1.686   1.395   5.827 -1.7883  1.7221 -1.3061
    1OL    C116 2779   1.581   1.264   5.950 -0.3944  0.4395  1.1309
    1OL    H16R 2780   1.541   1.356   5.994 -1.8798 -0.3910  1.5622
    1OL    H16S 2781   1.674   1.252   6.006 -1.6298  1.4966  3.5687
    1OL    C117 2782   1.486   1.144   5.954 -0.0419  0.3842 -0.0954
    1OL    H17R 2783   1.503   1.072   5.873  2.0556  0.1145  0.5407
    1OL    H17S 2784   1.381   1.175   5.945  0.0502  0.9164  0.6035
    1OL    C118 2785   1.503   1.069   6.085 -0.1412  0.2361  0.0898
    1OL    H18R 2786   1.477   1.133   6.170  0.3261  1.6585 -0.8189
    1OL    H18S 2787   1.609   1.048   6.101  0.0525  0.3120 -1.0497
    1OL    H18T 2788   1.443   0.977   6.081  1.2332 -0.6779 -0.1318
    1PA    C116 2789   3.363   4.234   5.705  0.4048  0.2908 -0.4267
    1PA    H16R 2790   3.260   4.233   5.667  0.0346  0.9494  0.5063
    1PA    H16S 2791   3.415   4.139   5.699 -1.0877 -0.4852 -2.1278
    1PA    H16T 2792   3.414   4.307   5.642 -0.0775  0.3184 -0.7890
    1PA    C115 2793   3.351   4.289   5.854 -0.3391 -0.6096 -0.3543
    1PA    H15R 2794   3.447   4.291   5.906 -1.1365  0.3723  1.1452
    1PA    H15S 2795   3.326   4.394   5.841 -1.2146 -0.8892 -1.0015
    1PA    C114 2796   3.235   4.220   5.932  0.1171  0.2616 -0.5636
    1PA    H14R 2797   3.144   4.246   5.878  0.1909  0.5197 -0.5645
    1PA    H14S 2798   3.250   4.112   5.938  0.3917  0.3052 -0.4475
    1PA    C113 2799   3.215   4.284   6.071  0.0391  0.0133  0.5227
    1PA    H13R 2800   3.200   4.392   6.059  0.3875 -0.0201 -0.2609
    1PA    H13S 2801   3.127   4.237   6.117  0.7293 -2.1365 -0.2280
    1PA    C112 2802   3.329   4.265   6.171 -0.2402 -0.3496  0.2508
    1PA    H12R 2803   3.329   4.160   6.203  0.6796 -0.5765 -0.4579
    1PA    H12S 2804   3.421   4.308   6.133 -0.6185  2.4339  2.2060
    1PA    C111 2805   3.301   4.329   6.300  1.0714 -0.2313 -0.1386
    1PA    H11R 2806   3.265   4.431   6.292 -2.1495 -0.9769  2.6050
    1PA    H11S 2807   3.212   4.284   6.345 -0.3517  0.8880 -1.7134
    1PA    C110 2808   3.423   4.333   6.392  0.1586 -0.5090  0.0451
    1PA    H10R 2809   3.439   4.231   6.427  0.2772 -0.5151 -0.0275
    1PA    H10S 2810   3.509   4.374   6.339 -1.4878  0.8605 -1.7226
    1PA     C19 2811   3.407   4.422   6.518 -0.1259 -0.7133 -0.0468
    1PA     H9R 2812   3.364   4.514   6.478 -1.2531 -1.8171 -1.4755
    1PA     H9S 2813   3.329   4.371   6.574 -0.4336 -1.0732 -0.7920
    1PA     C18 2814   3.528   4.454   6.610 -0.0816 -0.4586 -0.0287
    1PA     H8R 2815   3.490   4.435   6.711  0.8628 -0.4578  0.3323
    1PA     H8S 2816   3.608   4.385   6.581  0.3751  0.3966 -0.8812
    1PA     C17 2817   3.565   4.606   6.610 -0.0631 -0.0204  0.0177
    1PA     H7R 2818   3.617   4.643   6.521 -0.8524 -0.3306 -0.5784
    1PA     H7S 2819   3.472   4.661   6.624 -0.2409 -0.4390  0.5217
    1PA     C16 2820   3.642   4.640   6.740  0.3478  0.4535  0.6019
    1PA     H6R 2821   3.671   4.744   6.726 -0.2432  0.4934 -0.4135
    1PA     H6S 2822   3.570   4.638   6.822  0.3385  1.9083  0.6581
    1PA     C15 2823   3.768   4.559   6.770 -0.2598 -0.2496  0.7707
    1PA     H5R 2824   3.743   4.456   6.794  0.2014 -0.6603 -0.4539
    1PA     H5S 2825   3.826   4.552   6.678 -1.0721 -0.4676  0.2642
    1PA     C14 2826   3.835   4.627   6.886 -0.1992  0.0975 -0.7682
    1PA     H4R 2827   3.923   4.567   6.910 -0.7153 -1.0680 -1.6724
    1PA     H4S 2828   3.861   4.726   6.846 -1.2799  0.7851  0.1859
    1PA     C13 2829   3.756   4.633   7.018  0.5564  0.2503  0.1476
    1PA     H3R 2830   3.812   4.690   7.092  0.4657  1.6376 -0.7948
    1PA     H3S 2831   3.661   4.686   7.006  0.4881  0.2138  0.5169
    1PA     C12 2832   3.748   4.490   7.080 -0.1028  0.0729 -0.1590
    1PA     H2R 2833   3.718   4.415   7.008  3.0509 -2.8993  1.3151
    1PA     H2S 2834   3.849   4.455   7.103 -0.1124  0.2154  0.1157
    1PC     C11 2835   3.655   4.481   7.199 -0.3129 -0.0105 -0.5117
    1PC     O12 2836   3.629   4.580   7.276 -0.2713  0.2721 -0.1600
    1PC     O11 2837   3.610   4.353   7.211  0.0564 -0.8775  0.0730
    1PC      C1 2838   3.541   4.316   7.331  0.4786  0.2794 -0.5735
    1PC      HR 2839   3.530   4.207   7.333 -2.6228  0.5153  0.8012
    1PC      HS 2840   3.599   4.340   7.421 -1.0107 -1.3520  0.8746
    1PC      C2 2841   3.400   4.364   7.330 -0.8165 -0.6231 -0.8686
    1PC      HX 2842   3.392   4.465   7.371 -1.8187 -0.2193 -1.9940
    1PC      C3 2843   3.305   4.265   7.414 -0.2160 -0.5118  0.0282
    1PC      HA 2844   3.203   4.301   7.427  0.2143  0.7382  0.1079
    1PC      HB 2845   3.307   4.172   7.357 -0.4975 -0.5620  0.0981
    1PC     O31 2846   3.361   4.257   7.549 -0.4674  0.0995 -0.1265
    1PC     P31 2847   3.344   4.363   7.666  0.3687 -0.2313  0.2938
    1PC     O32 2848   3.193   4.349   7.707  0.3430  0.0478 -0.0092
    1PC     C31 2849   3.151   4.223   7.776 -0.0361 -0.6064 -0.9840
    1PC     H1A 2850   3.054   4.186   7.740  1.2752 -1.7860 -3.5664
    1PC     H1B 2851   3.224   4.142   7.771 -1.0313 -1.5095 -1.5006
    1PC     C32 2852   3.122   4.269   7.921  0.0312 -0.2832  0.0336
    1PC     H2A 2853   3.221   4.290   7.964 -0.8943 -0.8158  2.6166
    1PC     H2B 2854   3.058   4.356   7.914 -2.6035 -2.1814 -0.9456
    1PC     N31 2855   3.054   4.173   8.013 -0.1848 -0.0088 -0.4844
    1PC     C33 2856   3.042   4.234   8.153  0.0761  0.2342  0.1741
    1PC     H3A 2857   2.980   4.163   8.207  0.5613  0.0882  0.5446
    1PC     H3B 2858   3.146   4.232   8.187 -0.2509 -1.3367  1.1721
    1PC     H3C 2859   3.002   4.336   8.147 -0.0592  0.1443 -0.5696
    1PC     C34 2860   2.919   4.148   7.968 -0.0831 -0.0480  0.0566
    1PC     H4A 2861   2.858   4.093   8.040 -2.5270 -0.9135 -2.4735
    1PC     H4B 2862   2.867   4.240   7.941  1.2483  0.7727  0.2269
    1PC     H4C 2863   2.918   4.081   7.881  0.8469  0.7727 -0.6046
    1PC     C35 2864   3.132   4.045   8.015 -0.6601  0.1462  0.4373
    1PC     H5A 2865   3.237   4.074   8.016 -1.5086  3.6209  1.5650
    1PC     H5B 2866   3.107   4.002   7.918 -2.2356  3.1964 -0.6155
    1PC     H5C 2867   3.101   3.990   8.104  1.2563  0.4373  1.3396
    1PC     O33 2868   3.430   4.312   7.780  0.4650  0.6388  0.3682
    1PC     O34 2869   3.368   4.494   7.612  0.3767 -0.4543  0.1171
    1PC     O21 2870   3.347   4.363   7.195 -0.5805  0.7500 -0.3580
    1PC     C21 2871   3.259   4.451   7.160  1.0136 -0.6749  0.7533
    1PC     O22 2872   3.222   4.538   7.232  0.4118 -0.3573 -0.5440
    1OL     C12 2873   3.212   4.440   7.021  0.0307  0.6367  0.7561
    1OL     H2R 2874   3.293   4.469   6.953 -0.7669  1.0062 -0.0523
    1OL     H2S 2875   3.132   4.512   7.003  0.2996  0.9804  0.9339
    1OL     C13 2876   3.145   4.305   6.995  0.2130 -0.3829 -0.1374
    1OL     H3R 2877   3.052   4.300   7.052  0.9379  1.9755  1.3833
    1OL     H3S 2878   3.209   4.225   7.031 -0.6884  0.0093  2.5756
    1OL     C14 2879   3.116   4.270   6.844  0.8545  0.1487 -0.2020
    1OL     H4R 2880   3.044   4.188   6.842  0.8936  0.0604  1.2568
    1OL     H4S 2881   3.207   4.228   6.800  1.2930  0.9923 -0.1320
    1OL     C15 2882   3.066   4.387   6.759  0.1698 -0.6289 -0.1954
    1OL     H5R 2883   3.140   4.468   6.759 -0.7919  0.3388  1.7390
    1OL     H5S 2884   2.980   4.436   6.806  0.1288  1.3636 -2.2003
    1OL     C16 2885   3.032   4.350   6.613  0.1494  0.0111  0.0834
    1OL     H6R 2886   2.967   4.263   6.617  0.4106 -0.1387  1.6325
    1OL     H6S 2887   3.125   4.321   6.562 -0.0055  0.9354 -0.7569
    1OL     C17 2888   2.964   4.470   6.544 -0.0215 -0.4540  0.0085
    1OL     H7R 2889   3.035   4.552   6.557 -1.9578  1.4109 -0.6882
    1OL     H7S 2890   2.874   4.507   6.593 -0.7647 -2.0841 -0.0806
    1OL     C18 2891   2.925   4.433   6.395 -0.6136 -0.1159 -0.0798
    1OL     H8R 2892   2.872   4.337   6.393 -1.2552  0.1849  1.4519
    1OL     H8S 2893   3.025   4.416   6.353  0.3616 -1.3229  2.5236
    1OL     C19 2894   2.850   4.544   6.328 -0.2517  1.4664 -0.1520
    1OL     H9R 2895   2.798   4.599   6.406 -0.0854  0.2769  0.8296
    1OL    C110 2896   2.848   4.568   6.197  0.4908 -1.0024  0.5201
    1OL    H10R 2897   2.800   4.656   6.157  2.5117 -0.5507 -1.0733
    1OL    C111 2898   2.909   4.473   6.090  0.1635  0.4061 -0.3927
    1OL    H11R 2899   2.931   4.385   6.151  4.9200  0.7348 -1.2690
    1OL    H11S 2900   3.002   4.507   6.044  1.3394 -1.7987  0.1990
    1OL    C112 2901   2.813   4.443   5.975 -0.6190 -0.0770 -0.5149
    1OL    H12R 2902   2.722   4.402   6.019 -1.2311  1.4384 -0.3215
    1OL    H12S 2903   2.851   4.371   5.902 -0.0089 -0.7522  0.4492
    1OL    C113 2904   2.774   4.567   5.892 -0.0867 -0.9568 -0.3256
    1OL    H13R 2905   2.716   4.637   5.953  0.3904 -1.1677  0.3799
    1OL    H13S 2906   2.706   4.531   5.814 -0.2034 -0.3737 -0.5006
    1OL    C114 2907   2.898   4.640   5.818 -0.0714 -0.2263 -0.3160
    1OL    H14R 2908   2.963   4.678   5.897 -0.2499  0.5195 -0.5230
    1OL    H14S 2909   2.861   4.714   5.748 -3.9639 -1.7079 -0.0648
    1OL    C115 2910   2.978   4.533   5.747  0.0125  0.3658 -0.1381
    1OL    H15R 2911   2.908   4.466   5.694  0.4118  0.2587 -0.5341
    1OL    H15S 2912   3.032   4.480   5.826  0.2395  0.9994  0.1355
    1OL    C116 2913   3.078   4.592   5.654 -0.0074 -0.0686  0.3780
    1OL    H16R 2914   3.137   4.667   5.707  1.3432 -1.1049  0.4071
    1OL    H16S 2915   3.020   4.634   5.572  0.7879  0.3433  0.0169
    1OL    C117 2916   3.173   4.489   5.592  0.0777  0.3560 -0.2511
    1OL    H17R 2917   3.123   4.397   5.561  0.5906 -1.0109  2.6210
    1OL    H17S 2918   3.242   4.472   5.675  0.3619  1.9080 -0.1317
    1OL    C118 2919   3.260   4.537   5.475 -0.8006  0.2591 -0.1948
    1OL    H18R 2920   3.317   4.627   5.500  0.3745  0.1120 -2.1479
    1OL    H18S 2921   3.189   4.564   5.396  0.6537  0.0968 -1.6132
    1OL    H18T 2922   3.331   4.465   5.435  1.5410  0.9158  2.4283
    1PA    C116 2923   0.682   2.844   5.372 -0.5220 -0.0497 -0.0358
    1PA    H16R 2924   0.784   2.863   5.406  0.8257 -0.6105 -3.3359
    1PA    H16S 2925   0.616   2.889   5.446  1.4295  0.3418  1.5450
    1PA    H16T 2926   0.670   2.893   5.275 -2.0029 -0.9706 -0.3601
    1PA    C115 2927   0.657   2.689   5.361  0.3206 -0.5480  0.9568
    1PA    H15R 2928   0.557   2.666   5.323  0.5483 -0.3284  0.2079
    1PA    H15S 2929   0.718   2.646   5.282 -3.9709 -2.5681 -1.6660
    1PA    C114 2930   0.680   2.601   5.483  0.7071  0.0744  0.1365
    1PA    H14R 2931   0.651   2.500   5.456 -2.6695  0.8301  0.4530
    1PA    H14S 2932   0.787   2.606   5.505  1.2162  0.7133 -2.2169
    1PA    C113 2933   0.596   2.638   5.608  0.2056  0.0428 -0.5494
    1PA    H13R 2934   0.630   2.585   5.697  0.6776  1.8216  0.3842
    1PA    H13S 2935   0.604   2.746   5.627 -2.3968  0.0494  0.8618
    1PA    C112 2936   0.443   2.616   5.595 -0.2019  0.2186 -0.4874
    1PA    H12R 2937   0.387   2.668   5.673  0.5325  0.4054 -0.0658
    1PA    H12S 2938   0.407   2.661   5.502  0.0507 -0.8659 -1.1221
    1PA    C111 2939   0.391   2.473   5.575 -0.7644  0.6570  0.2862
    1PA    H11R 2940   0.290   2.468   5.535 -0.4502 -1.7350 -0.3513
    1PA    H11S 2941   0.447   2.425   5.494 -2.1141 -1.0117  0.2672
    1PA    C110 2942   0.387   2.396   5.708 -0.7370  0.4673 -0.0876
    1PA    H10R 2943   0.369   2.290   5.691  2.1067 -0.2423  0.7720
    1PA    H10S 2944   0.488   2.400   5.749 -1.2392 -0.3617  1.2849
    1PA     C19 2945   0.289   2.465   5.801  0.0011 -0.0515 -0.2537
    1PA     H9R 2946   0.333   2.559   5.833 -0.7937 -0.1457  1.1982
    1PA     H9S 2947   0.204   2.494   5.739  0.1375  0.0330 -0.4017
    1PA     C18 2948   0.243   2.378   5.924  1.0581  0.5131 -0.4154
    1PA     H8R 2949   0.214   2.278   5.889 -0.4398  1.6734 -2.7072
    1PA     H8S 2950   0.329   2.373   5.992 -1.0098 -0.2551  2.2996
    1PA     C17 2951   0.115   2.437   6.000 -0.4303 -0.2925  0.2268
    1PA     H7R 2952   0.144   2.540   6.020 -0.2374 -0.6763  2.1713
    1PA     H7S 2953   0.023   2.432   5.941  0.0494 -0.7005 -0.4972
    1PA     C16 2954   0.095   2.385   6.139 -0.1627  0.1251 -0.5941
    1PA     H6R 2955   0.177   2.396   6.210 -2.0134 -0.3690  1.7750
    1PA     H6S 2956   0.016   2.447   6.182 -0.2172  0.0379 -0.5667
    1PA     C15 2957   0.058   2.237   6.130 -0.5572  0.3430  0.5094
    1PA     H5R 2958  -0.023   2.214   6.061  0.9320 -1.3490 -0.7843
    1PA     H5S 2959   0.146   2.177   6.103  1.1564  1.5956  2.9270
    1PA     C14 2960   0.011   2.172   6.257  0.6743  0.2881 -0.9150
    1PA     H4R 2961   0.012   2.066   6.232 -0.3156  0.4511 -1.7014
    1PA     H4S 2962   0.082   2.191   6.338  2.1632 -3.1931 -1.2241
    1PA     C13 2963  -0.130   2.205   6.305  0.4138  0.2909  0.3741
    1PA     H3R 2964  -0.129   2.310   6.336  1.4865  0.0059  1.3268
    1PA     H3S 2965  -0.189   2.205   6.213 -0.0233  3.6995  0.5109
    1PA     C12 2966  -0.174   2.107   6.417  0.5549 -0.4558 -0.0843
    1PA     H2R 2967  -0.283   2.118   6.417  0.6726  1.1233 -1.3944
    1PA     H2S 2968  -0.160   2.001   6.396  1.7231 -0.0605 -1.5103
    1PC     C11 2969  -0.119   2.149   6.553 -0.0603  0.6163  0.7562
    1PC     O12 2970   0.001   2.165   6.577 -0.0138 -0.0319  0.2925
    1PC     O11 2971  -0.208   2.131   6.652  0.1074 -0.0691  0.2490
    1PC      C1 2972  -0.170   2.152   6.789  0.0818 -0.1702  0.5009
    1PC      HR 2973  -0.264   2.148   6.844 -0.3923  1.8908 -0.0667
    1PC      HS 2974  -0.093   2.084   6.825  0.0374  0.1042  1.1213
    1PC      C2 2975  -0.119   2.304   6.812  0.4486  0.2240  0.4438
    1PC      HX 2976  -0.031   2.321   6.751  1.7973 -1.6506  1.7377
    1PC      C3 2977  -0.084   2.327   6.961 -0.1603  0.2865 -0.1535
    1PC      HA 2978  -0.016   2.249   6.995 -1.0909 -2.0893 -3.2674
    1PC      HB 2979  -0.034   2.424   6.957  0.0539  0.1481 -1.0285
    1PC     O31 2980  -0.197   2.336   7.043 -0.0143 -0.2357  0.4288
    1PC     P31 2981  -0.204   2.420   7.175 -0.3238 -0.4130 -0.2194
    1PC     O32 2982  -0.090   2.352   7.256  0.1311 -0.0984 -0.3766
    1PC     C31 2983  -0.115   2.260   7.371  0.4734  0.0874 -0.1813
    1PC     H1A 2984  -0.019   2.245   7.422  0.8706  0.9823 -0.6335
    1PC     H1B 2985  -0.175   2.321   7.438  0.5896 -0.1439  0.1349
    1PC     C32 2986  -0.176   2.122   7.323 -0.1582 -0.0381  0.7447
    1PC     H2A 2987  -0.285   2.127   7.325 -0.1699  0.2298 -0.1495
    1PC     H2B 2988  -0.150   2.097   7.220 -1.1681  0.0218  0.4600
    1PC     N31 2989  -0.146   1.999   7.412 -0.3045 -0.2267 -0.1855
    1PC     C33 2990  -0.219   2.007   7.544  0.4986  0.2004  0.3798
    1PC     H3A 2991  -0.327   2.012   7.526  0.6227  0.6203 -0.2946
    1PC     H3B 2992  -0.185   1.917   7.595 -1.6683  0.3463  2.2625
    1PC     H3C 2993  -0.196   2.099   7.598  1.0961 -0.3517  1.0882
    1PC     C34 2994  -0.192   1.885   7.329 -0.1444  0.5852 -0.7853
    1PC     H4A 2995  -0.183   1.794   7.389 -0.3159 -0.8897 -2.9145
    1PC     H4B 2996  -0.292   1.918   7.302 -0.4012  0.9227  0.4839
    1PC     H4C 2997  -0.135   1.880   7.236 -2.6048  2.1641 -2.5033
    1PC     C35 2998  -0.003   1.965   7.431 -0.0437  0.5837 -0.0593
    1PC     H5A 2999   0.010   1.876   7.491 -0.9456  0.2203 -0.3929
    1PC     H5B 3000   0.051   2.053   7.466  0.0058  0.4626  0.1665
    1PC     H5C 3001   0.033   1.942   7.330  0.0454  0.9280 -0.1076
    1PC     O33 3002  -0.146   2.556   7.150 -0.1490  0.1169  0.0832
    1PC     O34 3003  -0.330   2.417   7.244 -0.3909  0.3838 -0.0010
    1PC     O21 3004  -0.229   2.394   6.776  0.3368  0.7520 -0.0157
    1PC     C21 3005  -0.198   2.518   6.749 -0.1860  0.0178 -0.5811
    1PC     O22 3006  -0.079   2.551   6.732 -0.7575 -0.1403  0.5845
    1OL     C12 3007  -0.322   2.599   6.729 -0.2422 -0.2300  0.3738
    1OL     H2R 3008  -0.323   2.666   6.815 -0.6509 -1.7340  1.5985
    1OL     H2S 3009  -0.411   2.537   6.741 -0.7989  0.5236  0.2397
    1OL     C13 3010  -0.329   2.683   6.602  0.2478 -0.1374 -0.3737
    1OL     H3R 3011  -0.343   2.624   6.511  1.2008  1.5957 -1.7058
    1OL     H3S 3012  -0.242   2.748   6.589 -0.5254  1.4537  1.7340
    1OL     C14 3013  -0.444   2.778   6.616 -0.8071 -0.2250 -0.0223
    1OL     H4R 3014  -0.434   2.842   6.704  0.8071  2.5723 -2.0900
    1OL     H4S 3015  -0.533   2.716   6.625 -2.0199  1.5956  1.2838
    1OL     C15 3016  -0.481   2.866   6.494 -0.2590  0.0634  0.3812
    1OL     H5R 3017  -0.423   2.958   6.486  0.2512 -0.3710 -1.2349
    1OL     H5S 3018  -0.577   2.914   6.515 -0.7071 -0.4058 -0.5494
    1OL     C16 3019  -0.490   2.794   6.350  0.0099 -0.7200  0.3921
    1OL     H6R 3020  -0.539   2.697   6.355  0.0442 -0.7525  0.0773
    1OL     H6S 3021  -0.389   2.767   6.320  0.6750  0.1102  1.7424
    1OL     C17 3022  -0.555   2.882   6.242  0.2954  0.0922  0.5259
    1OL     H7R 3023  -0.520   2.840   6.147  1.9170  0.4692  0.9243
    1OL     H7S 3024  -0.513   2.983   6.235 -0.4903  0.4904  1.3943
    1OL     C18 3025  -0.702   2.894   6.252  0.1890 -0.5596 -0.2937
    1OL     H8R 3026  -0.742   2.969   6.184 -0.9662 -1.3294 -0.4998
    1OL     H8S 3027  -0.723   2.943   6.348  2.3421 -1.2261  0.5856
    1OL     C19 3028  -0.769   2.758   6.242  0.6105  0.2826 -0.4503
    1OL     H9R 3029  -0.748   2.682   6.317 -1.3160  0.1638  0.0284
    1OL    C110 3030  -0.851   2.711   6.151 -0.0363 -0.2188 -0.2219
    1OL    H10R 3031  -0.885   2.610   6.168 -2.6395  0.9206  2.2197
    1OL    C111 3032  -0.895   2.795   6.029  0.0584 -0.0994 -0.3058
    1OL    H11R 3033  -0.850   2.895   6.022  0.9152 -0.5839 -2.2026
    1OL    H11S 3034  -1.003   2.805   6.037  0.0690  0.1758 -0.5105
    1OL    C112 3035  -0.879   2.730   5.890 -0.1790 -0.2329 -0.3708
    1OL    H12R 3036  -0.941   2.641   5.881 -2.4292  1.2109  0.0403
    1OL    H12S 3037  -0.774   2.703   5.881 -0.3673 -0.8674 -0.6907
    1OL    C113 3038  -0.921   2.821   5.772  0.5728  0.2837 -1.0274
    1OL    H13R 3039  -0.847   2.901   5.785 -1.2651  1.9549 -0.3949
    1OL    H13S 3040  -1.022   2.859   5.781 -0.4648 -2.1645 -1.6076
    1OL    C114 3041  -0.896   2.759   5.628 -0.6990 -1.1712 -0.0752
    1OL    H14R 3042  -0.808   2.695   5.628 -0.1043 -0.3881 -1.1472
    1OL    H14S 3043  -0.889   2.839   5.554  2.6013  0.0029  1.2937
    1OL    C115 3044  -1.022   2.681   5.583 -0.7083  0.3434 -0.3293
    1OL    H15R 3045  -1.110   2.745   5.568 -0.2000  0.3424 -4.4232
    1OL    H15S 3046  -1.046   2.615   5.666  1.5017  0.6591  0.6074
    1OL    C116 3047  -1.003   2.593   5.455 -0.5396  0.1689 -0.1177
    1OL    H16R 3048  -0.932   2.636   5.384 -1.1057 -0.1384 -0.8850
    1OL    H16S 3049  -1.095   2.597   5.395 -0.4751  2.8642 -0.1683
    1OL    C117 3050  -0.949   2.451   5.472  0.4985  0.1226  0.4061
    1OL    H17R 3051  -1.009   2.386   5.536 -0.7675  0.9356  0.0992
    1OL    H17S 3052  -0.848   2.446   5.512  1.0045 -1.1599 -0.9389
    1OL    C118 3053  -0.942   2.386   5.332 -0.0677 -0.0956 -0.0761
    1OL    H18R 3054  -0.906   2.285   5.352  2.3366  0.6823 -0.1214
    1OL    H18S 3055  -0.868   2.433   5.267  2.8115 -0.3645  2.7258
    1OL    H18T 3056  -1.041   2.381   5.287  0.5309  1.0758 -1.6318
    1PA    C116 3057   4.990   0.899   5.263 -0.1111  0.2058  0.9440
    1PA    H16R 3058   4.940   0.960   5.340 -1.3049  1.2758 -0.6177
    1PA    H16S 3059   4.909   0.844   5.214  0.5680 -0.5023  0.6140
    1PA    H16T 3060   5.036   0.961   5.187  0.0630  0.3649  1.1770
    1PA    C115 3061   5.090   0.796   5.314  0.0802 -0.1170  0.8308
    1PA    H15R 3062   5.034   0.707   5.344 -0.7908  0.3981  0.7508
    1PA    H15S 3063   5.164   0.766   5.239  2.1345 -2.1105  3.4530
    1PA    C114 3064   5.163   0.853   5.436 -0.1137 -0.8315  0.5937
    1PA    H14R 3065   5.205   0.953   5.422 -2.2474  0.4662  2.7712
    1PA    H14S 3066   5.095   0.848   5.521 -0.6386 -1.6876  0.1471
    1PA    C113 3067   5.276   0.751   5.464  0.2374  0.4449  0.5061
    1PA    H13R 3068   5.333   0.740   5.371 -0.8067  2.6880 -0.4740
    1PA    H13S 3069   5.342   0.787   5.544  1.6923  0.2532 -0.5573
    1PA    C112 3070   5.235   0.605   5.499  0.5419 -0.0268  0.6237
    1PA    H12R 3071   5.186   0.556   5.415 -3.0063  1.9702  1.3212
    1PA    H12S 3072   5.329   0.554   5.519  1.0546  1.4580  2.2250
    1PA    C111 3073   5.137   0.598   5.626  0.1312 -0.9010 -0.6315
    1PA    H11R 3074   5.047   0.659   5.620  1.3378  0.8765 -1.5695
    1PA    H11S 3075   5.100   0.496   5.636  1.5966 -1.4836 -0.8130
    1PA    C110 3076   5.216   0.638   5.757  0.1498  0.0090  0.2184
    1PA    H10R 3077   5.305   0.576   5.773 -0.5796 -0.8591  0.9265
    1PA    H10S 3078   5.251   0.739   5.735 -0.3456 -0.0456 -0.9327
    1PA     C19 3079   5.137   0.642   5.890 -0.0204  0.6272 -0.5068
    1PA     H9R 3080   5.048   0.705   5.880 -1.2602 -1.1229 -0.9777
    1PA     H9S 3081   5.098   0.542   5.908 -1.8375  1.4166  0.1764
    1PA     C18 3082   5.225   0.685   6.009  0.4239  0.2088  0.2362
    1PA     H8R 3083   5.323   0.638   6.008  0.5872  0.5219  0.8851
    1PA     H8S 3084   5.247   0.791   6.003 -0.7200  0.4061 -1.1331
    1PA     C17 3085   5.165   0.659   6.142  0.2691  0.1207  0.3548
    1PA     H7R 3086   5.082   0.730   6.148  1.3790  1.5579 -0.6990
    1PA     H7S 3087   5.139   0.553   6.142  1.4661 -0.2667 -2.6018
    1PA     C16 3088   5.255   0.697   6.255 -0.3401 -0.2930  0.6035
    1PA     H6R 3089   5.335   0.623   6.257 -2.2488 -2.4512  0.5178
    1PA     H6S 3090   5.292   0.799   6.245 -2.0487  0.5019  1.8805
    1PA     C15 3091   5.180   0.676   6.389  0.6244 -0.9473 -0.0671
    1PA     H5R 3092   5.116   0.763   6.408  0.8688 -1.2374  2.5249
    1PA     H5S 3093   5.122   0.584   6.389  1.1266 -1.2727  0.5581
    1PA     C14 3094   5.264   0.663   6.506  0.7355  0.3887  0.5129
    1PA     H4R 3095   5.337   0.583   6.487 -0.3630 -0.8943  1.4821
    1PA     H4S 3096   5.333   0.747   6.511 -0.6146  1.5025  0.6678
    1PA     C13 3097   5.182   0.641   6.637  0.0621 -0.0855 -0.6562
    1PA     H3R 3098   5.123   0.550   6.624  1.8974 -1.1882 -1.6433
    1PA     H3S 3099   5.254   0.623   6.717 -1.1235 -0.0069  0.4668
    1PA     C12 3100   5.095   0.760   6.680 -0.7440 -0.5825  0.0765
    1PA     H2R 3101   5.142   0.858   6.680 -2.0433  0.0474  0.3701
    1PA     H2S 3102   5.007   0.763   6.616 -1.0835  0.7924  0.5784
    1PC     C11 3103   5.055   0.742   6.825  0.8218 -0.7523  0.1650
    1PC     O12 3104   5.139   0.717   6.912  0.6722 -0.0491 -0.3747
    1PC     O11 3105   4.918   0.759   6.842 -0.1539  0.5133  0.3995
    1PC      C1 3106   4.859   0.732   6.968  0.4536 -0.0376 -0.6352
    1PC      HR 3107   4.751   0.743   6.961  0.4739  2.7998  1.6190
    1PC      HS 3108   4.874   0.628   6.996 -0.2336 -0.3103 -1.2654
    1PC      C2 3109   4.894   0.826   7.079 -0.0704 -0.0608 -0.1310
    1PC      HX 3110   5.002   0.822   7.094 -0.0126  1.8006  0.1853
    1PC      C3 3111   4.815   0.796   7.202  0.2319  0.2524 -0.4303
    1PC      HA 3112   4.846   0.698   7.239 -3.2488 -0.7708  0.1426
    1PC      HB 3113   4.831   0.868   7.283 -1.5543  0.3241 -0.0901
    1PC     O31 3114   4.668   0.785   7.183 -0.1668  0.1110 -0.2666
    1PC     P31 3115   4.563   0.883   7.236  0.7466  0.4198 -0.4663
    1PC     O32 3116   4.579   1.022   7.154 -0.4815  0.1114 -0.0891
    1PC     C31 3117   4.533   1.041   7.022  0.3393  0.6031 -0.3013
    1PC     H1A 3118   4.612   1.010   6.953  0.7134  0.6887  0.0821
    1PC     H1B 3119   4.446   0.976   7.006  0.0995  0.9527 -0.4261
    1PC     C32 3120   4.497   1.194   7.010  0.3709  0.4224 -0.5277
    1PC     H2A 3121   4.585   1.247   7.046  1.8576 -1.2637 -1.5333
    1PC     H2B 3122   4.489   1.226   6.906 -0.9578  0.2482 -0.4963
    1PC     N31 3123   4.386   1.254   7.081  0.8679 -0.3853 -0.4872
    1PC     C33 3124   4.260   1.178   7.037  0.0183  0.9173  0.4283
    1PC     H3A 3125   4.176   1.244   7.058  0.1484  1.2160  0.0335
    1PC     H3B 3126   4.280   1.175   6.930 -0.2098 -0.3220  0.4049
    1PC     H3C 3127   4.254   1.073   7.068 -2.1761  0.4933 -1.1869
    1PC     C34 3128   4.400   1.249   7.233  0.3007 -0.1100 -0.4327
    1PC     H4A 3129   4.302   1.277   7.271  0.7669  1.2177 -0.1406
    1PC     H4B 3130   4.410   1.146   7.267  0.7923  0.4426  1.1620
    1PC     H4C 3131   4.483   1.314   7.261  1.1160 -0.6930 -1.4340
    1PC     C35 3132   4.364   1.395   7.037 -0.4310 -0.6591  0.1188
    1PC     H5A 3133   4.327   1.411   6.936  0.0283 -2.3440 -0.3509
    1PC     H5B 3134   4.462   1.441   7.052 -0.3392 -1.5058  2.6097
    1PC     H5C 3135   4.292   1.455   7.093 -1.4727 -1.5772 -0.2129
    1PC     O33 3136   4.428   0.832   7.208  0.4356 -0.1207  0.4030
    1PC     O34 3137   4.590   0.903   7.379  0.0525 -0.0417  0.5492
    1PC     O21 3138   4.853   0.961   7.039  0.0554 -0.3716 -0.7999
    1PC     C21 3139   4.931   1.056   6.982  0.1932 -0.4300 -0.4221
    1PC     O22 3140   5.048   1.029   6.961  0.0723 -0.0198 -0.1927
    1OL     C12 3141   4.862   1.185   6.947 -1.2009 -0.1934 -0.2493
    1OL     H2R 3142   4.825   1.227   7.041 -1.7814 -3.4981  1.1049
    1OL     H2S 3143   4.779   1.170   6.879 -0.3141  0.7159 -1.5886
    1OL     C13 3144   4.963   1.285   6.885 -0.5292 -0.5037 -0.5048
    1OL     H3R 3145   5.059   1.275   6.936  0.2216  0.4408 -1.6535
    1OL     H3S 3146   4.930   1.387   6.908  1.8231  0.5614 -1.4883
    1OL     C14 3147   4.987   1.282   6.739  0.2428  1.0930 -0.4401
    1OL     H4R 3148   5.017   1.376   6.694  0.4851  1.6199  0.7874
    1OL     H4S 3149   4.884   1.259   6.710 -0.2401  1.1742  1.0862
    1OL     C15 3150   5.078   1.166   6.685  0.1733  0.1334 -0.1979
    1OL     H5R 3151   5.033   1.070   6.710  1.3562 -0.2359  0.5899
    1OL     H5S 3152   5.176   1.157   6.734  0.0260 -1.0464 -0.0878
    1OL     C16 3153   5.100   1.198   6.536  0.5541 -0.1373  0.0952
    1OL     H6R 3154   5.144   1.297   6.522  0.6488 -0.2690 -0.5912
    1OL     H6S 3155   5.006   1.207   6.481  0.4758  0.0212  0.2541
    1OL     C17 3156   5.186   1.087   6.477  0.1213  0.1480  0.1970
    1OL     H7R 3157   5.157   0.988   6.514  0.1368 -1.0365 -2.7491
    1OL     H7S 3158   5.285   1.093   6.523 -0.2375 -0.6724  1.1050
    1OL     C18 3159   5.202   1.079   6.328  0.4893 -0.4065 -0.7368
    1OL     H8R 3160   5.268   0.998   6.296  1.3013 -0.6977  1.4996
    1OL     H8S 3161   5.249   1.168   6.285 -1.1309  1.6110  1.3577
    1OL     C19 3162   5.064   1.056   6.268 -0.6761 -0.1259 -0.7010
    1OL     H9R 3163   4.990   1.010   6.332  0.2410 -0.4859  0.1318
    1OL    C110 3164   5.022   1.097   6.152  0.8138  0.0778 -0.2826
    1OL    H10R 3165   4.921   1.093   6.112  0.9676  1.5067 -0.8980
    1OL    C111 3166   5.111   1.161   6.048 -0.5874 -0.7636 -0.5163
    1OL    H11R 3167   5.066   1.161   5.949 -2.0391  1.1477  0.0950
    1OL    H11S 3168   5.202   1.103   6.034 -0.3347 -0.7626  0.9522
    1OL    C112 3169   5.156   1.306   6.070  0.6597 -1.6999 -0.0937
    1OL    H12R 3170   5.233   1.337   5.999 -0.6029  1.4396 -0.2807
    1OL    H12S 3171   5.188   1.327   6.172 -0.1771  0.5413 -0.2380
    1OL    C113 3172   5.029   1.395   6.055 -0.9337  1.0634 -0.4400
    1OL    H13R 3173   5.037   1.486   6.115 -0.9438  0.2505  0.8180
    1OL    H13S 3174   4.940   1.339   6.085  1.4300 -2.3265  0.7657
    1OL    C114 3175   5.023   1.446   5.908  0.3323  0.6965  0.1766
    1OL    H14R 3176   4.993   1.375   5.830  0.0636  1.2412 -0.2226
    1OL    H14S 3177   5.122   1.482   5.880  0.2781  0.0566 -0.9375
    1OL    C115 3178   4.929   1.565   5.891  0.0039  0.5145  0.8077
    1OL    H15R 3179   4.964   1.637   5.965 -1.2994  1.9422  0.0880
    1OL    H15S 3180   4.835   1.516   5.917  0.2189 -0.2306  0.2411
    1OL    C116 3181   4.916   1.636   5.757  1.0757  0.2491 -0.0173
    1OL    H16R 3182   5.010   1.687   5.734  0.5955  0.2106 -2.2174
    1OL    H16S 3183   4.845   1.719   5.754  0.9441  0.1971  1.0179
    1OL    C117 3184   4.892   1.539   5.641  0.2682  0.0240  0.0976
    1OL    H17R 3185   4.802   1.480   5.662  0.8037 -0.9251 -0.2241
    1OL    H17S 3186   4.980   1.476   5.631  0.0186 -0.2091 -0.7305
    1OL    C118 3187   4.876   1.601   5.511 -0.8863 -0.2288  0.6457
    1OL    H18R 3188   4.862   1.523   5.435  2.0401  0.1621 -0.4102
    1OL    H18S 3189   4.955   1.667   5.474 -1.7309 -0.2477 -1.3029
    1OL    H18T 3190   4.789   1.667   5.516 -0.5179  0.3925 -0.5638
    1PA    C116 3191   4.907   1.020   5.674 -0.5127  0.7910  0.2518
    1PA    H16R 3192   4.876   1.034   5.778 -0.9509  0.0741  0.2228
    1PA    H16S 3193   5.016   1.024   5.669 -0.5497  1.4965 -0.0719
    1PA    H16T 3194   4.862   0.930   5.633  0.3352  0.4434  0.0698
    1PA    C115 3195   4.853   1.137   5.590  0.4311  0.3411  0.4816
    1PA    H15R 3196   4.885   1.229   5.641  1.6243  0.8338 -1.0722
    1PA    H15S 3197   4.893   1.156   5.490  0.2876  2.4206  0.7778
    1PA    C114 3198   4.700   1.130   5.584 -0.4323 -0.2805  0.0204
    1PA    H14R 3199   4.664   1.225   5.543 -1.8833 -0.1247  1.5546
    1PA    H14S 3200   4.665   1.056   5.512 -1.9861  1.4203 -1.0604
    1PA    C113 3201   4.632   1.112   5.720  0.3096  0.3675 -0.6800
    1PA    H13R 3202   4.523   1.117   5.715  0.2324 -0.4003  0.0179
    1PA    H13S 3203   4.639   1.008   5.753  0.1623  0.1728 -1.2588
    1PA    C112 3204   4.692   1.215   5.828  0.5672  0.5454 -0.1820
    1PA    H12R 3205   4.787   1.181   5.868  0.7944 -0.7098 -1.6798
    1PA    H12S 3206   4.706   1.313   5.781  2.1871  1.4118  1.9492
    1PA    C111 3207   4.583   1.247   5.936 -0.1129 -0.1630  0.7409
    1PA    H11R 3208   4.489   1.285   5.895  1.3632  1.5644 -1.2794
    1PA    H11S 3209   4.567   1.149   5.980  0.0342 -0.3029  0.4855
    1PA    C110 3210   4.636   1.351   6.042  0.2480  0.3874 -0.6416
    1PA    H10R 3211   4.742   1.338   6.061  0.6786  2.2856 -1.5212
    1PA    H10S 3212   4.626   1.454   6.007  0.3757  0.9967  0.9895
    1PA     C19 3213   4.572   1.347   6.184  0.0685 -0.5719 -0.6242
    1PA     H9R 3214   4.571   1.445   6.232 -1.1780 -0.1679 -1.4144
    1PA     H9S 3215   4.468   1.320   6.166 -0.3529  0.6993 -0.2532
    1PA     C18 3216   4.641   1.240   6.271  0.0168 -0.7065  0.2106
    1PA     H8R 3217   4.638   1.141   6.224 -0.4217  0.1009 -1.5554
    1PA     H8S 3218   4.748   1.260   6.266 -0.0509 -0.5053 -0.6768
    1PA     C17 3219   4.596   1.228   6.416  0.0421 -0.3550 -0.2940
    1PA     H7R 3220   4.604   1.319   6.476  0.3979 -0.9343  0.5481
    1PA     H7S 3221   4.493   1.193   6.427 -0.4753  0.9637 -0.6805
    1PA     C16 3222   4.676   1.119   6.475 -0.1450 -0.4320 -0.5693
    1PA     H6R 3223   4.668   1.024   6.422 -2.9046 -0.6318  0.0622
    1PA     H6S 3224   4.782   1.146   6.472 -0.4137  0.7296 -0.2212
    1PA     C15 3225   4.653   1.086   6.626  0.0811  0.0093  0.8687
    1PA     H5R 3226   4.680   1.170   6.690 -1.4823  2.1255 -1.0798
    1PA     H5S 3227   4.546   1.082   6.649 -0.2159  0.3858 -0.3707
    1PA     C14 3228   4.723   0.958   6.672  0.1516  1.1567  0.5244
    1PA     H4R 3229   4.831   0.956   6.657 -0.0401  0.0267 -0.8766
    1PA     H4S 3230   4.710   0.945   6.780  0.3952  0.3855  0.4693
    1PA     C13 3231   4.681   0.829   6.598 -0.0199 -0.0701 -0.1699
    1PA     H3R 3232   4.746   0.830   6.510 -0.0781 -0.0883 -0.2130
    1PA     H3S 3233   4.708   0.739   6.653 -0.0765  0.3854  0.6112
    1PA     C12 3234   4.529   0.825   6.564  0.1538  0.4156  0.9308
    1PA     H2R 3235   4.488   0.913   6.513  0.3826  0.0328  0.0635
    1PA     H2S 3236   4.511   0.734   6.506 -1.4172 -0.2472  2.3787
    1PC     C11 3237   4.451   0.802   6.691 -0.5057  0.0692  0.0955
    1PC     O12 3238   4.503   0.799   6.808  0.1906 -0.2007 -0.3182
    1PC     O11 3239   4.318   0.777   6.664  0.3429 -0.0359 -0.2051
    1PC      C1 3240   4.235   0.731   6.774 -0.3394  0.2078  0.9589
    1PC      HR 3241   4.140   0.706   6.725 -0.8239 -0.7085  2.3223
    1PC      HS 3242   4.277   0.646   6.828  1.3738 -0.3413 -1.1097
    1PC      C2 3243   4.210   0.853   6.865 -0.1277 -0.1411 -0.2204
    1PC      HX 3244   4.306   0.900   6.888  1.0804 -2.1529 -0.8047
    1PC      C3 3245   4.150   0.804   6.997 -0.7418 -0.1902  0.4670
    1PC      HA 3246   4.230   0.772   7.064 -0.6791 -2.9005 -0.7423
    1PC      HB 3247   4.085   0.888   7.023  1.6179  1.5969  0.8757
    1PC     O31 3248   4.074   0.680   6.973  0.0942  0.0997 -0.0728
    1PC     P31 3249   4.059   0.565   7.086  0.3200 -0.0685 -0.2113
    1PC     O32 3250   4.181   0.477   7.068 -0.3624  0.3099 -0.0414
    1PC     C31 3251   4.191   0.387   6.945  0.5543 -0.8306 -0.9325
    1PC     H1A 3252   4.099   0.382   6.885 -0.8933 -0.4472  1.1450
    1PC     H1B 3253   4.264   0.434   6.879  0.3940  2.6906  1.1511
    1PC     C32 3254   4.236   0.247   6.987  0.8089  0.1609 -0.0768
    1PC     H2A 3255   4.263   0.186   6.900  1.8692  1.8519 -0.9921
    1PC     H2B 3256   4.329   0.257   7.043  0.6189  0.0110  0.2660
    1PC     N31 3257   4.136   0.163   7.058  0.7833  0.1242 -0.9818
    1PC     C33 3258   4.116   0.204   7.194  0.0892  0.1990 -0.3553
    1PC     H3A 3259   4.039   0.139   7.237  0.2025  0.3171  0.0287
    1PC     H3B 3260   4.215   0.192   7.237 -0.6302 -0.8459  1.1048
    1PC     H3C 3261   4.083   0.308   7.190 -1.9516 -0.4050 -0.4114
    1PC     C34 3262   4.000   0.160   6.997 -0.2173  0.5306 -0.6892
    1PC     H4A 3263   3.944   0.074   7.034  1.1062 -0.4596 -0.9111
    1PC     H4B 3264   3.947   0.253   7.021  0.6890  0.3569  2.4207
    1PC     H4C 3265   4.009   0.126   6.894  1.4849 -1.2796 -0.0089
    1PC     C35 3266   4.168   0.019   7.057  0.1807 -0.3018 -0.3669
    1PC     H5A 3267   4.181  -0.014   6.954 -0.5713 -1.4886 -0.1056
    1PC     H5B 3268   4.085  -0.032   7.107 -0.1003  1.1703  0.7350
    1PC     H5C 3269   4.260   0.009   7.116 -0.9905 -1.2752  1.3971
    1PC     O33 3270   4.065   0.623   7.225  0.0972  0.5319  0.0049
    1PC     O34 3271   3.947   0.474   7.056  0.0039  0.3483 -0.2206
    1PC     O21 3272   4.129   0.952   6.801 -0.3997 -0.0087  0.5434
    1PC     C21 3273   4.188   1.055   6.734 -0.2668  0.3982 -0.9866
    1PC     O22 3274   4.308   1.073   6.740  0.1506 -0.3919  0.1598
    1OL     C12 3275   4.092   1.128   6.659  0.1979 -0.1113 -0.1347
    1OL     H2R 3276   4.058   1.215   6.716 -1.9978 -1.1425  0.2485
    1OL     H2S 3277   4.006   1.065   6.633  0.6557  0.2108 -2.6630
    1OL     C13 3278   4.148   1.160   6.523  0.1928 -0.3355  0.2679
    1OL     H3R 3279   4.241   1.214   6.539  0.2572  0.0556 -1.2999
    1OL     H3S 3280   4.077   1.230   6.477 -0.3237 -1.0629 -0.0717
    1OL     C14 3281   4.173   1.044   6.426 -0.1710  0.3615 -0.4491
    1OL     H4R 3282   4.077   0.992   6.423  0.7803 -1.5017 -0.1283
    1OL     H4S 3283   4.247   0.978   6.472 -1.2702 -0.2440  0.5054
    1OL     C15 3284   4.216   1.085   6.289  0.1880 -0.4429 -1.3336
    1OL     H5R 3285   4.311   1.138   6.299  0.5963 -1.3843  0.1649
    1OL     H5S 3286   4.151   1.159   6.243  0.1701 -0.8691 -2.0068
    1OL     C16 3287   4.231   0.963   6.199 -0.2675  0.5220 -0.2272
    1OL     H6R 3288   4.266   0.994   6.100  0.5066  0.9699  0.1808
    1OL     H6S 3289   4.135   0.910   6.196  0.0224 -0.0546  0.4111
    1OL     C17 3290   4.342   0.868   6.265  0.8488 -0.0206  0.1822
    1OL     H7R 3291   4.309   0.826   6.360 -0.7337 -0.1370 -0.3904
    1OL     H7S 3292   4.429   0.934   6.276 -1.7285  3.4935  1.2044
    1OL     C18 3293   4.384   0.758   6.161  0.2965  0.0961  0.5067
    1OL     H8R 3294   4.416   0.804   6.067  0.9561  1.0704  1.1915
    1OL     H8S 3295   4.297   0.692   6.154 -0.3028  0.9191 -0.0472
    1OL     C19 3296   4.500   0.671   6.211  0.4482 -0.3710 -0.0881
    1OL     H9R 3297   4.476   0.589   6.277 -3.8524 -0.8869 -1.9732
    1OL    C110 3298   4.624   0.688   6.173  0.1812 -0.0133  0.6407
    1OL    H10R 3299   4.696   0.612   6.203 -0.6929 -0.5832  1.3597
    1OL    C111 3300   4.683   0.780   6.066 -0.6731 -0.3940 -1.0214
    1OL    H11R 3301   4.770   0.824   6.115 -2.0033  1.1610  0.0615
    1OL    H11S 3302   4.614   0.864   6.048 -0.5350  0.5430  2.1616
    1OL    C112 3303   4.722   0.721   5.927  0.5385 -0.8594 -0.5720
    1OL    H12R 3304   4.788   0.642   5.963 -0.4737 -0.7294  1.7749
    1OL    H12S 3305   4.772   0.796   5.866 -0.4299 -0.1469 -0.5112
    1OL    C113 3306   4.599   0.670   5.850 -0.7668 -0.0517 -0.6211
    1OL    H13R 3307   4.538   0.746   5.801  1.1355  1.6103 -0.5201
    1OL    H13S 3308   4.538   0.633   5.933 -1.6598  0.9239 -0.8216
    1OL    C114 3309   4.621   0.547   5.754  0.2450  0.1117 -0.1124
    1OL    H14R 3310   4.528   0.500   5.722  1.0505 -1.8157  0.2478
    1OL    H14S 3311   4.681   0.470   5.803 -0.7772 -0.8667 -0.3338
    1OL    C115 3312   4.702   0.588   5.641  0.8283  0.0951  0.6298
    1OL    H15R 3313   4.742   0.497   5.595  0.4380  0.4023 -0.3399
    1OL    H15S 3314   4.793   0.634   5.679  0.4379  0.3822  1.2382
    1OL    C116 3315   4.624   0.653   5.523 -0.6639 -0.9798 -0.0426
    1OL    H16R 3316   4.582   0.746   5.563 -0.8833 -0.7909 -0.7135
    1OL    H16S 3317   4.536   0.590   5.509 -2.3431  1.6959 -2.4810
    1OL    C117 3318   4.708   0.684   5.399 -0.1143  0.1538  0.7394
    1OL    H17R 3319   4.796   0.739   5.432  0.5759  0.5220 -1.5062
    1OL    H17S 3320   4.661   0.754   5.330 -0.7990 -0.7437  0.2626
    1OL    C118 3321   4.756   0.568   5.318 -0.8174  0.5190  0.7193
    1OL    H18R 3322   4.794   0.482   5.373 -1.0412  0.5264  0.8879
    1OL    H18S 3323   4.830   0.610   5.249  0.5643  2.5282  3.2861
    1OL    H18T 3324   4.670   0.528   5.262 -1.6773  2.3284  0.6737
    1PA    C116 3325   4.535   3.583   5.536 -0.5307 -0.5236  0.1129
    1PA    H16R 3326   4.428   3.592   5.519 -0.6878 -2.0015  0.1938
    1PA    H16S 3327   4.567   3.504   5.605 -1.5012  0.8372  2.2325
    1PA    H16T 3328   4.570   3.553   5.437 -0.2127  0.6056 -0.1311
    1PA    C115 3329   4.597   3.717   5.579  0.0496 -0.0383 -0.4527
    1PA    H15R 3330   4.705   3.706   5.579  0.0100 -1.2258 -2.9363
    1PA    H15S 3331   4.575   3.799   5.510  0.4653  0.6308  0.1925
    1PA    C114 3332   4.560   3.755   5.721  0.2456 -0.0619  0.3485
    1PA    H14R 3333   4.570   3.862   5.741  0.5256 -0.1515  0.7121
    1PA    H14S 3334   4.459   3.724   5.749  0.1707  1.7486  2.3303
    1PA    C113 3335   4.645   3.680   5.826 -0.6658  0.2422  0.0294
    1PA    H13R 3336   4.627   3.572   5.826  0.7765 -0.0356 -0.9809
    1PA    H13S 3337   4.752   3.692   5.806 -0.5754 -1.3552 -0.6144
    1PA    C112 3338   4.617   3.728   5.970 -0.2017 -0.4922 -0.4603
    1PA    H12R 3339   4.663   3.826   5.979  0.3727 -0.9300  2.0821
    1PA    H12S 3340   4.510   3.744   5.984 -0.1954  0.5973 -1.4959
    1PA    C111 3341   4.661   3.633   6.082  0.1425  0.2114 -0.6577
    1PA    H11R 3342   4.596   3.546   6.085 -0.3934  0.5955  1.8002
    1PA    H11S 3343   4.764   3.609   6.056  0.4011  0.7178 -0.1308
    1PA    C110 3344   4.675   3.690   6.227  0.2257  0.1374  0.6343
    1PA    H10R 3345   4.747   3.771   6.234  1.6055 -0.9542 -0.4059
    1PA    H10S 3346   4.581   3.733   6.263  0.2905  0.3211  0.5840
    1PA     C19 3347   4.704   3.573   6.325  0.2720 -0.1338  0.0177
    1PA     H9R 3348   4.638   3.488   6.306  0.1433  0.1002 -0.6384
    1PA     H9S 3349   4.801   3.536   6.293  0.8338 -1.3110  2.7969
    1PA     C18 3350   4.702   3.605   6.477 -0.1934 -0.4132  0.2231
    1PA     H8R 3351   4.594   3.603   6.491 -0.2317 -0.2767 -0.0388
    1PA     H8S 3352   4.740   3.515   6.525 -1.9008 -1.3621 -0.1388
    1PA     C17 3353   4.782   3.722   6.530 -0.0759 -0.1814 -0.8344
    1PA     H7R 3354   4.884   3.717   6.492  1.3872 -0.2449  2.7146
    1PA     H7S 3355   4.745   3.818   6.492  0.3556  0.6860  0.8246
    1PA     C16 3356   4.793   3.724   6.685  0.5929  0.3486  0.5892
    1PA     H6R 3357   4.841   3.629   6.707 -3.1184 -1.6934  0.5396
    1PA     H6S 3358   4.859   3.809   6.705 -2.0650  2.9261 -0.7092
    1PA     C15 3359   4.648   3.747   6.744 -0.3810  0.2224  0.0682
    1PA     H5R 3360   4.594   3.830   6.699  0.3776 -0.6939 -2.7148
    1PA     H5S 3361   4.588   3.657   6.727 -1.9542  0.8585  1.8939
    1PA     C14 3362   4.654   3.764   6.899  0.1617 -0.6016  0.0760
    1PA     H4R 3363   4.716   3.691   6.951  3.4522  1.7939 -0.1575
    1PA     H4S 3364   4.692   3.863   6.924  0.0478 -0.7959  1.0555
    1PA     C13 3365   4.515   3.769   6.970 -0.2533  0.1564 -0.2500
    1PA     H3R 3366   4.465   3.674   6.952 -0.5416  0.3001 -0.2073
    1PA     H3S 3367   4.532   3.766   7.078 -0.2003  0.5426 -0.2464
    1PA     C12 3368   4.424   3.887   6.941 -0.4047 -0.2099  0.6469
    1PA     H2R 3369   4.483   3.973   6.908  1.0678 -1.6099 -0.4692
    1PA     H2S 3370   4.350   3.871   6.862 -0.7431  0.9490  0.6987
    1PC     C11 3371   4.339   3.922   7.060 -0.3758 -0.6423 -0.6387
    1PC     O12 3372   4.251   3.854   7.105  0.1328  0.3169  0.2290
    1PC     O11 3373   4.382   4.027   7.127  0.1159  0.2718 -0.0739
    1PC      C1 3374   4.348   4.053   7.262 -0.1229 -0.0633  0.1651
    1PC      HR 3375   4.277   4.136   7.257 -0.0759 -0.0833 -1.0006
    1PC      HS 3376   4.303   3.965   7.310 -1.9595  1.6939  1.8991
    1PC      C2 3377   4.477   4.095   7.339 -0.4724 -0.1046  0.0468
    1PC      HX 3378   4.548   4.015   7.361  0.9585  0.6622 -1.5219
    1PC      C3 3379   4.442   4.143   7.486 -0.1265  1.0318  0.3059
    1PC      HA 3380   4.353   4.207   7.479 -1.3778 -0.5427  1.0501
    1PC      HB 3381   4.403   4.062   7.548 -0.8491 -0.2711 -1.7276
    1PC     O31 3382   4.560   4.213   7.539 -0.2865  0.3187  0.3940
    1PC     P31 3383   4.627   4.180   7.678 -0.3399 -0.0151  0.1543
    1PC     O32 3384   4.702   4.041   7.660 -0.2225 -0.3883  0.9613
    1PC     C31 3385   4.829   4.038   7.581  0.8672  0.0786  0.0880
    1PC     H1A 3386   4.833   3.945   7.523 -0.9544 -0.9240  1.4399
    1PC     H1B 3387   4.839   4.128   7.521  1.8634  1.4196  2.1651
    1PC     C32 3388   4.938   4.039   7.689 -0.4096  0.6520 -0.4555
    1PC     H2A 3389   4.938   4.129   7.751 -1.9256 -0.4971  1.3508
    1PC     H2B 3390   4.917   3.961   7.763 -0.2731 -0.4416 -1.5444
    1PC     N31 3391   5.076   4.007   7.640  0.1542 -0.4767  0.1206
    1PC     C33 3392   5.119   4.099   7.534  0.2653 -0.4343  0.0364
    1PC     H3A 3393   5.060   4.088   7.444  0.0845  0.1836  0.0733
    1PC     H3B 3394   5.116   4.202   7.571 -0.0429 -0.3738 -0.1524
    1PC     H3C 3395   5.220   4.068   7.506 -0.1486 -0.7110 -1.1790
    1PC     C34 3396   5.163   4.025   7.755  0.1488 -0.0285 -0.1046
    1PC     H4A 3397   5.119   3.966   7.836  2.0415 -0.3277  0.7680
    1PC     H4B 3398   5.262   3.996   7.720 -0.9005 -1.7091 -1.8743
    1PC     H4C 3399   5.154   4.125   7.799 -1.3072  0.1380 -0.7258
    1PC     C35 3400   5.073   3.861   7.585  0.0985 -0.2395 -0.5986
    1PC     H5A 3401   5.056   3.791   7.667 -0.0682 -2.1541 -2.2091
    1PC     H5B 3402   5.167   3.824   7.545 -0.6947 -2.0855 -0.8074
    1PC     H5C 3403   4.991   3.851   7.514 -2.6930 -1.4593  2.5066
    1PC     O33 3404   4.719   4.287   7.705 -0.1351 -0.3132 -0.1232
    1PC     O34 3405   4.519   4.164   7.776  0.7570 -0.4767  0.2953
    1PC     O21 3406   4.530   4.207   7.267  1.1820  0.3691  0.1582
    1PC     C21 3407   4.648   4.194   7.211 -0.0841  0.8107 -0.2443
    1PC     O22 3408   4.719   4.096   7.211 -0.4016 -0.0816  0.0352
    1OL     C12 3409   4.686   4.324   7.142  1.0068 -0.3111 -0.2343
    1OL     H2R 3410   4.791   4.345   7.162  0.7797 -0.6517  1.4632
    1OL     H2S 3411   4.628   4.401   7.194 -0.1453 -0.1568 -1.6673
    1OL     C13 3412   4.655   4.340   6.996  0.0805 -0.2799  0.0865
    1OL     H3R 3413   4.679   4.442   6.966 -0.3929 -0.6132 -1.5618
    1OL     H3S 3414   4.549   4.321   6.980 -0.6298 -1.4546  4.7490
    1OL     C14 3415   4.732   4.238   6.911 -0.2706  0.1438  0.2642
    1OL     H4R 3416   4.714   4.132   6.932 -0.8836 -0.1131 -1.4450
    1OL     H4S 3417   4.840   4.249   6.922 -0.1924 -1.4173  1.5438
    1OL     C15 3418   4.694   4.231   6.758 -0.0499  0.0497 -0.9548
    1OL     H5R 3419   4.721   4.328   6.715  0.9381  0.4591  0.4972
    1OL     H5S 3420   4.587   4.210   6.757  0.3325 -2.0181 -1.1281
    1OL     C16 3421   4.754   4.113   6.678  0.5561 -0.3992 -0.1053
    1OL     H6R 3422   4.714   4.021   6.721 -0.3135  0.7040  1.5801
    1OL     H6S 3423   4.863   4.111   6.672  0.5264  0.8909 -4.1593
    1OL     C17 3424   4.708   4.125   6.529  0.4899 -0.4757 -0.2788
    1OL     H7R 3425   4.600   4.142   6.523  0.4143 -0.8541  0.0081
    1OL     H7S 3426   4.721   4.032   6.474  1.9892  0.8947 -2.4037
    1OL     C18 3427   4.781   4.241   6.458 -0.5205 -0.1323  0.4166
    1OL     H8R 3428   4.884   4.233   6.493 -0.5197  1.0617  0.7156
    1OL     H8S 3429   4.747   4.338   6.496 -1.7334 -0.4536  0.1996
    1OL     C19 3430   4.786   4.227   6.303  0.0639 -0.4087 -0.0378
    1OL     H9R 3431   4.766   4.124   6.274  1.0033 -0.5985 -0.0621
    1OL    C110 3432   4.798   4.323   6.211  0.5569  0.8308  0.1581
    1OL    H10R 3433   4.787   4.288   6.109 -1.4459  0.5422  0.4413
    1OL    C111 3434   4.819   4.472   6.225 -0.1719  0.1935 -0.0343
    1OL    H11R 3435   4.808   4.505   6.329 -1.2384 -0.9360  0.2318
    1OL    H11S 3436   4.737   4.527   6.179 -1.2646  0.9929  2.6880
    1OL    C112 3437   4.955   4.509   6.166 -0.4196  0.1933  0.6790
    1OL    H12R 3438   5.026   4.448   6.223 -2.9181 -0.7653  2.9597
    1OL    H12S 3439   4.970   4.611   6.202 -0.2679  1.0415 -1.6253
    1OL    C113 3440   4.961   4.504   6.015 -0.1545 -0.4726  0.0784
    1OL    H13R 3441   4.880   4.566   5.975 -1.1740 -1.6836  0.1907
    1OL    H13S 3442   4.928   4.408   5.976 -0.9664  0.0424 -0.5419
    1OL    C114 3443   5.098   4.550   5.968 -0.1478 -0.2589 -0.0688
    1OL    H14R 3444   5.169   4.485   6.020  0.8324  1.4568  0.7984
    1OL    H14S 3445   5.111   4.658   5.978 -0.5703  0.1757 -3.1405
    1OL    C115 3446   5.110   4.520   5.813  0.0171 -0.4883 -0.6106
    1OL    H15R 3447   5.022   4.558   5.761 -0.6610  0.4277  1.1280
    1OL    H15S 3448   5.104   4.412   5.804 -1.1155 -0.5028  0.1025
    1OL    C116 3449   5.233   4.583   5.754  0.2141 -0.3146  0.1880
    1OL    H16R 3450   5.328   4.549   5.796 -0.3254 -1.1071  0.8170
    1OL    H16S 3451   5.235   4.689   5.778 -2.6817 -0.4752  1.7096
    1OL    C117 3452   5.231   4.585   5.605 -0.4428  0.2453 -0.4796
    1OL    H17R 3453   5.314   4.638   5.557  0.6087  0.3886  1.3908
    1OL    H17S 3454   5.141   4.642   5.581 -0.6775 -0.8075 -2.1997
    1OL    C118 3455   5.218   4.444   5.533 -0.0441 -0.8983  0.0398
    1OL    H18R 3456   5.277   4.369   5.586  1.3911  0.3515  0.2673
    1OL    H18S 3457   5.260   4.452   5.433 -1.3433  1.1971 -0.4087
    1OL    H18T 3458   5.113   4.413   5.536  0.2650 -2.6333 -3.2284
    1PA    C116 3459   3.473   4.888   5.294 -0.9683 -0.4533  0.7448
    1PA    H16R 3460   3.510   4.868   5.192 -0.8376  0.7443  0.5432
    1PA    H16S 3461   3.386   4.826   5.318 -1.3396 -0.0125  0.5470
    1PA    H16T 3462   3.545   4.836   5.357 -1.1867 -0.3434  1.0827
    1PA    C115 3463   3.460   5.030   5.347  0.2860  0.2120 -0.3155
    1PA    H15R 3464   3.562   5.066   5.329  0.2749  0.5868  0.3404
    1PA    H15S 3465   3.386   5.082   5.285 -1.0370  1.1288  1.9276
    1PA    C114 3466   3.411   5.050   5.486  0.1856  0.0358  0.7400
    1PA    H14R 3467   3.477   4.988   5.547  0.6075 -1.0195 -0.7247
    1PA    H14S 3468   3.440   5.155   5.498  3.1885 -0.3429 -1.8012
    1PA    C113 3469   3.256   5.017   5.510 -0.3133  0.0055 -0.2598
    1PA    H13R 3470   3.196   5.062   5.431 -1.7994 -0.7035  0.4163
    1PA    H13S 3471   3.248   4.908   5.498  0.5008  0.0018 -0.8818
    1PA    C112 3472   3.204   5.056   5.650 -0.4012  0.3612  0.0101
    1PA    H12R 3473   3.289   5.046   5.718 -0.5167  0.2302  0.1347
    1PA    H12S 3474   3.178   5.162   5.646  0.5725  0.6247  0.3186
    1PA    C111 3475   3.077   4.982   5.693  0.0588  0.2455 -0.3487
    1PA    H11R 3476   3.014   4.981   5.604  0.6086  0.0508 -0.7333
    1PA    H11S 3477   3.100   4.876   5.709 -1.2214 -0.3589 -2.1655
    1PA    C110 3478   3.011   5.045   5.813  0.1906  0.0003  0.5261
    1PA    H10R 3479   2.976   5.143   5.784  4.3222  1.7873  0.8014
    1PA    H10S 3480   2.926   4.979   5.830  1.9333 -1.7298  3.4361
    1PA     C19 3481   3.084   5.059   5.942 -0.4158 -1.2152  0.0941
    1PA     H9R 3482   3.112   4.958   5.971 -0.0656 -1.2221 -0.2501
    1PA     H9S 3483   3.174   5.117   5.918 -1.0695 -1.0142 -2.0884
    1PA     C18 3484   3.011   5.130   6.054 -0.2353 -0.2226  0.0305
    1PA     H8R 3485   3.063   5.190   6.130 -1.0741  0.1137  0.3537
    1PA     H8S 3486   2.943   5.203   6.009  1.3125  1.5557  0.4360
    1PA     C17 3487   2.918   5.019   6.111 -0.3623 -0.1506 -0.0043
    1PA     H7R 3488   2.846   5.004   6.031 -1.4783  0.3416  0.8707
    1PA     H7S 3489   2.967   4.922   6.114 -0.6115 -0.2881 -0.4449
    1PA     C16 3490   2.849   5.055   6.243 -0.4341  0.5884 -0.0578
    1PA     H6R 3491   2.930   5.068   6.315 -0.4984 -2.4843  0.7285
    1PA     H6S 3492   2.800   5.151   6.228 -0.3306  0.9449  1.5892
    1PA     C15 3493   2.755   4.948   6.298 -0.3337 -0.3267 -0.3244
    1PA     H5R 3494   2.675   4.921   6.229 -1.3014  1.7167 -0.0751
    1PA     H5S 3495   2.826   4.868   6.320 -0.2948  0.2794  2.1291
    1PA     C14 3496   2.693   4.992   6.431 -0.1011  0.3902  0.2798
    1PA     H4R 3497   2.675   5.100   6.431  0.2909  0.4563  0.3446
    1PA     H4S 3498   2.595   4.947   6.447 -0.1793  0.4228 -0.0986
    1PA     C13 3499   2.779   4.957   6.553  0.1046  0.1196  0.9285
    1PA     H3R 3500   2.874   5.011   6.547  1.1814 -1.7886 -0.4459
    1PA     H3S 3501   2.728   4.988   6.644 -2.3981 -1.6285  0.2399
    1PA     C12 3502   2.813   4.809   6.576  0.3016 -0.1034 -0.1313
    1PA     H2R 3503   2.722   4.752   6.594  1.4578 -1.4006  1.9997
    1PA     H2S 3504   2.863   4.768   6.489 -2.0593  1.6425 -2.4653
    1PC     C11 3505   2.900   4.790   6.698  0.0117 -0.2822 -0.3058
    1PC     O12 3506   3.020   4.814   6.708 -0.5896 -0.5059  0.6738
    1PC     O11 3507   2.833   4.751   6.815  0.3714 -0.1594  0.0191
    1PC      C1 3508   2.903   4.735   6.944  0.1275 -0.9524 -0.0267
    1PC      HR 3509   2.826   4.697   7.011 -2.7282  0.3900 -2.3036
    1PC      HS 3510   2.966   4.647   6.929 -0.5634 -1.6690  1.1716
    1PC      C2 3511   2.961   4.870   6.988 -0.0301  0.2781 -0.1752
    1PC      HX 3512   3.053   4.875   6.929 -0.0483 -0.1481 -0.2384
    1PC      C3 3513   2.993   4.878   7.142 -0.1807 -0.3171  0.0173
    1PC      HA 3514   3.071   4.802   7.152 -0.2415 -0.5978 -1.4667
    1PC      HB 3515   3.032   4.979   7.160  0.2246 -0.2611 -1.1044
    1PC     O31 3516   2.879   4.838   7.225  0.0766 -0.2534  0.0162
    1PC     P31 3517   2.758   4.938   7.267  0.0494 -0.0694  0.2497
    1PC     O32 3518   2.650   4.893   7.155 -0.2148 -0.9693 -0.5716
    1PC     C31 3519   2.579   4.777   7.175 -0.0094  0.4209 -0.3643
    1PC     H1A 3520   2.646   4.696   7.144  2.6361  2.1426  0.6065
    1PC     H1B 3521   2.543   4.764   7.277  0.5456 -1.3133 -0.3512
    1PC     C32 3522   2.464   4.800   7.076 -0.1316  0.1591  0.8322
    1PC     H2A 3523   2.387   4.724   7.092 -0.2066  0.2661  0.9899
    1PC     H2B 3524   2.412   4.894   7.098 -1.7199 -0.4334 -0.2434
    1PC     N31 3525   2.481   4.792   6.929  0.3618 -1.1570 -0.0663
    1PC     C33 3526   2.345   4.825   6.885  0.1179  0.0055 -0.1297
    1PC     H3A 3527   2.276   4.751   6.927  0.3445  0.0142  0.2636
    1PC     H3B 3528   2.320   4.925   6.919 -2.5899 -0.0544 -1.7412
    1PC     H3C 3529   2.341   4.812   6.777  0.3993 -1.7688  0.0428
    1PC     C34 3530   2.563   4.894   6.868 -0.4019  0.2861 -0.1063
    1PC     H4A 3531   2.537   4.991   6.910 -1.5334 -0.6969  1.5798
    1PC     H4B 3532   2.666   4.876   6.897  0.0472  2.2493 -0.4024
    1PC     H4C 3533   2.555   4.888   6.759  1.4453 -0.2191 -0.2404
    1PC     C35 3534   2.528   4.662   6.887  0.1761 -0.0654  0.0413
    1PC     H5A 3535   2.512   4.643   6.781  0.5082  0.5798 -0.1323
    1PC     H5B 3536   2.482   4.592   6.956  0.3386  0.6530  0.9018
    1PC     H5C 3537   2.636   4.652   6.901  0.1173 -0.9687 -0.1216
    1PC     O33 3538   2.710   4.907   7.401 -0.1941 -0.7226  0.1143
    1PC     O34 3539   2.793   5.083   7.239  0.3784  0.1395  1.3456
    1PC     O21 3540   2.870   4.983   6.952  0.4162 -0.5429 -0.1541
    1PC     C21 3541   2.921   5.111   6.932 -0.6850 -0.0614 -0.2936
    1PC     O22 3542   3.043   5.129   6.920 -0.1931  0.3932 -0.6224
    1OL     C12 3543   2.821   5.222   6.941 -0.4048 -0.1620 -0.3638
    1OL     H2R 3544   2.864   5.294   7.011  0.0818 -0.1320 -0.6882
    1OL     H2S 3545   2.732   5.175   6.983  0.7832  0.0063  2.5635
    1OL     C13 3546   2.781   5.287   6.806 -0.4406  0.1592 -0.2382
    1OL     H3R 3547   2.698   5.356   6.821 -0.0750  0.5447  0.0309
    1OL     H3S 3548   2.747   5.202   6.747 -0.7749 -2.0942  2.9651
    1OL     C14 3549   2.905   5.343   6.733  0.5233 -0.2807 -0.4306
    1OL     H4R 3550   2.983   5.266   6.725  0.3639 -0.8601  2.5558
    1OL     H4S 3551   2.944   5.422   6.797 -0.3205 -0.9679  0.9685
    1OL     C15 3552   2.863   5.412   6.598  0.8028  0.5042 -0.0492
    1OL     H5R 3553   2.776   5.475   6.621 -0.7576 -1.6312  0.2493
    1OL     H5S 3554   2.817   5.344   6.526 -1.0453  2.0133 -0.4004
    1OL     C16 3555   2.973   5.496   6.523  0.4600  0.1608  0.8906
    1OL     H6R 3556   2.913   5.544   6.446  0.0026  0.0497  1.1749
    1OL     H6S 3557   3.048   5.428   6.481  0.3236 -0.0355  0.9634
    1OL     C17 3558   3.029   5.614   6.603 -0.0859  0.3511  0.8859
    1OL     H7R 3559   3.082   5.574   6.690 -1.3830 -2.1698  0.6005
    1OL     H7S 3560   2.952   5.685   6.633  2.1501  2.7849  1.2218
    1OL     C18 3561   3.138   5.685   6.513  1.4769  0.3701  0.5972
    1OL     H8R 3562   3.166   5.774   6.572  0.6716  1.0737 -0.0568
    1OL     H8S 3563   3.089   5.717   6.421 -0.4467 -0.2499  1.3601
    1OL     C19 3564   3.253   5.598   6.481  0.1957 -0.3157 -0.2215
    1OL     H9R 3565   3.302   5.558   6.570  0.3217  2.2584  0.9452
    1OL    C110 3566   3.288   5.557   6.359 -0.6638  0.7198 -0.1865
    1OL    H10R 3567   3.371   5.487   6.347  0.6144  2.0442  0.6257
    1OL    C111 3568   3.234   5.599   6.230  0.6919 -0.3063  0.0978
    1OL    H11R 3569   3.298   5.632   6.149 -1.2515  1.2511 -0.8837
    1OL    H11S 3570   3.160   5.679   6.239 -0.8141 -1.5454 -0.6625
    1OL    C112 3571   3.167   5.476   6.158 -0.2133 -0.5950 -0.8497
    1OL    H12R 3572   3.109   5.421   6.233 -0.7967  1.4088  0.2499
    1OL    H12S 3573   3.243   5.419   6.105 -0.7301 -2.4237  0.2939
    1OL    C113 3574   3.079   5.513   6.038  0.3836  0.4667  0.6376
    1OL    H13R 3575   3.065   5.427   5.972  0.7160 -1.5644  3.0839
    1OL    H13S 3576   3.115   5.597   5.978  0.5499 -1.3534 -2.0053
    1OL    C114 3577   2.936   5.536   6.090 -0.0855 -0.5344  0.4170
    1OL    H14R 3578   2.946   5.600   6.178  0.4545  1.3537 -0.9593
    1OL    H14S 3579   2.902   5.440   6.130 -0.0552 -0.8438 -0.2828
    1OL    C115 3580   2.838   5.575   5.986 -0.1932  0.3196  0.7208
    1OL    H15R 3581   2.845   5.498   5.908 -1.6273 -0.5162  1.3729
    1OL    H15S 3582   2.863   5.672   5.943 -1.8675 -0.0539 -1.2620
    1OL    C116 3583   2.694   5.604   6.036 -0.2960 -0.3534  0.0111
    1OL    H16R 3584   2.632   5.631   5.951  1.0476  1.9283 -0.3242
    1OL    H16S 3585   2.698   5.696   6.094  2.2186 -1.5597  1.9723
    1OL    C117 3586   2.625   5.486   6.110 -0.1289  0.1245  0.2795
    1OL    H17R 3587   2.677   5.466   6.204  2.7738 -1.3966 -1.5144
    1OL    H17S 3588   2.646   5.392   6.058  2.1754  1.7811 -2.0547
    1OL    C118 3589   2.475   5.508   6.149 -0.4049 -0.2247  0.1257
    1OL    H18R 3590   2.450   5.446   6.235 -3.7656 -1.4565 -1.5605
    1OL    H18S 3591   2.410   5.472   6.068  3.1800 -1.7090 -2.3745
    1OL    H18T 3592   2.451   5.608   6.185  1.8887  0.1878  0.6726
    1PA    C116 3593   1.045   2.721   4.946  0.7551 -0.1533  0.3855
    1PA    H16R 3594   1.077   2.814   4.898  1.4552  0.2495  1.5732
    1PA    H16S 3595   0.939   2.713   4.971  0.6659 -1.3600 -0.2843
    1PA    H16T 3596   1.090   2.644   4.883  2.9599  0.6174  0.9078
    1PA    C115 3597   1.116   2.688   5.074 -0.3383  0.0226 -0.3579
    1PA    H15R 3598   1.222   2.676   5.050  0.2234 -1.7110  2.5930
    1PA    H15S 3599   1.117   2.769   5.147  1.0545 -0.1100 -0.2053
    1PA    C114 3600   1.084   2.551   5.133  0.1673  0.3155 -0.4843
    1PA    H14R 3601   0.980   2.556   5.167  0.1055 -0.5872 -0.5121
    1PA    H14S 3602   1.083   2.484   5.047  1.6531  1.0343 -1.0977
    1PA    C113 3603   1.172   2.500   5.250 -0.1356  0.0847 -0.3033
    1PA    H13R 3604   1.161   2.392   5.266  0.0421  0.0992 -0.0739
    1PA    H13S 3605   1.279   2.518   5.234 -0.2567  0.4725 -0.6691
    1PA    C112 3606   1.129   2.560   5.383  0.8195 -0.0609  0.0396
    1PA    H12R 3607   1.170   2.661   5.372 -0.9450  0.6381 -0.5358
    1PA    H12S 3608   1.021   2.562   5.397  0.9149 -0.6073  0.9116
    1PA    C111 3609   1.203   2.500   5.508 -0.2274 -0.4087 -0.0977
    1PA    H11R 3610   1.308   2.509   5.479 -0.2775  0.0731 -0.1409
    1PA    H11S 3611   1.195   2.563   5.598  0.0320 -1.7950  0.9236
    1PA    C110 3612   1.168   2.364   5.556  0.1639 -0.1533  0.5849
    1PA    H10R 3613   1.194   2.298   5.473  1.6532  2.0816 -0.8355
    1PA    H10S 3614   1.224   2.340   5.647  0.7573 -2.5228 -0.3290
    1PA     C19 3615   1.019   2.358   5.585 -0.6769 -0.2972 -0.4626
    1PA     H9R 3616   0.960   2.369   5.494  0.2229 -1.4140 -1.2087
    1PA     H9S 3617   0.992   2.259   5.624  0.9394 -1.4204 -2.0836
    1PA     C18 3618   0.961   2.469   5.674 -0.1279  0.5974 -0.0674
    1PA     H8R 3619   0.977   2.562   5.619 -0.8102  0.5043 -0.4267
    1PA     H8S 3620   0.852   2.467   5.682 -0.0978  0.3466  0.3040
    1PA     C17 3621   1.024   2.494   5.811  0.1798  0.8885 -0.2735
    1PA     H7R 3622   1.132   2.483   5.818 -0.0226 -0.9313  0.9281
    1PA     H7S 3623   1.003   2.597   5.839 -1.7757  0.3251  0.4812
    1PA     C16 3624   0.972   2.395   5.917 -0.3676  0.0061 -0.2521
    1PA     H6R 3625   0.972   2.292   5.882 -0.6095 -1.2054  2.9925
    1PA     H6S 3626   1.044   2.397   5.999 -1.4298  0.3915  0.6911
    1PA     C15 3627   0.836   2.442   5.968 -1.2003 -0.4171  0.1257
    1PA     H5R 3628   0.854   2.533   6.026  1.0299 -0.0841 -1.0209
    1PA     H5S 3629   0.776   2.456   5.878  0.3076 -0.2291 -0.8686
    1PA     C14 3630   0.748   2.342   6.042  1.0138 -0.0773  0.0386
    1PA     H4R 3631   0.662   2.397   6.081  0.8360 -0.5543  0.3329
    1PA     H4S 3632   0.705   2.263   5.980 -2.8071  1.2065  0.8083
    1PA     C13 3633   0.820   2.273   6.161 -0.0838 -0.2649 -0.4709
    1PA     H3R 3634   0.759   2.189   6.196  0.7807 -0.7711 -0.1494
    1PA     H3S 3635   0.916   2.230   6.132 -0.7156 -2.1469  0.0746
    1PA     C12 3636   0.849   2.375   6.280 -0.0603 -0.6247  0.1173
    1PA     H2R 3637   0.898   2.470   6.256 -1.8379 -0.2516 -2.4748
    1PA     H2S 3638   0.754   2.412   6.320  0.5117  1.4949 -0.3785
    1PC     C11 3639   0.917   2.307   6.391  0.3209  0.4164  0.5654
    1PC     O12 3640   1.001   2.223   6.392 -0.5843  0.4463  0.2317
    1PC     O11 3641   0.862   2.353   6.504  0.4482 -0.2135  0.8989
    1PC      C1 3642   0.924   2.323   6.626  0.6904  0.1963  0.1096
    1PC      HR 3643   0.837   2.341   6.691 -1.5623  2.1441 -3.1329
    1PC      HS 3644   0.948   2.217   6.637 -2.5732 -0.4302  3.1646
    1PC      C2 3645   1.047   2.407   6.657 -0.2799 -0.3275  0.1409
    1PC      HX 3646   1.125   2.379   6.586  0.5416 -0.0611  0.9105
    1PC      C3 3647   1.113   2.369   6.798 -0.2212  0.0160 -0.1077
    1PC      HA 3648   1.172   2.278   6.782 -0.7642 -0.5781  1.1440
    1PC      HB 3649   1.183   2.447   6.830  0.7582 -1.0796  0.4869
    1PC     O31 3650   1.010   2.353   6.895  0.5983 -0.2038  0.4678
    1PC     P31 3651   1.041   2.388   7.047 -0.1359  0.0916  0.2979
    1PC     O32 3652   1.016   2.540   7.075 -0.1077 -0.4071  0.8060
    1PC     C31 3653   1.095   2.640   7.010  0.1179 -0.3466 -0.4225
    1PC     H1A 3654   1.199   2.644   7.042  0.3586 -1.2812 -1.0714
    1PC     H1B 3655   1.091   2.628   6.901  0.2981  1.9640 -0.7393
    1PC     C32 3656   1.029   2.780   7.029 -0.1093 -0.7454 -0.3496
    1PC     H2A 3657   0.931   2.784   6.981 -0.0995  1.6670 -0.3196
    1PC     H2B 3658   1.017   2.791   7.137  0.7178  2.9279 -0.4824
    1PC     N31 3659   1.092   2.909   6.992  0.3044 -0.1724  0.0968
    1PC     C33 3660   1.109   2.908   6.848  0.0584  0.4390 -0.2715
    1PC     H3A 3661   1.153   3.000   6.808 -1.7502  1.1979 -0.6177
    1PC     H3B 3662   1.185   2.831   6.836  0.7090  0.9788  0.2942
    1PC     H3C 3663   1.015   2.886   6.798 -0.1252 -0.6697  0.5288
    1PC     C34 3664   0.999   3.015   7.039 -0.1689  0.6559 -0.0274
    1PC     H4A 3665   1.048   3.107   7.007 -0.5603  1.1104  0.6605
    1PC     H4B 3666   0.914   3.006   6.972  0.6171  1.4846 -1.1724
    1PC     H4C 3667   0.989   3.020   7.148  1.7401  1.0366  0.1587
    1PC     C35 3668   1.231   2.925   7.055  0.2510 -0.2817  0.0776
    1PC     H5A 3669   1.211   2.893   7.158 -3.2784  0.7846 -0.1609
    1PC     H5B 3670   1.254   3.031   7.057  0.5440 -0.3193 -0.9551
    1PC     H5C 3671   1.293   2.865   6.988  2.0950  1.9205 -0.2868
    1PC     O33 3672   0.948   2.309   7.128 -0.2883  0.7806  0.5783
    1PC     O34 3673   1.187   2.367   7.073 -0.0195 -0.3811  0.3246
    1PC     O21 3674   1.012   2.552   6.662  0.2188 -0.4439  0.1061
    1PC     C21 3675   1.003   2.615   6.543  0.0483 -0.3738 -0.0851
    1PC     O22 3676   1.045   2.573   6.440 -0.6001 -0.0802 -0.3123
    1OL     C12 3677   0.951   2.765   6.551  0.8002 -0.6100 -0.1485
    1OL     H2R 3678   1.011   2.831   6.614 -0.4729  0.0152  0.4595
    1OL     H2S 3679   0.848   2.764   6.587  0.5425  0.9813 -0.7776
    1OL     C13 3680   0.952   2.831   6.408 -0.2311 -0.3535  0.5749
    1OL     H3R 3681   0.903   2.763   6.338 -1.3833  1.8986 -0.8942
    1OL     H3S 3682   1.056   2.826   6.374  0.1309 -2.4527  1.7772
    1OL     C14 3683   0.896   2.973   6.394 -0.1085 -0.4489  0.0394
    1OL     H4R 3684   0.953   3.050   6.448  1.9555  1.4668 -4.3857
    1OL     H4S 3685   0.791   2.985   6.420 -0.7477 -2.6982 -1.2676
    1OL     C15 3686   0.902   3.015   6.241 -0.1334  0.1802 -0.4123
    1OL     H5R 3687   0.864   2.930   6.185 -0.5052 -0.6438  1.0494
    1OL     H5S 3688   1.003   3.051   6.219 -0.2484  2.0882  1.7424
    1OL     C16 3689   0.811   3.134   6.200  0.3740  0.3489 -0.6439
    1OL     H6R 3690   0.706   3.103   6.205  0.2209  1.0143  2.6152
    1OL     H6S 3691   0.828   3.154   6.095 -2.4547 -0.0484 -1.2691
    1OL     C17 3692   0.833   3.259   6.285 -0.5371 -0.1830  0.5073
    1OL     H7R 3693   0.939   3.284   6.279 -0.5144 -0.7055 -3.1093
    1OL     H7S 3694   0.814   3.236   6.390 -0.0136 -2.7651  0.1042
    1OL     C18 3695   0.759   3.380   6.221  0.2977  0.6525  0.3024
    1OL     H8R 3696   0.749   3.464   6.291 -2.3011  1.3400 -0.7454
    1OL     H8S 3697   0.652   3.364   6.205  0.5118 -2.2669  1.2956
    1OL     C19 3698   0.821   3.418   6.091 -0.2241 -0.0416  0.6830
    1OL     H9R 3699   0.929   3.421   6.090 -0.0775 -2.1001 -2.0524
    1OL    C110 3700   0.768   3.462   5.980  0.0527  0.3539  0.2210
    1OL    H10R 3701   0.837   3.490   5.901  0.7744 -1.0954  0.3019
    1OL    C111 3702   0.619   3.483   5.955  0.1470 -0.1071  0.1184
    1OL    H11R 3703   0.585   3.551   6.033 -0.5147 -0.5954  0.2652
    1OL    H11S 3704   0.571   3.387   5.974  1.6092 -0.8176  0.3834
    1OL    C112 3705   0.602   3.541   5.813 -0.4468  0.1963 -0.5785
    1OL    H12R 3706   0.640   3.468   5.741  0.8045  0.7492 -0.5081
    1OL    H12S 3707   0.671   3.624   5.798  2.4495 -1.8068  0.7965
    1OL    C113 3708   0.460   3.583   5.769  0.3343  0.3759  0.2487
    1OL    H13R 3709   0.433   3.668   5.832 -0.7444 -0.7741  1.4078
    1OL    H13S 3710   0.390   3.503   5.796 -0.1342  0.9463  0.7406
    1OL    C114 3711   0.438   3.617   5.618  0.2956  0.0073 -0.2079
    1OL    H14R 3712   0.335   3.649   5.603  0.9619  1.7411 -1.4113
    1OL    H14S 3713   0.462   3.534   5.551  2.0768  0.0554  0.3033
    1OL    C115 3714   0.521   3.730   5.564 -0.6118  0.0354  0.9010
    1OL    H15R 3715   0.628   3.707   5.563 -0.4756  0.5022  2.2811
    1OL    H15S 3716   0.526   3.813   5.635  1.3224 -1.7760  3.0891
    1OL    C116 3717   0.471   3.790   5.429 -0.1247 -0.3057 -0.0460
    1OL    H16R 3718   0.549   3.852   5.384  1.3454 -2.2049 -0.2170
    1OL    H16S 3719   0.384   3.853   5.452 -1.0060 -1.1213 -1.0957
    1OL    C117 3720   0.419   3.688   5.321  0.1327  0.1415 -0.5052
    1OL    H17R 3721   0.326   3.643   5.357 -0.2599  0.0665 -1.5650
    1OL    H17S 3722   0.498   3.614   5.305  2.1816  1.9398  0.8168
    1OL    C118 3723   0.395   3.748   5.191  0.8280 -0.5481  0.6258
    1OL    H18R 3724   0.425   3.681   5.110 -0.4019 -0.6560  0.2410
    1OL    H18S 3725   0.463   3.833   5.181  0.5235 -0.2611  0.9706
    1OL    H18T 3726   0.293   3.786   5.184  0.6421 -1.1638 -0.2818
    1PA    C116 3727   1.676   0.968   5.299 -0.1754 -0.5712  0.9697
    1PA    H16R 3728   1.681   0.931   5.197  0.0384 -2.8778  1.7536
    1PA    H16S 3729   1.749   1.048   5.310  0.8665 -1.4055  0.2603
    1PA    H16T 3730   1.572   1.001   5.304  0.2415  1.4241 -1.4733
    1PA    C115 3731   1.698   0.858   5.400 -0.0845  0.1814 -0.4431
    1PA    H15R 3732   1.663   0.886   5.500  2.3030 -0.5241  0.6633
    1PA    H15S 3733   1.632   0.781   5.360 -1.0117  1.0661 -0.6623
    1PA    C114 3734   1.848   0.808   5.405 -0.2272  0.3151  0.1029
    1PA    H14R 3735   1.863   0.772   5.303 -2.7769 -0.3873 -0.1033
    1PA    H14S 3736   1.916   0.888   5.432  0.5593  0.2587 -1.6006
    1PA    C113 3737   1.841   0.693   5.505 -0.2702  0.4117 -0.1508
    1PA    H13R 3738   1.804   0.733   5.600 -0.9459 -0.3706 -0.0706
    1PA    H13S 3739   1.764   0.624   5.471  0.2959 -0.0314 -0.5414
    1PA    C112 3740   1.976   0.621   5.529  0.4050 -0.0795 -0.0553
    1PA    H12R 3741   2.016   0.592   5.431  0.7883 -1.0391  0.3728
    1PA    H12S 3742   2.049   0.686   5.576 -0.0364  0.4390 -0.0821
    1PA    C111 3743   1.954   0.492   5.611 -0.7213 -0.1361  1.0414
    1PA    H11R 3744   1.856   0.454   5.584 -0.1029 -0.8837 -0.1972
    1PA    H11S 3745   2.031   0.416   5.596 -2.0885 -1.2990 -0.3998
    1PA    C110 3746   1.947   0.518   5.758  0.8680 -0.4364  0.5718
    1PA    H10R 3747   2.003   0.607   5.787 -2.9183  2.0434  1.0865
    1PA    H10S 3748   1.845   0.547   5.786  0.8207 -1.1429  1.1435
    1PA     C19 3749   2.002   0.410   5.853  0.0903  0.0995 -0.7303
    1PA     H9R 3750   1.951   0.315   5.834 -2.6887  1.2517  0.4507
    1PA     H9S 3751   2.110   0.393   5.845  0.4391  1.1562  1.1219
    1PA     C18 3752   1.987   0.447   6.002 -0.0641 -0.6760 -0.8069
    1PA     H8R 3753   2.081   0.421   6.050  0.3677  0.9292 -0.7345
    1PA     H8S 3754   1.977   0.555   6.002 -1.2963 -0.7666 -1.4005
    1PA     C17 3755   1.871   0.387   6.082 -0.0942 -0.4060  0.5082
    1PA     H7R 3756   1.777   0.416   6.035  0.3793 -0.8120 -0.7473
    1PA     H7S 3757   1.889   0.279   6.082  0.7046 -0.3085 -1.2445
    1PA     C16 3758   1.873   0.430   6.232  0.9351  0.3591  0.1872
    1PA     H6R 3759   1.959   0.380   6.276  0.3562 -0.9599 -0.1387
    1PA     H6S 3760   1.884   0.535   6.261  1.6489  0.0570  1.0409
    1PA     C15 3761   1.753   0.362   6.310 -0.1064  0.3324 -0.6830
    1PA     H5R 3762   1.658   0.415   6.302 -0.1736  0.8972  2.5714
    1PA     H5S 3763   1.747   0.255   6.286  0.1187 -0.5513  2.7079
    1PA     C14 3764   1.782   0.371   6.461  0.3455  0.4641 -0.6011
    1PA     H4R 3765   1.874   0.318   6.489 -1.2878 -1.2077  2.0404
    1PA     H4S 3766   1.779   0.476   6.491 -1.9049 -0.1733  1.8386
    1PA     C13 3767   1.669   0.285   6.532  0.3108  0.2680 -0.5932
    1PA     H3R 3768   1.568   0.315   6.503 -0.6025 -1.2427  0.8423
    1PA     H3S 3769   1.684   0.184   6.495  0.8030 -0.5021  1.5724
    1PA     C12 3770   1.668   0.280   6.692 -0.0899 -0.3280 -0.5922
    1PA     H2R 3771   1.664   0.385   6.723  1.3707  0.4599 -2.7582
    1PA     H2S 3772   1.579   0.233   6.732  0.8671  0.0377  2.2386
    1PC     C11 3773   1.796   0.217   6.752  0.3563  0.5839  0.6132
    1PC     O12 3774   1.860   0.121   6.712  0.4159  0.4400  0.1000
    1PC     O11 3775   1.841   0.287   6.858 -0.1869 -0.1466 -0.1790
    1PC      C1 3776   1.975   0.253   6.916  0.1329  0.1938 -0.5131
    1PC      HR 3777   1.968   0.257   7.025  2.1502 -2.3458 -0.2027
    1PC      HS 3778   1.999   0.149   6.893  0.6613  0.3928 -0.8870
    1PC      C2 3779   2.086   0.342   6.868 -0.0745 -0.7494  0.3967
    1PC      HX 3780   2.179   0.317   6.919  0.1685  0.4104  0.5509
    1PC      C3 3781   2.044   0.493   6.914  1.3724 -0.0075 -0.8890
    1PC      HA 3782   2.117   0.569   6.886 -0.4726  1.8020 -0.9954
    1PC      HB 3783   1.947   0.520   6.872  1.4991  1.2104 -0.4427
    1PC     O31 3784   2.020   0.499   7.056 -0.9820 -0.2110  0.0765
    1PC     P31 3785   1.993   0.631   7.131  0.2900 -0.0753 -0.3572
    1PC     O32 3786   1.838   0.655   7.105  0.2454  0.2368 -0.4133
    1PC     C31 3787   1.728   0.568   7.131  0.3887  0.0228  0.3240
    1PC     H1A 3788   1.645   0.585   7.062  2.1490  1.7901 -1.4641
    1PC     H1B 3789   1.768   0.468   7.114 -0.0380  0.0036 -0.6126
    1PC     C32 3790   1.679   0.581   7.281 -0.3565 -0.1638  0.2358
    1PC     H2A 3791   1.627   0.489   7.308  0.8972 -1.0036 -0.1489
    1PC     H2B 3792   1.760   0.564   7.352  0.0926  0.8578 -0.0144
    1PC     N31 3793   1.604   0.705   7.330 -0.0839  0.4842 -0.5490
    1PC     C33 3794   1.569   0.698   7.475  0.2653  0.4392  0.2277
    1PC     H3A 3795   1.547   0.800   7.508  1.0496  0.6239  0.1972
    1PC     H3B 3796   1.475   0.644   7.490  0.8538 -0.3495  1.2427
    1PC     H3C 3797   1.653   0.651   7.527 -0.5457  0.2768  1.4561
    1PC     C34 3798   1.693   0.823   7.311  0.2967 -0.0333 -0.4051
    1PC     H4A 3799   1.628   0.903   7.348 -0.0456 -0.8790  0.9034
    1PC     H4B 3800   1.785   0.811   7.369 -1.0833 -0.4105  1.8408
    1PC     H4C 3801   1.715   0.824   7.204  0.8525 -1.3441 -0.3254
    1PC     C35 3802   1.481   0.732   7.251 -0.3558 -0.5690  0.1724
    1PC     H5A 3803   1.424   0.640   7.258  0.0375 -0.8623 -0.3733
    1PC     H5B 3804   1.502   0.760   7.147 -2.7107  1.9111  0.2538
    1PC     H5C 3805   1.432   0.815   7.301  0.5985  0.6888 -0.8882
    1PC     O33 3806   2.011   0.609   7.272  0.4331  0.3824  0.2582
    1PC     O34 3807   2.064   0.741   7.061  0.8119 -0.5057 -0.4474
    1PC     O21 3808   2.095   0.351   6.724 -0.3890  0.3976 -0.6359
    1PC     C21 3809   2.156   0.242   6.672  0.4710  0.1650 -0.1447
    1PC     O22 3810   2.224   0.157   6.730  0.1098 -0.4689  0.4519
    1OL     C12 3811   2.133   0.253   6.521 -0.1775  0.1840  0.2139
    1OL     H2R 3812   2.108   0.357   6.502 -1.9914 -0.3434 -0.5049
    1OL     H2S 3813   2.040   0.205   6.492 -0.7411 -0.6246  3.0868
    1OL     C13 3814   2.252   0.202   6.436  0.3278 -0.2862 -0.0923
    1OL     H3R 3815   2.351   0.235   6.470  0.9573 -1.8630 -0.3170
    1OL     H3S 3816   2.245   0.254   6.340 -1.0315  0.8262  0.5722
    1OL     C14 3817   2.264   0.052   6.415  0.3698  0.3576  0.3626
    1OL     H4R 3818   2.266   0.010   6.516 -3.2427  1.6073  1.0812
    1OL     H4S 3819   2.355   0.015   6.365 -0.9809 -0.7201 -1.4238
    1OL     C15 3820   2.146  -0.002   6.340 -0.2355 -0.1998  0.5097
    1OL     H5R 3821   2.134   0.041   6.240 -0.2333 -0.6422  0.3160
    1OL     H5S 3822   2.047   0.023   6.377  0.5183  1.7560  1.3475
    1OL     C16 3823   2.148  -0.153   6.321  0.6985  0.5538  0.1443
    1OL     H6R 3824   2.124  -0.209   6.411  1.8416  1.2066  0.8660
    1OL     H6S 3825   2.243  -0.180   6.275  1.4029  1.0818  1.2654
    1OL     C17 3826   2.032  -0.199   6.233  0.6892 -0.3158 -1.0273
    1OL     H7R 3827   2.025  -0.137   6.143  0.3563  0.7019 -0.3266
    1OL     H7S 3828   1.948  -0.160   6.291  2.0047  1.9074 -0.5148
    1OL     C18 3829   2.027  -0.345   6.206  0.6653 -0.3597  0.4683
    1OL     H8R 3830   2.047  -0.408   6.293 -0.6936  2.3936  2.9306
    1OL     H8S 3831   2.112  -0.352   6.139  0.8151 -1.6415  0.7550
    1OL     C19 3832   1.895  -0.381   6.141 -0.1454  0.4674  0.2635
    1OL     H9R 3833   1.815  -0.376   6.214 -0.3537 -1.1079  0.1606
    1OL    C110 3834   1.881  -0.413   6.012 -0.3842  0.1170 -0.1153
    1OL    H10R 3835   1.783  -0.445   5.978  0.5129 -1.8146 -1.0157
    1OL    C111 3836   1.990  -0.442   5.914 -0.5340  0.1625  1.4251
    1OL    H11R 3837   1.987  -0.549   5.892  2.9897  0.4191 -1.0957
    1OL    H11S 3838   2.092  -0.413   5.939  0.6388 -0.4866 -2.0452
    1OL    C112 3839   1.943  -0.369   5.784  0.7108  0.5093 -0.3571
    1OL    H12R 3840   1.932  -0.264   5.814  1.3517  0.8936 -1.4070
    1OL    H12S 3841   1.848  -0.406   5.747  1.5093 -1.1512 -0.8288
    1OL    C113 3842   2.043  -0.406   5.682 -0.1989  1.0596 -0.5122
    1OL    H13R 3843   2.046  -0.515   5.675 -0.4009  0.7119  3.1052
    1OL    H13S 3844   2.144  -0.378   5.712  0.2939 -1.5421  0.5739
    1OL    C114 3845   2.007  -0.350   5.539 -0.2205 -0.5823 -0.5598
    1OL    H14R 3846   2.015  -0.242   5.549  0.4675 -0.8695  3.3947
    1OL    H14S 3847   1.908  -0.387   5.511 -0.6760  0.0981  0.1048
    1OL    C115 3848   2.097  -0.402   5.437 -0.6447 -0.4199  0.0829
    1OL    H15R 3849   2.049  -0.386   5.340  0.5463  0.8716 -0.3382
    1OL    H15S 3850   2.115  -0.508   5.453  1.7927 -0.2773 -1.1462
    1OL    C116 3851   2.229  -0.320   5.428 -0.3328 -0.2259 -0.3439
    1OL    H16R 3852   2.313  -0.387   5.407 -0.6574 -0.4401 -0.9956
    1OL    H16S 3853   2.252  -0.277   5.526  0.0171  0.5840 -0.7740
    1OL    C117 3854   2.224  -0.215   5.316  0.3763  0.2447 -0.0476
    1OL    H17R 3855   2.207  -0.259   5.218  3.0574  0.6269 -0.7773
    1OL    H17S 3856   2.327  -0.178   5.317  0.6537 -0.4716 -0.7324
    1OL    C118 3857   2.124  -0.104   5.354 -0.8326 -0.3266 -0.0018
    1OL    H18R 3858   2.133  -0.077   5.459  0.8375 -2.4105  0.4494
    1OL    H18S 3859   2.022  -0.138   5.339 -1.0037  0.3720 -0.4840
    1OL    H18T 3860   2.145  -0.011   5.300  0.4641 -0.7008 -0.1752
    1PA    C116 3861   0.399   1.925   5.111 -0.0173  0.3601 -0.4455
    1PA    H16R 3862   0.296   1.957   5.128 -0.4253 -0.5089 -1.1983
    1PA    H16S 3863   0.421   1.909   5.005 -0.5871  3.6217 -1.1817
    1PA    H16T 3864   0.458   2.011   5.145 -1.8285  0.6838  2.2041
    1PA    C115 3865   0.432   1.794   5.191  0.0980  0.7518  0.6700
    1PA    H15R 3866   0.353   1.722   5.171 -1.0130  2.0707  0.0896
    1PA    H15S 3867   0.530   1.761   5.157  0.3261  1.2419  0.8469
    1PA    C114 3868   0.435   1.814   5.343 -0.1797  0.7063  0.1810
    1PA    H14R 3869   0.493   1.731   5.385 -0.0233  1.2044  0.9716
    1PA    H14S 3870   0.474   1.909   5.379  0.4949  0.3702  0.3547
    1PA    C113 3871   0.297   1.804   5.407 -0.2575  0.1406  0.3518
    1PA    H13R 3872   0.237   1.884   5.364 -0.1799 -0.6577 -1.3240
    1PA    H13S 3873   0.245   1.712   5.378 -0.9534  0.5151  0.3925
    1PA    C112 3874   0.300   1.820   5.563  0.3606  0.3632 -0.0887
    1PA    H12R 3875   0.390   1.770   5.600  0.1895  0.4600  0.4628
    1PA    H12S 3876   0.312   1.928   5.580 -1.1937  0.3817  1.1285
    1PA    C111 3877   0.177   1.765   5.634  0.1151  0.4132  0.3409
    1PA    H11R 3878   0.086   1.812   5.596  0.0886  0.0377 -0.0681
    1PA    H11S 3879   0.168   1.657   5.627  0.4956  0.3921  0.1431
    1PA    C110 3880   0.185   1.795   5.788 -0.1978  0.0065  0.2311
    1PA    H10R 3881   0.260   1.736   5.841  2.6011  2.0713 -1.1707
    1PA    H10S 3882   0.216   1.898   5.807 -0.9186  0.3651 -0.4990
    1PA     C19 3883   0.053   1.754   5.852 -0.7169 -0.3986 -0.2381
    1PA     H9R 3884  -0.019   1.832   5.828 -0.7491 -0.2409  0.3425
    1PA     H9S 3885   0.018   1.660   5.810 -0.6397 -0.5941  0.1336
    1PA     C18 3886   0.050   1.740   6.007  0.2653 -0.5194  0.4835
    1PA     H8R 3887   0.087   1.834   6.047 -0.8097  0.0331  0.2089
    1PA     H8S 3888  -0.052   1.711   6.034  0.0055  0.7772  0.9330
    1PA     C17 3889   0.153   1.626   6.048 -0.4267  0.3266  0.3259
    1PA     H7R 3890   0.135   1.546   5.976 -2.1588  0.5059  0.5187
    1PA     H7S 3891   0.250   1.667   6.019 -1.2894  2.2920  0.0542
    1PA     C16 3892   0.141   1.586   6.196 -0.2480  0.1408  0.6528
    1PA     H6R 3893   0.126   1.683   6.242 -0.2626  0.5400 -0.1659
    1PA     H6S 3894   0.050   1.529   6.216 -0.0337 -0.0475  1.1007
    1PA     C15 3895   0.259   1.507   6.247 -0.2238  0.4271 -0.1276
    1PA     H5R 3896   0.265   1.420   6.181 -1.0394  1.3567 -1.4683
    1PA     H5S 3897   0.347   1.571   6.239  0.2237  0.5902  3.9796
    1PA     C14 3898   0.250   1.457   6.392  0.9217 -0.4968  0.0865
    1PA     H4R 3899   0.160   1.396   6.406 -1.0306  2.1766  0.0138
    1PA     H4S 3900   0.331   1.385   6.404 -0.3523 -2.0592 -0.3294
    1PA     C13 3901   0.236   1.560   6.503  0.1969 -0.2200 -0.0694
    1PA     H3R 3902   0.322   1.627   6.503 -1.1835  1.6630 -0.7344
    1PA     H3S 3903   0.143   1.611   6.475 -1.1234 -3.0275 -1.1344
    1PA     C12 3904   0.218   1.503   6.648  0.2302  0.7521  0.1856
    1PA     H2R 3905   0.160   1.410   6.650  0.6306  0.5055  1.8146
    1PA     H2S 3906   0.317   1.481   6.688 -0.2705  0.2658  1.1936
    1PC     C11 3907   0.165   1.608   6.747  0.0581 -0.3736 -0.5393
    1PC     O12 3908   0.120   1.720   6.712 -0.6184  0.0266  0.1051
    1PC     O11 3909   0.169   1.560   6.870  0.0575 -0.5200  0.2672
    1PC      C1 3910   0.138   1.654   6.970 -0.0622 -0.4428 -0.2489
    1PC      HR 3911   0.206   1.639   7.054  0.5508 -0.6292 -0.7755
    1PC      HS 3912   0.149   1.760   6.947 -1.3109  0.0272  1.1506
    1PC      C2 3913  -0.010   1.642   7.016 -0.1141  0.7126  0.2961
    1PC      HX 3914  -0.034   1.715   7.093  0.4953  1.1029  0.1229
    1PC      C3 3915  -0.040   1.504   7.077 -0.1724  0.4223  0.0768
    1PC      HA 3916  -0.146   1.488   7.059 -0.2892 -0.4526  1.4124
    1PC      HB 3917   0.010   1.430   7.015 -1.2290  1.1627 -1.7423
    1PC     O31 3918  -0.008   1.494   7.213 -0.5017 -0.2359 -0.3986
    1PC     P31 3919  -0.103   1.516   7.329  0.1882  0.2315 -0.3686
    1PC     O32 3920  -0.144   1.373   7.384  0.3496  0.1196  0.5294
    1PC     C31 3921  -0.199   1.274   7.285  0.0985  0.3706 -0.2238
    1PC     H1A 3922  -0.296   1.312   7.255 -0.1110  1.6283  1.8113
    1PC     H1B 3923  -0.128   1.246   7.206 -0.8951 -0.5259 -0.8177
    1PC     C32 3924  -0.221   1.146   7.370 -0.0328  0.7043 -0.1284
    1PC     H2A 3925  -0.238   1.057   7.310 -0.3467  1.2973 -0.9404
    1PC     H2B 3926  -0.129   1.135   7.427  0.9856  0.5867 -1.7306
    1PC     N31 3927  -0.336   1.156   7.473  0.2741  0.1084  0.0246
    1PC     C33 3928  -0.286   1.243   7.583 -0.3309 -0.0030 -0.6110
    1PC     H3A 3929  -0.180   1.223   7.602  0.6769  3.4412 -1.7637
    1PC     H3B 3930  -0.286   1.350   7.558 -1.3606  0.4100  1.0384
    1PC     H3C 3931  -0.351   1.223   7.668 -0.7228 -0.0163 -0.9130
    1PC     C34 3932  -0.477   1.197   7.422 -0.4730 -0.2578  0.3456
    1PC     H4A 3933  -0.549   1.183   7.502 -1.3160 -1.5668 -0.5907
    1PC     H4B 3934  -0.486   1.304   7.406 -1.5725 -0.0743  1.9639
    1PC     H4C 3935  -0.509   1.142   7.333 -1.7948  0.0913  0.5891
    1PC     C35 3936  -0.365   1.021   7.531 -0.0137  0.4469 -0.1729
    1PC     H5A 3937  -0.432   1.025   7.617  0.9033 -1.1978  0.6687
    1PC     H5B 3938  -0.268   0.985   7.564  0.4522  2.3368  0.6388
    1PC     H5C 3939  -0.407   0.959   7.452 -0.4856 -0.7793  0.9948
    1PC     O33 3940  -0.033   1.580   7.439  0.1152 -0.0211 -0.1613
    1PC     O34 3941  -0.222   1.590   7.274  0.0126 -0.2878  0.3180
    1PC     O21 3942  -0.104   1.646   6.901  0.5961 -0.2379 -0.7911
    1PC     C21 3943  -0.135   1.771   6.862 -0.8828  0.3034  0.8837
    1PC     O22 3944  -0.118   1.871   6.929 -0.4544 -0.2070 -0.3534
    1OL     C12 3945  -0.212   1.781   6.731 -0.0571 -0.0319 -0.2430
    1OL     H2R 3946  -0.141   1.761   6.649 -1.2300  0.7233 -1.4767
    1OL     H2S 3947  -0.258   1.878   6.714 -0.9339 -0.6932 -1.8947
    1OL     C13 3948  -0.319   1.658   6.726 -0.5734 -0.3228  0.0139
    1OL     H3R 3949  -0.394   1.668   6.805  0.5035 -0.1267  1.0225
    1OL     H3S 3950  -0.270   1.562   6.743  0.9949  0.0338 -2.0773
    1OL     C14 3951  -0.392   1.654   6.594  0.2713 -0.6868  0.0804
    1OL     H4R 3952  -0.391   1.758   6.561 -0.3873 -1.0218 -1.0316
    1OL     H4S 3953  -0.497   1.627   6.605  0.0178 -0.3127 -1.2533
    1OL     C15 3954  -0.320   1.574   6.484 -0.3642  0.8035  1.0009
    1OL     H5R 3955  -0.275   1.481   6.520  0.3603  0.3708 -0.9260
    1OL     H5S 3956  -0.240   1.630   6.437 -1.8312  0.7864 -1.7572
    1OL     C16 3957  -0.421   1.552   6.368  0.8899 -0.3990  0.0573
    1OL     H6R 3958  -0.493   1.475   6.395  1.4090  0.0154  2.9668
    1OL     H6S 3959  -0.367   1.516   6.280 -1.4097 -1.6374 -0.9161
    1OL     C17 3960  -0.492   1.686   6.326  0.0126 -0.6438  0.8666
    1OL     H7R 3961  -0.558   1.727   6.403  0.2268 -1.8130  1.7031
    1OL     H7S 3962  -0.558   1.675   6.239 -0.6630 -0.6048  1.3661
    1OL     C18 3963  -0.385   1.788   6.274  0.5936 -0.7745  0.6335
    1OL     H8R 3964  -0.338   1.731   6.194  0.2581 -0.5684  0.2914
    1OL     H8S 3965  -0.312   1.820   6.349  0.5691  0.1800  0.2579
    1OL     C19 3966  -0.449   1.914   6.209  0.1323  0.5061  0.5050
    1OL     H9R 3967  -0.518   1.964   6.277 -0.4192 -0.0158  0.3397
    1OL    C110 3968  -0.411   1.970   6.095 -1.1579  0.2131 -0.5599
    1OL    H10R 3969  -0.447   2.069   6.071 -0.4395  0.7650  0.5611
    1OL    C111 3970  -0.287   1.934   6.017 -0.5627 -0.4167 -0.3240
    1OL    H11R 3971  -0.304   1.856   5.942 -0.2684 -1.3962  0.6043
    1OL    H11S 3972  -0.210   1.900   6.086 -1.5824  0.5688  1.3597
    1OL    C112 3973  -0.220   2.049   5.938  0.2556  0.2320  0.4225
    1OL    H12R 3974  -0.115   2.028   5.958  0.3932  1.0084  0.5572
    1OL    H12S 3975  -0.257   2.142   5.984 -2.4370 -1.0977  1.1372
    1OL    C113 3976  -0.253   2.050   5.793  0.1001  0.5436 -0.4662
    1OL    H13R 3977  -0.362   2.056   5.785  0.0097  1.2894  0.9826
    1OL    H13S 3978  -0.223   1.955   5.749 -1.7758  0.4499 -1.7011
    1OL    C114 3979  -0.181   2.156   5.721 -0.7208 -0.0337 -0.2455
    1OL    H14R 3980  -0.174   2.247   5.781  3.3326  0.1320 -0.6934
    1OL    H14S 3981  -0.226   2.172   5.622 -2.1038  0.8006  0.4932
    1OL    C115 3982  -0.033   2.126   5.706  0.2214  0.1705  0.1739
    1OL    H15R 3983  -0.025   2.035   5.647 -4.0502  0.8296 -1.8198
    1OL    H15S 3984   0.008   2.110   5.806 -0.3572  1.2826  0.6198
    1OL    C116 3985   0.046   2.239   5.640  0.2244  0.4369  0.3518
    1OL    H16R 3986   0.149   2.206   5.649 -0.2136 -0.6353  1.7885
    1OL    H16S 3987   0.034   2.331   5.698  0.9139  0.5897  0.2518
    1OL    C117 3988   0.002   2.265   5.496 -0.4184  0.3240 -0.7611
    1OL    H17R 3989   0.075   2.339   5.462  0.0246  1.6756  2.6643
    1OL    H17S 3990  -0.103   2.293   5.486 -0.2664  1.2949  0.1879
    1OL    C118 3991   0.010   2.145   5.407  0.0527 -0.5263 -0.5022
    1OL    H18R 3992   0.103   2.092   5.426 -0.4117 -1.4130 -0.6454
    1OL    H18S 3993  -0.008   2.172   5.303 -1.7180 -0.4814 -0.2263
    1OL    H18T 3994  -0.077   2.080   5.423 -2.0116  2.0327 -0.5879
    1PA    C116 3995   0.707   4.084   5.199 -0.4988  0.2055  0.2795
    1PA    H16R 3996   0.614   4.118   5.152 -0.3644  0.9693  0.5515
    1PA    H16S 3997   0.690   4.049   5.301 -0.5720  1.5336  0.7457
    1PA    H16T 3998   0.751   4.004   5.139  3.3505  1.4024  1.2454
    1PA    C115 3999   0.808   4.205   5.210 -0.1008  0.0091 -0.6983
    1PA    H15R 4000   0.905   4.168   5.242  0.4717  0.1270 -2.2203
    1PA    H15S 4001   0.821   4.236   5.106 -1.1415 -0.4867 -0.9872
    1PA    C114 4002   0.746   4.313   5.301  0.0462 -0.2261 -0.2766
    1PA    H14R 4003   0.647   4.333   5.259  0.5130  0.0236 -1.2894
    1PA    H14S 4004   0.737   4.290   5.408 -0.8346 -0.6009 -0.4172
    1PA    C113 4005   0.835   4.439   5.308 -0.4408  0.5601  0.0535
    1PA    H13R 4006   0.941   4.411   5.307 -0.2133  1.2921 -1.8534
    1PA    H13S 4007   0.822   4.487   5.211  0.2771 -3.4159 -2.2651
    1PA    C112 4008   0.794   4.529   5.430 -0.0144 -0.4479  0.7601
    1PA    H12R 4009   0.686   4.543   5.433 -0.1386 -0.3180 -1.8878
    1PA    H12S 4010   0.834   4.495   5.526 -1.3641  1.3423  2.0163
    1PA    C111 4011   0.857   4.668   5.402 -0.5513  0.1203 -0.2772
    1PA    H11R 4012   0.965   4.660   5.386 -0.7373 -2.4170 -0.6026
    1PA    H11S 4013   0.819   4.702   5.305 -0.5221  0.2213 -0.2531
    1PA    C110 4014   0.833   4.773   5.510 -0.3709  0.7350  0.8393
    1PA    H10R 4015   0.890   4.863   5.488 -0.7648  0.6094 -0.9097
    1PA    H10S 4016   0.727   4.792   5.524 -0.4871  0.6917  0.0874
    1PA     C19 4017   0.873   4.712   5.643 -0.0384  0.0645 -0.5307
    1PA     H9R 4018   0.797   4.643   5.680 -0.0555  0.8773  1.0561
    1PA     H9S 4019   0.969   4.662   5.643  1.0360  1.9810  0.6945
    1PA     C18 4020   0.884   4.819   5.747 -0.2106  0.0709 -0.1352
    1PA     H8R 4021   0.956   4.892   5.708 -1.6033  2.6855  1.8623
    1PA     H8S 4022   0.781   4.856   5.746 -1.7021 -3.5600 -1.2523
    1PA     C17 4023   0.923   4.782   5.897  0.7675  0.2790  0.5990
    1PA     H7R 4024   0.918   4.867   5.965 -3.3047  2.0820 -1.5991
    1PA     H7S 4025   0.843   4.723   5.941 -0.0123  0.7404 -0.1658
    1PA     C16 4026   1.052   4.694   5.908  0.0948  0.0674  0.8557
    1PA     H6R 4027   1.035   4.597   5.860 -0.2079 -1.3611  3.6015
    1PA     H6S 4028   1.136   4.748   5.865  0.4747 -3.3764 -3.3572
    1PA     C15 4029   1.081   4.671   6.054  0.2971  0.1564 -0.1059
    1PA     H5R 4030   1.090   4.763   6.113  0.9547 -0.3966  0.6831
    1PA     H5S 4031   0.994   4.623   6.100  0.4950 -1.5037 -1.3932
    1PA     C14 4032   1.197   4.576   6.088 -0.1538 -0.2267 -0.5795
    1PA     H4R 4033   1.179   4.484   6.032 -1.9651  0.6289 -1.4911
    1PA     H4S 4034   1.289   4.615   6.044  1.1692  0.2612  2.3239
    1PA     C13 4035   1.228   4.555   6.243 -0.4403  0.0974 -0.5709
    1PA     H3R 4036   1.252   4.649   6.292  0.1272 -0.4422  0.1991
    1PA     H3S 4037   1.138   4.519   6.294 -1.2821  2.6392 -0.0937
    1PA     C12 4038   1.333   4.443   6.255  0.0105  0.3861 -0.6515
    1PA     H2R 4039   1.306   4.358   6.193  1.1506  0.1456 -0.8531
    1PA     H2S 4040   1.430   4.482   6.223  1.6552 -2.5146  0.4364
    1PC     C11 4041   1.369   4.399   6.396  0.3089 -0.0416 -0.3654
    1PC     O12 4042   1.370   4.482   6.482 -0.3967 -0.1423 -0.2188
    1PC     O11 4043   1.401   4.274   6.404 -0.5770  0.0228  0.2896
    1PC      C1 4044   1.447   4.219   6.533  0.4105 -0.9038  0.2212
    1PC      HR 4045   1.496   4.124   6.514  0.9583 -0.3548 -1.2336
    1PC      HS 4046   1.507   4.287   6.594 -0.6102  2.2607 -1.9981
    1PC      C2 4047   1.319   4.184   6.616  0.0763 -0.2796  0.1332
    1PC      HX 4048   1.270   4.272   6.658 -3.6361 -2.4442  0.7064
    1PC      C3 4049   1.359   4.096   6.732 -0.4289  0.6078 -0.0860
    1PC      HA 4050   1.282   4.028   6.768  0.8803 -0.9465 -0.0835
    1PC      HB 4051   1.433   4.028   6.689 -0.4911  0.8352 -0.5510
    1PC     O31 4052   1.430   4.164   6.836 -0.0903 -0.3528 -0.2477
    1PC     P31 4053   1.367   4.185   6.978 -0.3095 -0.3232  0.0652
    1PC     O32 4054   1.386   4.040   7.037  0.0036  0.2364 -0.4218
    1PC     C31 4055   1.503   4.001   7.113  0.1753 -0.6015 -0.4434
    1PC     H1A 4056   1.517   4.065   7.200  0.0234  0.0592 -0.8976
    1PC     H1B 4057   1.497   3.898   7.149  1.1695  0.1003  1.9234
    1PC     C32 4058   1.625   4.008   7.018 -0.3132  0.0778  0.0913
    1PC     H2A 4059   1.609   3.930   6.944  1.6908 -0.3919  0.1046
    1PC     H2B 4060   1.628   4.107   6.971  2.0034 -0.2650 -0.5780
    1PC     N31 4061   1.765   3.969   7.075  0.1676 -0.6297  0.2271
    1PC     C33 4062   1.787   3.826   7.073  0.5643 -0.0887 -0.1595
    1PC     H3A 4063   1.793   3.795   6.969 -1.4017  0.8257 -0.5895
    1PC     H3B 4064   1.880   3.796   7.122  3.5026  1.5959 -4.1217
    1PC     H3C 4065   1.700   3.781   7.119 -0.3993  0.3897 -1.4538
    1PC     C34 4066   1.870   4.022   6.982  0.3451 -0.1335 -0.9633
    1PC     H4A 4067   1.890   3.959   6.895  1.9047 -0.5493 -0.3479
    1PC     H4B 4068   1.839   4.123   6.954  0.4308  0.1295 -0.1352
    1PC     H4C 4069   1.960   4.023   7.044  0.6326  0.5818 -1.3770
    1PC     C35 4070   1.780   4.032   7.218 -0.3557  0.2185  0.2572
    1PC     H5A 4071   1.764   4.138   7.197 -1.4437  0.1518  0.6548
    1PC     H5B 4072   1.882   4.008   7.248 -0.2060 -0.2360 -0.5743
    1PC     H5C 4073   1.708   3.981   7.283  0.4963 -0.4685  0.6818
    1PC     O33 4074   1.445   4.285   7.048  0.2054 -0.5794 -0.3491
    1PC     O34 4075   1.219   4.207   6.964  0.2540  0.0293  0.3605
    1PC     O21 4076   1.224   4.103   6.538  0.2172  0.0276  0.0166
    1PC     C21 4077   1.136   4.176   6.462  0.2932  0.2786 -0.7039
    1PC     O22 4078   1.103   4.288   6.487 -0.4156 -0.7123  0.4975
    1OL     C12 4079   1.070   4.092   6.350  0.1097 -0.1781 -0.1610
    1OL     H2R 4080   0.962   4.099   6.365  0.2862  0.0033  1.1556
    1OL     H2S 4081   1.109   3.990   6.352 -0.5518 -0.4486 -0.8612
    1OL     C13 4082   1.120   4.149   6.217  0.1230  0.5762 -0.6882
    1OL     H3R 4083   1.228   4.152   6.201 -0.0309  0.6750 -1.7815
    1OL     H3S 4084   1.077   4.247   6.196  0.7976  1.2596  0.9995
    1OL     C14 4085   1.079   4.045   6.108 -0.1979  0.0127 -1.2972
    1OL     H4R 4086   0.972   4.026   6.102  0.0283 -1.0563 -2.3386
    1OL     H4S 4087   1.105   3.944   6.139  0.4657  0.4008 -0.5373
    1OL     C15 4088   1.141   4.099   5.976  0.2469 -0.2947  0.5484
    1OL     H5R 4089   1.251   4.098   5.974  0.2991 -3.4772  0.4477
    1OL     H5S 4090   1.107   4.201   5.959  1.5218 -0.2575 -2.3532
    1OL     C16 4091   1.095   4.019   5.855 -0.0567 -0.5599 -0.7322
    1OL     H6R 4092   0.989   3.999   5.875  0.1111 -1.8336 -1.0521
    1OL     H6S 4093   1.149   3.924   5.855 -2.0498 -1.7634  0.5343
    1OL     C17 4094   1.106   4.093   5.722  0.0709  0.3008 -0.0554
    1OL     H7R 4095   1.214   4.103   5.709  0.3744 -2.8969 -0.9190
    1OL     H7S 4096   1.064   4.193   5.734 -1.5127 -0.2379 -0.8540
    1OL     C18 4097   1.039   4.019   5.606 -0.3095  0.4593  0.0198
    1OL     H8R 4098   0.938   3.995   5.639 -0.5394 -0.8803 -1.4989
    1OL     H8S 4099   1.090   3.922   5.603  1.2971  1.2256  1.2698
    1OL     C19 4100   1.053   4.093   5.474 -0.0462 -0.1216 -0.1298
    1OL     H9R 4101   0.980   4.172   5.462 -0.2574  0.1859  2.4671
    1OL    C110 4102   1.138   4.060   5.373  0.1630  1.1848  0.2551
    1OL    H10R 4103   1.133   4.109   5.276  1.7258 -2.4645 -1.8806
    1OL    C111 4104   1.247   3.948   5.376  0.0657  0.4157  0.0507
    1OL    H11R 4105   1.209   3.857   5.330 -0.0816  1.5023 -2.0512
    1OL    H11S 4106   1.275   3.918   5.478  2.7241  0.3504 -0.6265
    1OL    C112 4107   1.374   3.988   5.293  0.5579 -0.3431 -0.0469
    1OL    H12R 4108   1.337   4.008   5.193  1.6134  0.7169 -0.2563
    1OL    H12S 4109   1.456   3.917   5.278  1.9596  1.3999 -1.1882
    1OL    C113 4110   1.448   4.117   5.346  0.2535  0.2879 -0.2249
    1OL    H13R 4111   1.484   4.109   5.449 -0.4685 -0.4308 -0.0190
    1OL    H13S 4112   1.380   4.201   5.358  0.3011  0.2961  0.0010
    1OL    C114 4113   1.556   4.155   5.245 -0.6812 -0.2091 -0.2368
    1OL    H14R 4114   1.530   4.138   5.141 -0.2647  0.8124 -0.5231
    1OL    H14S 4115   1.646   4.096   5.265  0.9359  2.2727  0.2731
    1OL    C115 4116   1.596   4.307   5.254 -0.2504  0.4671 -0.2533
    1OL    H15R 4117   1.510   4.373   5.244  0.1661  0.8617 -1.4269
    1OL    H15S 4118   1.654   4.328   5.164  0.2177  1.3547  0.2469
    1OL    C116 4119   1.675   4.345   5.372 -0.9209 -0.4299 -0.4893
    1OL    H16R 4120   1.738   4.261   5.402 -2.3181 -1.1857  0.4704
    1OL    H16S 4121   1.613   4.360   5.461  1.1678 -3.0787  1.6096
    1OL    C117 4122   1.772   4.463   5.351 -0.2978 -1.0214 -0.5217
    1OL    H17R 4123   1.720   4.541   5.295 -0.0691  1.3116  2.3176
    1OL    H17S 4124   1.841   4.415   5.282  0.8661  0.8147 -0.6875
    1OL    C118 4125   1.837   4.507   5.490  0.2787  0.1623  0.3332
    1OL    H18R 4126   1.896   4.424   5.530  0.9596  0.2526 -0.4796
    1OL    H18S 4127   1.757   4.539   5.557  0.4820  1.0534  0.1547
    1OL    H18T 4128   1.892   4.598   5.468 -1.6736  1.8937  2.0995
    1PA    C116 4129   3.759   0.480   6.447 -0.2392 -0.1640 -0.7780
    1PA    H16R 4130   3.867   0.465   6.449 -0.4230 -1.9206 -2.0221
    1PA    H16S 4131   3.728   0.500   6.550  0.0005 -1.3497 -0.4580
    1PA    H16T 4132   3.733   0.569   6.390  0.6105 -0.1488 -1.1552
    1PA    C115 4133   3.685   0.356   6.410  0.2951 -0.7048 -0.4355
    1PA    H15R 4134   3.717   0.279   6.481  2.8546 -1.5842 -2.3904
    1PA    H15S 4135   3.580   0.380   6.431  0.6292 -0.6524  1.3355
    1PA    C114 4136   3.694   0.327   6.258 -0.1550  0.6245  0.3236
    1PA    H14R 4137   3.617   0.256   6.227 -0.7562  0.7763  1.4252
    1PA    H14S 4138   3.672   0.419   6.203 -1.7812 -0.7184 -1.4203
    1PA    C113 4139   3.843   0.286   6.227 -0.6886 -0.3424  0.0742
    1PA    H13R 4140   3.915   0.362   6.261 -2.6713  1.3257  0.7479
    1PA    H13S 4141   3.863   0.193   6.279 -0.8415 -0.4450 -0.0504
    1PA    C112 4142   3.856   0.276   6.071 -0.0379 -0.0575  0.3891
    1PA    H12R 4143   3.785   0.199   6.039  0.9775 -0.6093 -0.6196
    1PA    H12S 4144   3.843   0.372   6.021 -3.9374 -1.4400 -1.6851
    1PA    C111 4145   4.010   0.230   6.042  0.7311 -0.5765  0.9372
    1PA    H11R 4146   4.020   0.231   5.933 -0.0151  0.3028  0.8571
    1PA    H11S 4147   4.077   0.308   6.078  0.5766  0.8141 -1.5276
    1PA    C110 4148   4.039   0.091   6.105 -0.0213 -0.1568  0.7478
    1PA    H10R 4149   4.049   0.112   6.212  1.6599  0.7783  0.4383
    1PA    H10S 4150   3.952   0.027   6.090  0.2568  0.0798 -2.4804
    1PA     C19 4151   4.166   0.024   6.052 -0.3646 -0.0248  0.6782
    1PA     H9R 4152   4.164   0.023   5.943  0.2114  1.6710  0.6246
    1PA     H9S 4153   4.257   0.075   6.083  0.3069  0.1229 -1.3803
    1PA     C18 4154   4.165  -0.126   6.097 -0.1707 -0.7584 -0.3253
    1PA     H8R 4155   4.154  -0.132   6.205 -2.5799  0.2164 -0.4538
    1PA     H8S 4156   4.078  -0.186   6.072 -0.3924 -0.3290 -0.5978
    1PA     C17 4157   4.294  -0.197   6.049  1.0461 -0.4247  0.1121
    1PA     H7R 4158   4.286  -0.218   5.942  1.0687  0.2166 -0.0173
    1PA     H7S 4159   4.374  -0.125   6.069 -0.1706  0.2010  3.3352
    1PA     C16 4160   4.328  -0.328   6.125 -0.4198 -0.3942  0.3283
    1PA     H6R 4161   4.232  -0.374   6.146 -0.6251 -1.0254 -1.7522
    1PA     H6S 4162   4.386  -0.391   6.058  1.0097  0.4959  0.6782
    1PA     C15 4163   4.415  -0.307   6.247  0.3867 -0.4227  0.3134
    1PA     H5R 4164   4.353  -0.245   6.313  1.7836  1.3171  0.0702
    1PA     H5S 4165   4.433  -0.398   6.304 -1.5906 -0.1646  1.4504
    1PA     C14 4166   4.538  -0.226   6.237 -0.3909  0.2368 -0.4699
    1PA     H4R 4167   4.609  -0.277   6.171  0.9336 -0.3484  1.3381
    1PA     H4S 4168   4.520  -0.124   6.202  1.2774  0.0655 -1.9614
    1PA     C13 4169   4.595  -0.219   6.379  0.1484  0.2380  0.6417
    1PA     H3R 4170   4.522  -0.162   6.436 -0.3527  1.5413 -1.2139
    1PA     H3S 4171   4.602  -0.318   6.425 -2.8174 -0.7006 -0.6997
    1PA     C12 4172   4.727  -0.140   6.390  0.3562 -0.2871  0.1341
    1PA     H2R 4173   4.803  -0.173   6.319  1.2550  0.7630  0.5660
    1PA     H2S 4174   4.701  -0.037   6.367 -0.4483 -0.0698  1.8492
    1PC     C11 4175   4.793  -0.144   6.526  0.9538  0.0533 -1.1641
    1PC     O12 4176   4.887  -0.213   6.556  0.1919  0.1706  0.6589
    1PC     O11 4177   4.720  -0.065   6.609 -0.1947  1.0259  0.7203
    1PC      C1 4178   4.763  -0.052   6.747  0.2332 -0.1619 -0.6923
    1PC      HR 4179   4.800  -0.146   6.789 -1.7106  0.4207  2.6730
    1PC      HS 4180   4.844   0.022   6.750 -0.1369  0.2413 -0.5037
    1PC      C2 4181   4.640  -0.015   6.832  0.2594 -0.6256  0.2672
    1PC      HX 4182   4.581   0.060   6.778  1.4909  0.4410  0.3550
    1PC      C3 4183   4.682   0.023   6.978  0.1542 -0.3350 -0.2060
    1PC      HA 4184   4.711  -0.073   7.020  0.6234  0.5285  1.5196
    1PC      HB 4185   4.760   0.099   6.984  0.4676 -0.7184  0.6746
    1PC     O31 4186   4.575   0.085   7.058 -0.1244  0.1057  0.1730
    1PC     P31 4187   4.539   0.023   7.203  0.0901  0.0137  0.6009
    1PC     O32 4188   4.463  -0.117   7.171  0.1787 -0.3412  0.4956
    1PC     C31 4189   4.525  -0.242   7.162 -0.1689 -0.6144  0.0463
    1PC     H1A 4190   4.472  -0.314   7.099  1.2455 -2.2830  0.7063
    1PC     H1B 4191   4.624  -0.231   7.118 -0.0345  0.6587  0.6178
    1PC     C32 4192   4.537  -0.303   7.306  0.5915  0.4906 -0.0022
    1PC     H2A 4193   4.592  -0.397   7.296 -0.0190  0.3530 -2.9007
    1PC     H2B 4194   4.593  -0.236   7.371  1.1581  0.2057 -0.1874
    1PC     N31 4195   4.415  -0.329   7.387 -0.0216 -0.1867 -0.2687
    1PC     C33 4196   4.450  -0.428   7.491 -0.4384 -0.0850  0.2195
    1PC     H3A 4197   4.476  -0.517   7.433 -1.4536  0.4130 -1.0375
    1PC     H3B 4198   4.528  -0.402   7.563 -0.1556 -1.2394  0.3515
    1PC     H3C 4199   4.363  -0.445   7.554 -0.9641  2.0942  0.1607
    1PC     C34 4200   4.365  -0.200   7.438 -0.1771  0.5519 -0.4901
    1PC     H4A 4201   4.325  -0.137   7.359  0.0617  1.4354  0.0730
    1PC     H4B 4202   4.288  -0.217   7.513  0.0183  1.8481  0.0247
    1PC     H4C 4203   4.446  -0.141   7.483 -1.5770  1.6554  0.6646
    1PC     C35 4204   4.304  -0.389   7.311 -0.4048 -0.1223 -0.3289
    1PC     H5A 4205   4.231  -0.440   7.373 -0.9863  0.3987 -0.5715
    1PC     H5B 4206   4.350  -0.469   7.252 -1.3797 -0.1066 -1.1257
    1PC     H5C 4207   4.258  -0.309   7.252  0.5392 -0.8508 -2.1492
    1PC     O33 4208   4.668  -0.015   7.268 -0.1063  0.2139  0.1623
    1PC     O34 4209   4.452   0.111   7.280  0.4980 -1.4418  0.4287
    1PC     O21 4210   4.558  -0.132   6.843  0.1973 -0.6797 -0.9328
    1PC     C21 4211   4.425  -0.119   6.826  0.5071 -1.2170  0.9638
    1PC     O22 4212   4.366  -0.014   6.811 -0.6141 -0.3157 -0.4790
    1OL     C12 4213   4.356  -0.253   6.817 -0.5568  0.2420  0.7122
    1OL     H2R 4214   4.271  -0.268   6.883 -0.8620 -2.3472 -0.1774
    1OL     H2S 4215   4.430  -0.332   6.835 -0.7412  0.0477  0.6138
    1OL     C13 4216   4.300  -0.267   6.674  0.6453  0.2300 -0.0233
    1OL     H3R 4217   4.380  -0.273   6.600 -0.5409 -3.8022 -1.2293
    1OL     H3S 4218   4.227  -0.188   6.653  0.1071 -0.5586 -1.1719
    1OL     C14 4219   4.217  -0.400   6.657 -0.0873  0.0971  0.3023
    1OL     H4R 4220   4.152  -0.424   6.741 -1.4543 -0.0211 -0.7620
    1OL     H4S 4221   4.280  -0.488   6.644 -1.5076 -0.7630 -1.0035
    1OL     C15 4222   4.130  -0.395   6.532 -0.0480  0.4414  0.2229
    1OL     H5R 4223   4.195  -0.380   6.445 -0.6872 -0.0226 -0.3527
    1OL     H5S 4224   4.062  -0.311   6.547  1.0928  1.1878  1.3888
    1OL     C16 4225   4.050  -0.525   6.506  0.1235  0.0606 -0.3274
    1OL     H6R 4226   3.980  -0.532   6.590 -0.3616 -0.7769 -0.7925
    1OL     H6S 4227   4.126  -0.603   6.513 -0.6311 -0.6120  0.7614
    1OL     C17 4228   3.965  -0.521   6.380  0.2343 -0.2366 -0.1115
    1OL     H7R 4229   4.023  -0.477   6.298  1.7185 -1.2446  0.3570
    1OL     H7S 4230   3.894  -0.441   6.400  1.9325  1.1601  0.6013
    1OL     C18 4231   3.904  -0.656   6.350  0.0303  0.0942  0.6777
    1OL     H8R 4232   3.866  -0.707   6.438  0.7269 -0.9656  0.3830
    1OL     H8S 4233   3.980  -0.723   6.309 -0.1050 -0.5669  1.5033
    1OL     C19 4234   3.796  -0.640   6.240 -0.4036  0.5793 -0.5890
    1OL     H9R 4235   3.699  -0.616   6.284  0.1344 -1.1269  1.7389
    1OL    C110 4236   3.816  -0.646   6.109 -0.2967 -0.3113 -0.3539
    1OL    H10R 4237   3.725  -0.629   6.052 -0.2052  0.8696 -0.1693
    1OL    C111 4238   3.937  -0.643   6.023 -0.3145  0.5324  0.4024
    1OL    H11R 4239   3.938  -0.730   5.956  0.6153 -1.9333  3.3711
    1OL    H11S 4240   4.029  -0.658   6.079 -0.2841  0.0402  0.2323
    1OL    C112 4241   3.949  -0.514   5.944 -0.9242  0.4387 -0.0907
    1OL    H12R 4242   3.935  -0.426   6.008  1.4271  1.2189 -0.5578
    1OL    H12S 4243   3.867  -0.523   5.873 -2.4302  0.2170  1.5937
    1OL    C113 4244   4.088  -0.492   5.860  0.5575  0.0276 -0.3949
    1OL    H13R 4245   4.113  -0.585   5.810  0.2092  0.1252 -0.7552
    1OL    H13S 4246   4.166  -0.459   5.929  0.9218 -0.8606 -0.3732
    1OL    C114 4247   4.074  -0.388   5.745 -0.0459 -0.8799 -0.0290
    1OL    H14R 4248   4.017  -0.428   5.661 -2.4642 -0.2585  1.2170
    1OL    H14S 4249   4.177  -0.376   5.713 -0.2057  0.7903 -0.0078
    1OL    C115 4250   4.020  -0.248   5.784  0.2530  0.1444  0.4810
    1OL    H15R 4251   4.085  -0.228   5.869  0.8985 -2.7417  0.7722
    1OL    H15S 4252   3.919  -0.244   5.825 -0.5247  1.3614 -1.4049
    1OL    C116 4253   4.023  -0.138   5.671 -0.0612  0.3501  0.1259
    1OL    H16R 4254   4.005  -0.199   5.582  1.1647 -0.9007  0.7181
    1OL    H16S 4255   4.127  -0.106   5.661  0.4956 -1.7630 -1.5347
    1OL    C117 4256   3.919  -0.031   5.695 -0.2416 -0.1222  0.2805
    1OL    H17R 4257   3.950   0.031   5.780 -1.8336 -0.3075  1.0452
    1OL    H17S 4258   3.822  -0.075   5.720  0.0613 -1.8028 -1.3067
    1OL    C118 4259   3.920   0.055   5.565 -0.2802 -0.8704  0.2053
    1OL    H18R 4260   4.022   0.083   5.540 -1.5863  1.3976 -3.4018
    1OL    H18S 4261   3.875   0.153   5.583  0.5685 -0.4952  0.3498
    1OL    H18T 4262   3.866   0.002   5.485 -0.5339  1.3512 -1.1866
    1PA    C116 4263   3.771   0.728   5.640 -0.7881 -0.3472  0.5777
    1PA    H16R 4264   3.832   0.726   5.730 -0.7734  1.4786  0.6503
    1PA    H16S 4265   3.664   0.727   5.661 -0.6531  1.2577  1.4428
    1PA    H16T 4266   3.801   0.819   5.587 -0.1710 -1.0194 -0.2654
    1PA    C115 4267   3.813   0.605   5.552 -0.4675 -0.3959  0.1960
    1PA    H15R 4268   3.756   0.594   5.460 -0.1752  0.1224 -0.0490
    1PA    H15S 4269   3.917   0.610   5.520 -0.2465  1.3101  1.0646
    1PA    C114 4270   3.804   0.477   5.635 -0.0324 -0.4820  0.7201
    1PA    H14R 4271   3.841   0.391   5.579 -0.3781 -0.6070  0.6806
    1PA    H14S 4272   3.860   0.478   5.728  1.8926  0.7835 -0.3859
    1PA    C113 4273   3.659   0.444   5.651  0.5780 -0.2538 -0.0417
    1PA    H13R 4274   3.599   0.527   5.690  0.0433 -1.4419  1.8116
    1PA    H13S 4275   3.613   0.423   5.554 -0.0056  0.2700  0.1158
    1PA    C112 4276   3.625   0.336   5.754 -0.1941  0.4663  1.1832
    1PA    H12R 4277   3.685   0.249   5.727  0.5425  0.8628  1.5167
    1PA    H12S 4278   3.654   0.365   5.856  3.6482 -1.9648  0.9912
    1PA    C111 4279   3.479   0.289   5.746  0.3615 -0.8219 -0.6335
    1PA    H11R 4280   3.414   0.373   5.770  0.9467 -0.7880  0.9478
    1PA    H11S 4281   3.439   0.247   5.653 -0.0264 -1.8780 -0.0088
    1PA    C110 4282   3.459   0.196   5.870 -0.0352  0.3858  0.2165
    1PA    H10R 4283   3.491   0.241   5.965 -0.2121 -1.9316  1.4320
    1PA    H10S 4284   3.353   0.175   5.883  0.1902 -0.7619  0.2643
    1PA     C19 4285   3.533   0.059   5.860 -0.5301 -0.2821  0.2643
    1PA     H9R 4286   3.528   0.026   5.756 -0.9587  0.0273  0.1814
    1PA     H9S 4287   3.641   0.059   5.877 -0.2510  0.7838 -1.2167
    1PA     C18 4288   3.469  -0.043   5.956  0.1955  0.2316 -0.1516
    1PA     H8R 4289   3.360  -0.046   5.945  0.3093  0.5632 -1.5242
    1PA     H8S 4290   3.518  -0.139   5.944 -0.8874 -0.3034 -0.3757
    1PA     C17 4291   3.492  -0.005   6.104 -0.0008 -0.8808  0.2986
    1PA     H7R 4292   3.474   0.102   6.117 -0.1151 -0.8029 -0.4503
    1PA     H7S 4293   3.412  -0.053   6.160 -0.3345  0.7063  1.2629
    1PA     C16 4294   3.627  -0.045   6.168  0.1159 -0.3714 -0.0200
    1PA     H6R 4295   3.705   0.007   6.113 -1.3989  0.4397 -1.5023
    1PA     H6S 4296   3.612  -0.005   6.269 -0.5935  0.3847 -0.4120
    1PA     C15 4297   3.665  -0.193   6.185  0.6161  0.1109  0.0267
    1PA     H5R 4298   3.578  -0.250   6.221 -1.0180  3.0360  1.0387
    1PA     H5S 4299   3.673  -0.239   6.086 -2.0351 -1.8293  0.5857
    1PA     C14 4300   3.785  -0.207   6.266  0.1869 -0.6935 -0.3066
    1PA     H4R 4301   3.817  -0.311   6.266  0.8365 -0.4987 -0.3786
    1PA     H4S 4302   3.864  -0.151   6.215 -2.1794  2.4630 -0.7680
    1PA     C13 4303   3.779  -0.155   6.412  0.4557  0.5724 -0.7246
    1PA     H3R 4304   3.877  -0.159   6.458  0.2963  0.0272 -0.4287
    1PA     H3S 4305   3.763  -0.047   6.420  0.6808  0.5721 -0.2999
    1PA     C12 4306   3.671  -0.233   6.498 -0.0899 -0.3122  0.0106
    1PA     H2R 4307   3.575  -0.184   6.485  0.7092  1.1753 -0.5644
    1PA     H2S 4308   3.660  -0.336   6.462  0.7599 -0.2374 -0.4953
    1PC     C11 4309   3.709  -0.227   6.644  0.9953 -0.3850 -0.0613
    1PC     O12 4310   3.814  -0.218   6.690 -0.4955  0.1443 -0.1664
    1PC     O11 4311   3.596  -0.247   6.718  0.0719 -0.0284 -0.0936
    1PC      C1 4312   3.609  -0.236   6.860  0.7381  0.6659 -0.3414
    1PC      HR 4313   3.519  -0.275   6.906 -0.8301  0.0042 -3.6344
    1PC      HS 4314   3.700  -0.290   6.889  0.2251 -0.4437 -0.7516
    1PC      C2 4315   3.634  -0.086   6.901  0.1201 -0.2870  0.2152
    1PC      HX 4316   3.730  -0.044   6.871 -1.4387  3.0991 -0.4011
    1PC      C3 4317   3.662  -0.083   7.051 -0.2420  0.0364 -0.0415
    1PC      HA 4318   3.588  -0.143   7.104  0.2839 -0.4090  0.1979
    1PC      HB 4319   3.761  -0.126   7.068 -0.0943 -0.0437 -1.0311
    1PC     O31 4320   3.664   0.048   7.105 -0.5594  0.1699 -0.2578
    1PC     P31 4321   3.737   0.072   7.247  0.0549  0.1038 -0.3913
    1PC     O32 4322   3.625   0.019   7.353 -0.4989 -0.0157 -0.2025
    1PC     C31 4323   3.635  -0.113   7.401  0.6081 -0.2700 -0.2348
    1PC     H1A 4324   3.531  -0.143   7.413  0.4276  0.0649 -0.9199
    1PC     H1B 4325   3.683  -0.182   7.330 -0.3981  0.0783 -1.2824
    1PC     C32 4326   3.706  -0.123   7.536 -0.9248 -0.1144  0.1011
    1PC     H2A 4327   3.712  -0.227   7.567  0.4663 -0.1620 -0.2522
    1PC     H2B 4328   3.811  -0.096   7.525 -0.8001  0.2695  1.9477
    1PC     N31 4329   3.646  -0.039   7.645  0.0510 -0.1581 -0.5999
    1PC     C33 4330   3.714  -0.078   7.772  0.3026  0.5837  0.0061
    1PC     H3A 4331   3.684  -0.181   7.793  1.6924  0.5394  2.0178
    1PC     H3B 4332   3.823  -0.064   7.772  0.4253 -0.1514 -1.5618
    1PC     H3C 4333   3.674  -0.017   7.853  1.8012  1.4638  0.1286
    1PC     C34 4334   3.669   0.108   7.627  0.5627 -0.0475  0.2009
    1PC     H4A 4335   3.613   0.147   7.541 -2.7455 -1.7315  1.4269
    1PC     H4B 4336   3.613   0.159   7.705  1.0162 -1.2119  1.3204
    1PC     H4C 4337   3.776   0.130   7.633  0.8293 -0.5331 -1.7624
    1PC     C35 4338   3.502  -0.075   7.661 -0.7963  0.0085  0.1807
    1PC     H5A 4339   3.457  -0.014   7.740  1.8145  0.8878  1.1226
    1PC     H5B 4340   3.511  -0.182   7.675  3.0221  0.4692  2.9683
    1PC     H5C 4341   3.454  -0.044   7.568  0.9282 -1.6801 -1.3424
    1PC     O33 4342   3.858  -0.016   7.253  0.6131 -0.2269  0.2138
    1PC     O34 4343   3.753   0.222   7.268 -0.0441  0.2969  0.5426
    1PC     O21 4344   3.520  -0.003   6.868 -0.4526  0.5957  0.4330
    1PC     C21 4345   3.533   0.050   6.745 -0.0333  0.4834  0.3684
    1PC     O22 4346   3.629   0.036   6.670  0.5502 -0.4092 -0.0215
    1OL     C12 4347   3.410   0.132   6.701  0.5058 -0.0681 -0.3741
    1OL     H2R 4348   3.457   0.188   6.620  2.2316 -0.6863  0.1636
    1OL     H2S 4349   3.370   0.194   6.781 -1.1122 -2.3697  0.7089
    1OL     C13 4350   3.296   0.037   6.656 -0.0118 -0.2655  0.4173
    1OL     H3R 4351   3.200   0.088   6.671 -0.5808 -1.7354  2.1431
    1OL     H3S 4352   3.295  -0.054   6.716 -0.3646 -1.4824 -1.3318
    1OL     C14 4353   3.309  -0.013   6.515 -0.0949  0.1779  0.7512
    1OL     H4R 4354   3.400  -0.073   6.518  1.3382  2.1679 -0.8453
    1OL     H4S 4355   3.327   0.064   6.440  1.7251 -1.1085 -0.1841
    1OL     C15 4356   3.197  -0.105   6.472 -0.7490  1.0623 -0.6703
    1OL     H5R 4357   3.097  -0.060   6.473 -0.9200  0.6875  0.3382
    1OL     H5S 4358   3.184  -0.183   6.547 -1.2252  0.8833 -0.9320
    1OL     C16 4359   3.223  -0.188   6.347  0.1906  0.6745  1.2299
    1OL     H6R 4360   3.329  -0.178   6.325 -0.7099  3.3963 -3.0610
    1OL     H6S 4361   3.180  -0.129   6.266  0.1558 -0.7202  0.2008
    1OL     C17 4362   3.168  -0.336   6.346  0.1187  0.0685 -0.3077
    1OL     H7R 4363   3.160  -0.368   6.242 -4.3005 -0.6894  0.0505
    1OL     H7S 4364   3.062  -0.338   6.372  0.4069 -0.8773  0.8840
    1OL     C18 4365   3.246  -0.431   6.438  0.9629  0.5677  0.3382
    1OL     H8R 4366   3.196  -0.527   6.448 -0.9228  1.4668  0.0858
    1OL     H8S 4367   3.245  -0.390   6.539  3.4877 -0.1221  0.7133
    1OL     C19 4368   3.395  -0.442   6.415 -0.4223  0.2130  0.5941
    1OL     H9R 4369   3.451  -0.404   6.500 -0.0642 -0.8603  0.8633
    1OL    C110 4370   3.457  -0.481   6.305  0.1659  0.0483  0.2571
    1OL    H10R 4371   3.565  -0.485   6.302  0.2315 -1.0695  2.3141
    1OL    C111 4372   3.389  -0.548   6.188 -0.6822  0.6736 -0.5977
    1OL    H11R 4373   3.281  -0.555   6.201 -0.6354 -1.2108 -1.0048
    1OL    H11S 4374   3.425  -0.651   6.181  0.8128  1.2314 -1.4854
    1OL    C112 4375   3.432  -0.479   6.053 -0.4562  0.0646  0.0836
    1OL    H12R 4376   3.540  -0.463   6.047 -0.4708  1.0029  1.6363
    1OL    H12S 4377   3.395  -0.377   6.056  0.0896  0.2958 -0.8156
    1OL    C113 4378   3.379  -0.550   5.929  0.5086  0.0269  0.1402
    1OL    H13R 4379   3.270  -0.557   5.935  0.3047  2.8210  1.4360
    1OL    H13S 4380   3.418  -0.652   5.927  1.0405  0.2300 -1.4880
    1OL    C114 4381   3.423  -0.488   5.798 -0.4307 -0.1240  0.8941
    1OL    H14R 4382   3.406  -0.380   5.790 -0.0544 -0.2033 -3.2469
    1OL    H14S 4383   3.375  -0.535   5.712  1.8803 -2.1020  0.5826
    1OL    C115 4384   3.572  -0.521   5.768 -0.8613  0.6450 -0.5098
    1OL    H15R 4385   3.587  -0.627   5.792  1.2270  1.1342  0.5147
    1OL    H15S 4386   3.632  -0.458   5.833 -0.0370  0.5777 -1.1835
    1OL    C116 4387   3.608  -0.508   5.617 -0.1289 -0.2877 -0.0894
    1OL    H16R 4388   3.579  -0.409   5.581  2.8770  0.8663  0.3514
    1OL    H16S 4389   3.563  -0.594   5.568  0.7356 -1.0326  0.3805
    1OL    C117 4390   3.759  -0.508   5.604  0.4711 -0.0900 -0.1763
    1OL    H17R 4391   3.794  -0.594   5.662  0.1277 -1.6140 -2.1479
    1OL    H17S 4392   3.799  -0.415   5.645 -1.4805  1.3115 -1.2747
    1OL    C118 4393   3.799  -0.526   5.457 -0.3240  0.3182 -0.0827
    1OL    H18R 4394   3.805  -0.432   5.402  4.8202 -0.1716 -0.8603
    1OL    H18S 4395   3.728  -0.587   5.401 -2.8410  3.1442 -0.2262
    1OL    H18T 4396   3.899  -0.570   5.447 -0.4105 -0.2977  1.4584
    1PA    C116 4397   1.235   4.743   5.381  0.3734 -0.6868  0.0799
    1PA    H16R 4398   1.154   4.687   5.334  1.0463 -0.4687 -1.3850
    1PA    H16S 4399   1.254   4.832   5.321  1.5696 -0.1243  1.2446
    1PA    H16T 4400   1.200   4.788   5.474 -1.4375  1.7412 -1.6671
    1PA    C115 4401   1.360   4.654   5.390  0.1870 -0.1903  0.3765
    1PA    H15R 4402   1.396   4.638   5.288  0.4067 -0.0623  0.4336
    1PA    H15S 4403   1.432   4.714   5.446  1.5605 -0.0593 -1.4158
    1PA    C114 4404   1.326   4.519   5.453 -0.1990  0.0232  0.9123
    1PA    H14R 4405   1.237   4.491   5.396 -2.1721  2.1595  2.7462
    1PA    H14S 4406   1.405   4.448   5.430  0.1747  1.1441 -1.6157
    1PA    C113 4407   1.266   4.525   5.593 -0.2564  0.1800 -0.0907
    1PA    H13R 4408   1.173   4.584   5.599 -1.5867 -1.8896  0.5933
    1PA    H13S 4409   1.235   4.424   5.620 -1.5962  0.1824 -1.4327
    1PA    C112 4410   1.358   4.580   5.706  0.0592  0.4415 -0.1336
    1PA    H12R 4411   1.368   4.689   5.701  1.1114  0.4561  1.6219
    1PA    H12S 4412   1.311   4.560   5.802  1.4020 -1.3041  0.2186
    1PA    C111 4413   1.490   4.506   5.719 -0.0432  0.0074 -0.0231
    1PA    H11R 4414   1.552   4.511   5.629 -0.3000  0.2159 -0.1905
    1PA    H11S 4415   1.548   4.551   5.801  1.1927  0.7978 -1.2671
    1PA    C110 4416   1.467   4.359   5.751 -1.1160 -0.3188 -0.5476
    1PA    H10R 4417   1.414   4.343   5.845  2.2511 -1.5941  1.2889
    1PA    H10S 4418   1.413   4.318   5.665  0.7991 -2.3977 -0.8327
    1PA     C19 4419   1.592   4.268   5.755  0.0131 -0.6262  0.3834
    1PA     H9R 4420   1.572   4.163   5.779 -1.2032 -0.3707  0.5301
    1PA     H9S 4421   1.629   4.260   5.652  0.0238  0.7860  0.2556
    1PA     C18 4422   1.700   4.310   5.857 -0.1233  0.5435  0.0269
    1PA     H8R 4423   1.787   4.243   5.855  2.0028  3.1220  0.0247
    1PA     H8S 4424   1.753   4.397   5.816  0.5820  0.6379  1.0944
    1PA     C17 4425   1.654   4.352   5.997  0.0769 -0.7151  0.7616
    1PA     H7R 4426   1.600   4.446   5.982  0.4337 -0.4495  1.1114
    1PA     H7S 4427   1.583   4.282   6.042 -0.6688 -0.2929  0.2682
    1PA     C16 4428   1.765   4.378   6.090  0.3041  0.0075 -0.2017
    1PA     H6R 4429   1.804   4.280   6.118  0.8197  0.3171  0.1717
    1PA     H6S 4430   1.844   4.436   6.042  0.0278  0.6267  0.0836
    1PA     C15 4431   1.715   4.455   6.218 -0.6279 -0.6181 -0.1784
    1PA     H5R 4432   1.676   4.551   6.184  0.3777 -0.7849 -1.9228
    1PA     H5S 4433   1.634   4.400   6.267 -0.6104 -0.2511  0.2651
    1PA     C14 4434   1.823   4.501   6.320 -0.0608  0.6971  0.2438
    1PA     H4R 4435   1.896   4.554   6.259 -1.1115  2.0182  0.0796
    1PA     H4S 4436   1.774   4.572   6.386 -0.7262 -0.0453  0.5733
    1PA     C13 4437   1.893   4.395   6.405 -0.8581  0.3036 -0.1127
    1PA     H3R 4438   1.820   4.361   6.479 -0.8099  1.3228  0.4180
    1PA     H3S 4439   1.944   4.316   6.349  3.1813  0.9763  2.1842
    1PA     C12 4440   2.009   4.458   6.484  0.8587  0.7325 -0.3774
    1PA     H2R 4441   2.081   4.508   6.419  2.0029 -0.7226 -0.2847
    1PA     H2S 4442   1.960   4.535   6.544 -0.8461  1.5235 -2.6419
    1PC     C11 4443   2.081   4.358   6.571  0.1298  0.2604 -0.7846
    1PC     O12 4444   2.150   4.273   6.519 -0.1629  0.0347  0.4117
    1PC     O11 4445   2.051   4.368   6.708 -0.4243  0.3581  0.4140
    1PC      C1 4446   2.102   4.275   6.799 -0.0832  0.2478 -0.2489
    1PC      HR 4447   2.022   4.248   6.868 -0.8492  2.3469 -0.2744
    1PC      HS 4448   2.133   4.182   6.749 -0.6227  0.0191 -0.1634
    1PC      C2 4449   2.225   4.320   6.882 -0.5199 -1.2968  0.1729
    1PC      HX 4450   2.262   4.257   6.963  0.5671  1.0611  1.5934
    1PC      C3 4451   2.179   4.456   6.940 -0.2529  0.1177  0.2437
    1PC      HA 4452   2.161   4.516   6.850  0.9562 -1.2831 -0.9902
    1PC      HB 4453   2.090   4.438   7.001  1.2741 -3.3859  1.6934
    1PC     O31 4454   2.291   4.516   7.009  0.2243  0.5675  0.0364
    1PC     P31 4455   2.327   4.472   7.158 -0.1219  0.1704 -0.3526
    1PC     O32 4456   2.278   4.596   7.244  0.0408 -0.1077  0.4704
    1PC     C31 4457   2.139   4.630   7.250  0.1279 -0.8911 -0.0284
    1PC     H1A 4458   2.119   4.713   7.182  1.4330  0.6457  1.3720
    1PC     H1B 4459   2.073   4.547   7.222 -0.5399 -0.1915 -0.5742
    1PC     C32 4460   2.129   4.683   7.398  0.0450 -0.0361 -0.1339
    1PC     H2A 4461   2.160   4.606   7.469  1.6316  0.0748 -0.6637
    1PC     H2B 4462   2.187   4.774   7.412  1.3267 -1.1021  1.9481
    1PC     N31 4463   1.996   4.732   7.442  0.2070  0.2042  0.2131
    1PC     C33 4464   1.897   4.619   7.422 -0.0204 -0.5037 -0.1611
    1PC     H3A 4465   1.865   4.616   7.318  1.0748  2.6597 -0.6950
    1PC     H3B 4466   1.944   4.529   7.460 -1.1033 -0.7440  0.6425
    1PC     H3C 4467   1.808   4.635   7.484 -0.8439 -2.1146 -0.8613
    1PC     C34 4468   2.003   4.748   7.593  0.1650 -1.4031 -0.4726
    1PC     H4A 4469   2.043   4.659   7.642  1.3796  0.2526  1.7122
    1PC     H4B 4470   2.059   4.839   7.619 -2.0242  0.5285 -2.1088
    1PC     H4C 4471   1.902   4.775   7.623  0.9584  1.0377  0.2884
    1PC     C35 4472   1.958   4.863   7.387  0.2940 -0.3494 -0.3408
    1PC     H5A 4473   1.930   4.857   7.282 -0.3597 -1.7312 -0.1013
    1PC     H5B 4474   2.043   4.931   7.393 -0.3126  0.3130  3.1156
    1PC     H5C 4475   1.874   4.900   7.447  0.5253 -2.4457  1.3801
    1PC     O33 4476   2.246   4.354   7.200  0.2410  0.5723 -0.0524
    1PC     O34 4477   2.478   4.475   7.166 -0.2515 -0.5255 -0.3706
    1PC     O21 4478   2.336   4.347   6.793  0.3690  0.0028  0.2523
    1PC     C21 4479   2.434   4.258   6.793 -0.3071 -0.7883  0.2923
    1PC     O22 4480   2.421   4.148   6.843 -0.4921 -0.2125  0.9220
    1OL     C12 4481   2.558   4.312   6.724  0.0278  0.4854 -0.1144
    1OL     H2R 4482   2.647   4.320   6.786  0.6240  2.7825 -1.1471
    1OL     H2S 4483   2.541   4.417   6.698 -2.8739  0.2227  0.3276
    1OL     C13 4484   2.590   4.235   6.590  0.8337  0.5035 -0.4038
    1OL     H3R 4485   2.512   4.161   6.568  0.5003  1.0371 -1.0417
    1OL     H3S 4486   2.685   4.183   6.604 -0.9593 -2.6700  1.0404
    1OL     C14 4487   2.580   4.334   6.472  0.2772 -0.3859  0.1945
    1OL     H4R 4488   2.653   4.413   6.491  0.7624 -0.6214 -0.6251
    1OL     H4S 4489   2.485   4.387   6.467 -0.6148 -1.7681  1.5192
    1OL     C15 4490   2.610   4.270   6.333  0.1084  0.1548  0.0009
    1OL     H5R 4491   2.701   4.209   6.334  1.4675  2.0961  0.9281
    1OL     H5S 4492   2.641   4.358   6.277  0.7626 -0.1063 -0.0582
    1OL     C16 4493   2.486   4.196   6.264  0.0912  0.0747 -0.2894
    1OL     H6R 4494   2.424   4.147   6.340 -0.6210 -3.0137 -2.6378
    1OL     H6S 4495   2.530   4.115   6.204  0.7366  0.4505 -0.3378
    1OL     C17 4496   2.403   4.292   6.176  0.2373  0.3708  0.8767
    1OL     H7R 4497   2.321   4.236   6.131  1.3892  0.3582 -1.3122
    1OL     H7S 4498   2.468   4.320   6.093  0.4809  0.1068  0.9785
    1OL     C18 4499   2.348   4.424   6.244  0.3356 -0.1488 -0.1353
    1OL     H8R 4500   2.430   4.484   6.285 -0.3405  0.2427  0.6653
    1OL     H8S 4501   2.276   4.402   6.323  0.7011 -0.2201  0.1839
    1OL     C19 4502   2.274   4.506   6.141  0.1540  0.1508 -0.3422
    1OL     H9R 4503   2.203   4.447   6.083  1.2623 -1.9085  0.2741
    1OL    C110 4504   2.283   4.634   6.134 -0.1741  0.5659  0.0831
    1OL    H10R 4505   2.221   4.687   6.063  0.0482  0.5951 -0.0926
    1OL    C111 4506   2.383   4.722   6.204 -0.0881 -0.1891  0.1037
    1OL    H11R 4507   2.481   4.676   6.223  1.2723  1.4858 -2.3636
    1OL    H11S 4508   2.334   4.745   6.299 -1.7428 -0.0801 -0.7518
    1OL    C112 4509   2.405   4.854   6.130  0.0164 -0.0555  0.4357
    1OL    H12R 4510   2.451   4.926   6.197 -0.4449 -0.3568  1.0782
    1OL    H12S 4511   2.307   4.898   6.110  0.3694  0.4318 -0.2692
    1OL    C113 4512   2.481   4.865   5.988 -0.5404  0.5855  0.1049
    1OL    H13R 4513   2.586   4.842   6.003 -0.7572 -0.1106  0.6398
    1OL    H13S 4514   2.478   4.966   5.947 -2.8072  0.0999 -1.1198
    1OL    C114 4515   2.422   4.763   5.881 -0.1654  0.0343 -0.0917
    1OL    H14R 4516   2.315   4.764   5.900 -0.5722 -1.3744 -2.0666
    1OL    H14S 4517   2.465   4.665   5.903 -1.2548 -0.5766 -0.6022
    1OL    C115 4518   2.449   4.795   5.736 -0.0827  0.0578 -0.8007
    1OL    H15R 4519   2.417   4.897   5.712  1.6237  0.4685 -1.4512
    1OL    H15S 4520   2.401   4.722   5.670 -0.0781 -0.8907  0.2156
    1OL    C116 4521   2.593   4.801   5.692 -0.3193 -0.0385 -0.7448
    1OL    H16R 4522   2.627   4.698   5.707 -0.7300 -0.2099 -0.9708
    1OL    H16S 4523   2.645   4.872   5.757  1.0491 -2.5798  1.1436
    1OL    C117 4524   2.610   4.846   5.542  0.3738  0.7872 -0.3747
    1OL    H17R 4525   2.549   4.774   5.487  0.7687  0.5373 -0.4885
    1OL    H17S 4526   2.718   4.840   5.525  1.1864  0.0799  3.8321
    1OL    C118 4527   2.565   4.992   5.511 -0.3837  1.0501 -0.1552
    1OL    H18R 4528   2.632   5.063   5.562 -1.0270 -0.7611  3.5677
    1OL    H18S 4529   2.458   5.004   5.528 -1.5041 -3.6723 -2.3801
    1OL    H18T 4530   2.582   5.001   5.404 -0.4256 -0.2979 -0.2877
    1PA    C116 4531   5.070   3.824   4.981 -0.0673  0.1750  0.0405
    1PA    H16R 4532   5.123   3.800   4.889 -0.2646  0.5360 -0.1673
    1PA    H16S 4533   5.064   3.931   5.003 -0.3789  0.6098 -1.9675
    1PA    H16T 4534   4.971   3.778   4.984 -0.8712  1.7793  3.2605
    1PA    C115 4535   5.146   3.748   5.090 -0.5252  0.0636 -0.1636
    1PA    H15R 4536   5.151   3.641   5.073 -0.1992 -0.3541  2.1962
    1PA    H15S 4537   5.248   3.789   5.096 -0.5908  0.0617  1.3870
    1PA    C114 4538   5.058   3.769   5.217  0.9226  0.0055 -0.8989
    1PA    H14R 4539   5.066   3.874   5.245  0.9595  0.4992 -2.6589
    1PA    H14S 4540   4.954   3.751   5.189  0.7354  0.3231 -0.4310
    1PA    C113 4541   5.091   3.684   5.333  0.4901  0.5151 -0.5980
    1PA    H13R 4542   5.108   3.582   5.299  1.3055  0.2277  0.6392
    1PA    H13S 4543   5.191   3.714   5.364 -0.2262  1.7100  0.6689
    1PA    C112 4544   4.975   3.703   5.436 -0.0842 -0.5518  0.2864
    1PA    H12R 4545   4.970   3.811   5.441 -0.0802 -0.5372  0.0082
    1PA    H12S 4546   4.881   3.669   5.393 -0.0924 -0.7700  0.4730
    1PA    C111 4547   4.977   3.629   5.570 -0.0495  0.4958  0.7340
    1PA    H11R 4548   4.896   3.671   5.631  0.4264  1.0400  1.0037
    1PA    H11S 4549   4.977   3.522   5.547 -0.9902  0.5191  0.6057
    1PA    C110 4550   5.106   3.661   5.653 -0.4097 -0.7153  0.2850
    1PA    H10R 4551   5.197   3.654   5.594 -0.4415  0.6522  0.0420
    1PA    H10S 4552   5.104   3.766   5.683  1.5573 -0.6551  0.3009
    1PA     C19 4553   5.112   3.576   5.784  0.5362 -0.0562  0.2796
    1PA     H9R 4554   5.019   3.606   5.832  1.1770  2.5028  0.0500
    1PA     H9S 4555   5.112   3.469   5.763 -3.7831  0.0573 -1.1654
    1PA     C18 4556   5.243   3.624   5.863  0.7966  0.9873  0.0060
    1PA     H8R 4557   5.319   3.605   5.787 -2.3405  0.5717 -3.2780
    1PA     H8S 4558   5.247   3.732   5.874  0.1546  1.3390 -2.5351
    1PA     C17 4559   5.267   3.557   5.998 -0.2702  0.2414 -1.0221
    1PA     H7R 4560   5.179   3.578   6.060  1.9741 -0.7480  2.8218
    1PA     H7S 4561   5.267   3.448   5.995  0.6225  0.2016  0.0297
    1PA     C16 4562   5.393   3.610   6.067  0.1250  0.0808 -0.4581
    1PA     H6R 4563   5.478   3.611   5.998 -1.0050 -1.6872 -1.9996
    1PA     H6S 4564   5.367   3.714   6.087 -0.8177 -0.6770  2.8672
    1PA     C15 4565   5.420   3.543   6.207 -0.2200 -0.0734 -0.1556
    1PA     H5R 4566   5.355   3.591   6.280 -2.7123 -1.9012 -1.0365
    1PA     H5S 4567   5.384   3.440   6.204  3.0246 -1.3201 -0.9361
    1PA     C14 4568   5.557   3.547   6.256 -0.6431 -0.6123 -0.2470
    1PA     H4R 4569   5.563   3.519   6.362  2.8667 -0.4285 -0.2700
    1PA     H4S 4570   5.626   3.477   6.208  1.5153 -0.2635  2.1244
    1PA     C13 4571   5.626   3.679   6.239 -0.5775 -0.1705  0.3053
    1PA     H3R 4572   5.731   3.678   6.267  0.0097  0.6154 -1.6854
    1PA     H3S 4573   5.634   3.688   6.130 -2.1353 -0.0147  0.1806
    1PA     C12 4574   5.553   3.804   6.286 -0.0291 -0.4121 -0.1533
    1PA     H2R 4575   5.592   3.895   6.241 -1.2192  0.6202  0.8211
    1PA     H2S 4576   5.450   3.814   6.251  0.0638  2.1179  0.1070
    1PC     C11 4577   5.554   3.817   6.440  1.3658  0.9150  0.1674
    1PC     O12 4578   5.535   3.722   6.516  1.1352  0.0797 -0.0598
    1PC     O11 4579   5.583   3.942   6.474  0.2048  0.1873 -0.7469
    1PC      C1 4580   5.560   4.003   6.612 -0.1119  0.0562 -0.4308
    1PC      HR 4581   5.551   3.924   6.686 -1.1869  1.7999  1.3769
    1PC      HS 4582   5.654   4.051   6.640  0.5318 -0.8695 -0.9541
    1PC      C2 4583   5.442   4.099   6.618  0.0628 -0.0606  0.3746
    1PC      HX 4584   5.453   4.170   6.536  1.5044 -0.5025  0.1477
    1PC      C3 4585   5.440   4.186   6.743 -0.0062  0.0853  0.5183
    1PC      HA 4586   5.520   4.259   6.734  0.6661 -0.6429  0.4554
    1PC      HB 4587   5.346   4.240   6.756 -1.0043 -1.4643  0.1229
    1PC     O31 4588   5.466   4.113   6.866  0.0213 -1.2896  0.1547
    1PC     P31 4589   5.351   4.091   6.973 -0.3713 -0.5066 -0.1482
    1PC     O32 4590   5.282   3.958   6.917  0.5107  0.5047 -0.4136
    1PC     C31 4591   5.348   3.830   6.941  0.4713 -0.2056 -0.0111
    1PC     H1A 4592   5.442   3.829   6.884  0.4763  0.7688 -0.0482
    1PC     H1B 4593   5.345   3.805   7.047  0.7177  0.9204  0.2806
    1PC     C32 4594   5.250   3.728   6.881  0.1528 -0.0291 -0.2525
    1PC     H2A 4595   5.226   3.748   6.777  0.4085  0.4312 -0.2257
    1PC     H2B 4596   5.306   3.635   6.884  0.1351 -0.0279  1.6805
    1PC     N31 4597   5.121   3.700   6.959  0.1184  0.2656  0.0286
    1PC     C33 4598   5.135   3.644   7.098  0.1329  0.6098  0.1632
    1PC     H3A 4599   5.195   3.719   7.150  0.4983  1.3715 -1.2830
    1PC     H3B 4600   5.037   3.630   7.144  0.3180 -1.7994 -0.0414
    1PC     H3C 4601   5.186   3.547   7.096  1.3664  1.2442 -0.4154
    1PC     C34 4602   5.032   3.822   6.969  0.3635 -0.0750 -0.5307
    1PC     H4A 4603   5.012   3.853   6.866  0.3531 -2.7797 -1.4359
    1PC     H4B 4604   4.937   3.798   7.016  0.7496  0.7880  0.7428
    1PC     H4C 4605   5.094   3.898   7.016 -1.7273  1.0951  0.4589
    1PC     C35 4606   5.045   3.597   6.880  0.1919  0.2189 -0.3085
    1PC     H5A 4607   4.949   3.575   6.929  0.5515  0.2664  0.4318
    1PC     H5B 4608   5.103   3.505   6.881  2.2339  1.4183  1.7317
    1PC     H5C 4609   5.031   3.639   6.780 -0.7420  3.5198  1.0318
    1PC     O33 4610   5.422   4.053   7.097 -0.5823 -0.2506 -0.0266
    1PC     O34 4611   5.255   4.203   6.975  0.2377  0.0046 -0.5025
    1PC     O21 4612   5.318   4.026   6.599  0.4493  0.6823  0.7604
    1PC     C21 4613   5.210   4.078   6.532 -0.8205  0.0631 -0.2543
    1PC     O22 4614   5.208   4.198   6.503  0.1754  0.3824 -0.0774
    1OL     C12 4615   5.113   3.977   6.488  0.3201 -0.0454  0.2717
    1OL     H2R 4616   5.015   4.006   6.527  0.9040  1.6526  0.5495
    1OL     H2S 4617   5.140   3.879   6.528  3.4529  0.0109 -1.4747
    1OL     C13 4618   5.113   3.972   6.329 -0.0014 -0.1584 -0.5980
    1OL     H3R 4619   5.205   3.927   6.292 -1.4351 -3.3389 -0.7036
    1OL     H3S 4620   5.093   4.063   6.272  0.7326  0.4137  0.0349
    1OL     C14 4621   5.004   3.887   6.274 -0.0866  0.8531 -0.3389
    1OL     H4R 4622   4.909   3.924   6.315 -0.5312  0.8996 -1.3877
    1OL     H4S 4623   5.022   3.791   6.324  0.7822  0.3066 -1.6503
    1OL     C15 4624   4.995   3.867   6.122  0.4252  0.5211  0.1846
    1OL     H5R 4625   4.927   3.783   6.107  1.9224 -0.5753 -0.7768
    1OL     H5S 4626   5.086   3.820   6.084 -0.9728 -0.7671 -1.7067
    1OL     C16 4627   4.962   4.002   6.044  0.0406  1.1703  0.7359
    1OL     H6R 4628   5.040   4.071   6.078  0.6883  0.4239  0.8054
    1OL     H6S 4629   4.865   4.034   6.081 -0.6479  0.8949 -0.7891
    1OL     C17 4630   4.951   3.996   5.892  0.0898 -0.2072 -0.4919
    1OL     H7R 4631   4.864   3.940   5.860  0.3974 -1.1195  0.2349
    1OL     H7S 4632   5.046   3.952   5.860  0.7064 -0.4055  1.4887
    1OL     C18 4633   4.948   4.140   5.819  0.8012  0.1998 -1.2382
    1OL     H8R 4634   4.975   4.125   5.715  0.6283  2.2020 -1.6132
    1OL     H8S 4635   5.019   4.209   5.865  2.1309 -2.7267  1.5455
    1OL     C19 4636   4.807   4.189   5.828 -0.3762  0.0425 -0.0196
    1OL     H9R 4637   4.776   4.231   5.924  1.3155  0.2671  0.4646
    1OL    C110 4638   4.718   4.195   5.732  0.3022 -0.3071  0.4429
    1OL    H10R 4639   4.620   4.242   5.742  0.6120  1.1947 -2.3928
    1OL    C111 4640   4.729   4.137   5.595 -0.4704 -0.2599  0.4620
    1OL    H11R 4641   4.655   4.059   5.575 -0.3941 -0.1895 -0.0978
    1OL    H11S 4642   4.823   4.084   5.580 -0.4658  0.6677 -3.9532
    1OL    C112 4643   4.720   4.249   5.491 -0.2434 -0.3715 -0.0402
    1OL    H12R 4644   4.797   4.321   5.520 -0.6263 -0.4692  1.2909
    1OL    H12S 4645   4.619   4.290   5.485  0.0731  0.3557 -0.3899
    1OL    C113 4646   4.760   4.212   5.352  0.4440  0.5175 -0.2206
    1OL    H13R 4647   4.869   4.199   5.356  0.2502 -1.4745 -0.3058
    1OL    H13S 4648   4.735   4.304   5.298  1.0096  1.3340  0.8653
    1OL    C114 4649   4.677   4.094   5.294 -0.4227  0.3530  0.5403
    1OL    H14R 4650   4.689   4.006   5.358  1.6631  2.0851  2.6705
    1OL    H14S 4651   4.725   4.073   5.198 -1.1277  1.2608 -0.0279
    1OL    C115 4652   4.531   4.129   5.252 -0.3225  0.2346  1.0941
    1OL    H15R 4653   4.527   4.204   5.172  1.2901  0.0043  0.7704
    1OL    H15S 4654   4.475   4.172   5.335 -1.4089 -0.7478  0.8929
    1OL    C116 4655   4.448   4.010   5.205  0.4599 -0.4945 -0.7241
    1OL    H16R 4656   4.348   4.043   5.177  0.9428  0.7442 -1.1084
    1OL    H16S 4657   4.431   3.946   5.292 -0.3001 -2.0435 -1.9687
    1OL    C117 4658   4.498   3.924   5.087  0.6133  0.2992  1.0572
    1OL    H17R 4659   4.424   3.845   5.069  1.8269 -0.3921 -1.4368
    1OL    H17S 4660   4.586   3.869   5.121  0.3290 -0.2513  0.9228
    1OL    C118 4661   4.531   4.008   4.959  0.2830  1.0826 -0.7951
    1OL    H18R 4662   4.603   4.085   4.988 -1.3291  1.6779  1.9824
    1OL    H18S 4663   4.436   4.036   4.914 -1.0824 -1.4111  0.2840
    1OL    H18T 4664   4.581   3.934   4.896 -0.5701  1.3429 -1.8041
    1PA    C116 4665   0.948   1.672   5.374  0.1578 -0.5158  0.1205
    1PA    H16R 4666   0.878   1.715   5.302 -2.9128  1.2559  3.8048
    1PA    H16S 4667   1.046   1.713   5.350 -0.4913  0.7950 -0.3848
    1PA    H16T 4668   0.914   1.707   5.471 -0.6671 -0.9267 -0.0079
    1PA    C115 4669   0.946   1.521   5.353  0.3957 -0.2534 -1.1845
    1PA    H15R 4670   0.841   1.491   5.352 -0.0310  1.0034  0.6100
    1PA    H15S 4671   0.993   1.515   5.255  2.7261  2.1194 -0.3200
    1PA    C114 4672   1.036   1.451   5.462 -0.5953  0.0555  0.2225
    1PA    H14R 4673   1.023   1.343   5.450 -2.8575  0.2298  0.5778
    1PA    H14S 4674   1.135   1.485   5.433 -0.9251  0.5876 -0.3022
    1PA    C113 4675   1.009   1.473   5.610 -0.0646  0.1920  0.4057
    1PA    H13R 4676   1.042   1.573   5.640 -0.2492 -0.1284  1.7558
    1PA    H13S 4677   0.902   1.470   5.628 -0.0592  0.1313  0.4291
    1PA    C112 4678   1.054   1.360   5.705 -0.7233 -0.1552 -1.0049
    1PA    H12R 4679   1.015   1.378   5.805  0.1836  1.9207 -0.9689
    1PA    H12S 4680   1.020   1.266   5.660 -0.9835 -1.3145  1.4555
    1PA    C111 4681   1.209   1.366   5.728  0.1771  0.6903 -0.5380
    1PA    H11R 4682   1.239   1.289   5.799  1.8468  1.1833 -0.6596
    1PA    H11S 4683   1.255   1.344   5.632  1.2104 -0.9547  0.2952
    1PA    C110 4684   1.262   1.502   5.787 -0.2431 -0.5106  0.0372
    1PA    H10R 4685   1.369   1.485   5.800 -0.2221 -1.5303 -1.2544
    1PA    H10S 4686   1.258   1.583   5.715  0.5682  0.0836  0.6458
    1PA     C19 4687   1.211   1.550   5.924 -0.0305  0.6634 -0.0497
    1PA     H9R 4688   1.239   1.652   5.950  3.6051 -0.1304 -0.4041
    1PA     H9S 4689   1.102   1.543   5.918 -0.0836 -2.3040  2.0678
    1PA     C18 4690   1.259   1.462   6.044  0.2873  0.2384  0.1468
    1PA     H8R 4691   1.241   1.361   6.006  0.7244  0.1799  0.0800
    1PA     H8S 4692   1.368   1.467   6.051  0.4702  0.8571 -2.3847
    1PA     C17 4693   1.180   1.494   6.170  0.6064  0.4792  0.1785
    1PA     H7R 4694   1.197   1.601   6.183  1.5940  0.5211 -1.1629
    1PA     H7S 4695   1.074   1.481   6.150  0.5424  3.1844 -1.6264
    1PA     C16 4696   1.221   1.405   6.285 -0.5859  0.1855 -0.2140
    1PA     H6R 4697   1.327   1.422   6.304 -0.7138  1.0458 -0.2301
    1PA     H6S 4698   1.170   1.433   6.377 -1.8027  0.5763 -0.9869
    1PA     C15 4699   1.187   1.250   6.265 -0.5793  0.0099 -0.2221
    1PA     H5R 4700   1.084   1.233   6.234 -0.4829 -0.0164 -0.5369
    1PA     H5S 4701   1.247   1.213   6.181  0.3731  2.9684 -0.9634
    1PA     C14 4702   1.222   1.163   6.387 -1.0677 -0.8190  0.3274
    1PA     H4R 4703   1.211   1.060   6.354  0.0578 -0.3834 -1.5274
    1PA     H4S 4704   1.327   1.190   6.402 -0.9405 -0.6062 -0.8054
    1PA     C13 4705   1.137   1.195   6.513  0.8688  0.1284  0.1028
    1PA     H3R 4706   1.133   1.302   6.533  0.1694  0.0116  0.6137
    1PA     H3S 4707   1.035   1.166   6.488  0.8955 -0.3815  0.5900
    1PA     C12 4708   1.169   1.116   6.641  0.2073  0.4059 -0.2858
    1PA     H2R 4709   1.164   1.011   6.610 -0.7774 -0.2966  2.0259
    1PA     H2S 4710   1.270   1.139   6.675  0.7987 -3.0353  0.7426
    1PC     C11 4711   1.069   1.141   6.758  1.0590  0.4388 -0.0545
    1PC     O12 4712   1.104   1.171   6.870 -0.6564 -0.1478 -0.4713
    1PC     O11 4713   0.946   1.122   6.721  0.2041  0.0707 -0.2810
    1PC      C1 4714   0.844   1.127   6.825 -0.2666  0.1444 -0.6816
    1PC      HR 4715   0.756   1.068   6.798  0.0895 -0.6768 -0.1003
    1PC      HS 4716   0.876   1.071   6.914  0.4919  0.3808 -0.7979
    1PC      C2 4717   0.795   1.263   6.866  0.1419 -0.5891 -0.0603
    1PC      HX 4718   0.881   1.326   6.890 -0.4058 -0.4038  1.5596
    1PC      C3 4719   0.697   1.258   6.985  0.0536 -0.0580 -0.3133
    1PC      HA 4720   0.614   1.196   6.951  0.0290  0.0113 -0.3799
    1PC      HB 4721   0.750   1.222   7.074  1.1040 -1.5117 -1.4715
    1PC     O31 4722   0.636   1.391   7.019 -0.4436 -0.1879 -0.3210
    1PC     P31 4723   0.707   1.505   7.106 -0.1039 -0.1885  0.0340
    1PC     O32 4724   0.608   1.499   7.231 -0.1587  0.1733  0.1121
    1PC     C31 4725   0.476   1.554   7.244 -0.4948 -0.0552 -0.3011
    1PC     H1A 4726   0.466   1.642   7.308 -1.7151 -0.2293 -0.2242
    1PC     H1B 4727   0.446   1.585   7.144  1.2136  1.7610 -0.2984
    1PC     C32 4728   0.381   1.449   7.300 -0.0568 -0.2362 -0.0714
    1PC     H2A 4729   0.408   1.412   7.399  1.6483 -0.2297 -0.4922
    1PC     H2B 4730   0.282   1.488   7.321  0.9220  1.7308  1.1184
    1PC     N31 4731   0.359   1.324   7.222  0.3830 -0.1720 -0.0483
    1PC     C33 4732   0.229   1.262   7.274 -0.3365 -0.5059 -0.9653
    1PC     H3A 4733   0.252   1.256   7.380  0.0555 -1.0059 -1.0763
    1PC     H3B 4734   0.150   1.338   7.272  0.7392  0.6726 -0.5070
    1PC     H3C 4735   0.201   1.167   7.229 -0.6283 -0.3134 -1.1966
    1PC     C34 4736   0.327   1.349   7.076 -0.5405  0.0845 -0.0005
    1PC     H4A 4737   0.248   1.424   7.076  0.8325  1.7522 -3.3637
    1PC     H4B 4738   0.420   1.386   7.033 -1.0125  0.4469 -0.7309
    1PC     H4C 4739   0.307   1.255   7.024  0.8921 -0.3979  0.2905
    1PC     C35 4740   0.467   1.224   7.231 -0.2287 -0.1916 -0.3867
    1PC     H5A 4741   0.548   1.261   7.167  0.5934 -1.2127  0.0270
    1PC     H5B 4742   0.436   1.127   7.191  1.5407 -0.7996 -0.3803
    1PC     H5C 4743   0.501   1.214   7.334 -0.1431  0.6843 -0.3229
    1PC     O33 4744   0.845   1.463   7.151 -0.0351 -0.2105 -0.4496
    1PC     O34 4745   0.682   1.634   7.043 -0.2620 -0.0015  0.3799
    1PC     O21 4746   0.717   1.319   6.754 -0.5184  0.3434  0.4444
    1PC     C21 4747   0.783   1.384   6.658  0.1041 -0.1160  0.1353
    1PC     O22 4748   0.890   1.438   6.678  0.4073 -0.2205 -0.9746
    1OL     C12 4749   0.714   1.404   6.529 -0.5447 -0.1909 -0.3987
    1OL     H2R 4750   0.622   1.460   6.543 -0.0374  0.8479 -1.0475
    1OL     H2S 4751   0.692   1.306   6.485 -2.6089  0.0953 -0.0747
    1OL     C13 4752   0.803   1.486   6.429  1.2685 -0.2202  0.3316
    1OL     H3R 4753   0.892   1.424   6.420 -0.8412 -3.2988 -1.0920
    1OL     H3S 4754   0.828   1.585   6.469  1.3010  1.0854 -2.6223
    1OL     C14 4755   0.726   1.517   6.291  0.5899 -0.5552  0.1214
    1OL     H4R 4756   0.793   1.578   6.231  0.3323  0.9913  1.3479
    1OL     H4S 4757   0.639   1.581   6.311  1.0579  0.3066 -0.5409
    1OL     C15 4758   0.691   1.386   6.212 -0.1313 -0.2977 -0.0051
    1OL     H5R 4759   0.605   1.334   6.256  0.5373 -2.1669 -0.8275
    1OL     H5S 4760   0.768   1.312   6.234  0.2979  0.0602 -0.3045
    1OL     C16 4761   0.676   1.403   6.055 -0.3744 -0.7836 -0.2050
    1OL     H6R 4762   0.618   1.318   6.019 -1.6212  0.0103 -0.1209
    1OL     H6S 4763   0.776   1.408   6.011  0.2710  1.6587  1.3563
    1OL     C17 4764   0.601   1.535   6.023  0.1445 -0.0181 -0.3282
    1OL     H7R 4765   0.640   1.636   6.040 -1.2087  0.9913 -2.6331
    1OL     H7S 4766   0.516   1.527   6.092  0.4202  4.0852  0.7860
    1OL     C18 4767   0.539   1.550   5.887 -0.3342 -0.1486 -0.4101
    1OL     H8R 4768   0.606   1.590   5.811  0.2864  1.2356  0.8011
    1OL     H8S 4769   0.469   1.632   5.902 -0.1020  0.1948 -1.1571
    1OL     C19 4770   0.463   1.429   5.834 -0.6975  1.3622 -0.3050
    1OL     H9R 4771   0.387   1.392   5.902 -0.3837  1.9320  0.3739
    1OL    C110 4772   0.496   1.362   5.724  0.7322 -0.2039 -0.2370
    1OL    H10R 4773   0.439   1.272   5.700  0.6067 -0.0998 -0.3273
    1OL    C111 4774   0.603   1.397   5.627 -0.4751  0.0606  0.3320
    1OL    H11R 4775   0.670   1.313   5.608  3.8469  3.4238 -1.3182
    1OL    H11S 4776   0.670   1.474   5.667  1.2545 -0.5910 -1.1788
    1OL    C112 4777   0.550   1.435   5.497  0.1375 -0.2368  0.4202
    1OL    H12R 4778   0.627   1.440   5.419  1.4626 -0.4071  1.6763
    1OL    H12S 4779   0.516   1.539   5.504  2.8037  0.7663 -0.2661
    1OL    C113 4780   0.439   1.352   5.426  0.0405 -0.2827 -0.0163
    1OL    H13R 4781   0.348   1.359   5.486  0.4479 -0.0872  0.5973
    1OL    H13S 4782   0.461   1.245   5.415  0.1528 -0.2286 -0.3147
    1OL    C114 4783   0.400   1.406   5.287 -0.4676 -0.0715 -0.1861
    1OL    H14R 4784   0.486   1.409   5.219 -0.9629 -1.1354 -0.8852
    1OL    H14S 4785   0.356   1.505   5.296 -1.0989 -0.2612 -1.0301
    1OL    C115 4786   0.274   1.326   5.236  0.3846  0.5484  0.9676
    1OL    H15R 4787   0.227   1.379   5.153 -3.1078  0.0528  2.4403
    1OL    H15S 4788   0.193   1.325   5.308 -1.2205  0.0995 -0.7679
    1OL    C116 4789   0.306   1.182   5.184  0.8053  0.8184  0.0869
    1OL    H16R 4790   0.371   1.126   5.251  1.2864 -0.7574 -1.5989
    1OL    H16S 4791   0.360   1.182   5.089  0.2216  1.6683 -0.2637
    1OL    C117 4792   0.179   1.087   5.169  0.9114 -0.3421  0.0700
    1OL    H17R 4793   0.100   1.113   5.098  1.7880 -0.6784 -1.0630
    1OL    H17S 4794   0.133   1.085   5.268  2.7756 -1.6765  0.9802
    1OL    C118 4795   0.207   0.945   5.142 -0.4497 -0.1672 -0.0378
    1OL    H18R 4796   0.299   0.914   5.193 -1.2874  0.3676  1.9099
    1OL    H18S 4797   0.226   0.931   5.036 -1.0408 -1.9415  0.0554
    1OL    H18T 4798   0.114   0.891   5.162  0.4101 -0.8045  2.6629
    1PA    C116 4799   0.838   1.625   4.955 -0.2416 -0.0212 -0.5693
    1PA    H16R 4800   0.812   1.531   4.905 -1.1577  0.0812 -0.3098
    1PA    H16S 4801   0.757   1.646   5.026 -0.4903  2.8882 -1.5690
    1PA    H16T 4802   0.935   1.614   5.004  0.1621 -2.0741 -1.7125
    1PA    C115 4803   0.840   1.731   4.849  0.0435 -0.6478  0.6997
    1PA    H15R 4804   0.911   1.694   4.775  1.0448 -0.9256  1.7672
    1PA    H15S 4805   0.737   1.741   4.814  0.0396 -0.1827  0.8280
    1PA    C114 4806   0.900   1.861   4.900 -0.5986 -0.9873 -0.5380
    1PA    H14R 4807   0.999   1.844   4.942 -0.6361  0.0730 -0.0014
    1PA    H14S 4808   0.918   1.928   4.816 -0.8041  0.3070  0.4236
    1PA    C113 4809   0.824   1.931   5.009 -0.0181 -0.0664  0.2964
    1PA    H13R 4810   0.738   1.987   4.973 -1.0161 -0.9552  1.2320
    1PA    H13S 4811   0.783   1.860   5.081 -2.5577  0.4972 -0.4782
    1PA    C112 4812   0.911   2.043   5.089 -0.0894  1.0199  0.1003
    1PA    H12R 4813   0.989   1.987   5.142 -2.3346 -0.6305  1.8323
    1PA    H12S 4814   0.952   2.118   5.021 -0.1588  0.4595 -0.5686
    1PA    C111 4815   0.841   2.125   5.197  0.0904 -0.6053  0.2209
    1PA    H11R 4816   0.908   2.208   5.219  1.2906 -1.4528 -0.1422
    1PA    H11S 4817   0.741   2.165   5.176 -0.4924 -0.3715  3.0548
    1PA    C110 4818   0.834   2.035   5.329 -0.5195 -0.8643 -0.1156
    1PA    H10R 4819   0.821   1.934   5.290  1.2888 -1.0755 -0.2909
    1PA    H10S 4820   0.926   2.047   5.387 -0.6770  1.2726 -0.2197
    1PA     C19 4821   0.732   2.095   5.426  0.1246  0.7819 -0.1486
    1PA     H9R 4822   0.761   2.196   5.455  3.3175 -0.1057  0.1407
    1PA     H9S 4823   0.637   2.094   5.372 -0.0482 -1.2707  0.0776
    1PA     C18 4824   0.729   2.007   5.552  0.5450  0.1642 -0.4677
    1PA     H8R 4825   0.689   1.909   5.524  0.9801  0.4159 -2.0347
    1PA     H8S 4826   0.826   1.992   5.600 -0.1824 -1.6993  0.5535
    1PA     C17 4827   0.641   2.073   5.660 -0.2270 -0.0778 -0.7677
    1PA     H7R 4828   0.685   2.160   5.708 -1.1685 -1.2715  2.5420
    1PA     H7S 4829   0.551   2.109   5.609 -1.7558 -1.9834  0.3990
    1PA     C16 4830   0.619   1.970   5.770  0.0704  0.1133  0.3167
    1PA     H6R 4831   0.569   1.884   5.726 -1.6942 -0.2970  2.9531
    1PA     H6S 4832   0.719   1.952   5.810 -0.0549  2.2001  1.7404
    1PA     C15 4833   0.512   2.017   5.867  0.9819  0.2455  0.1228
    1PA     H5R 4834   0.543   2.107   5.920  1.4917  1.7765 -2.5668
    1PA     H5S 4835   0.412   2.038   5.826  1.7443  1.1669 -1.3629
    1PA     C14 4836   0.478   1.925   5.977 -0.3490  1.0263 -0.2290
    1PA     H4R 4837   0.418   1.837   5.950  3.6254 -2.3659  0.9318
    1PA     H4S 4838   0.578   1.893   6.006 -0.3881  1.9659  1.0494
    1PA     C13 4839   0.396   1.997   6.091 -0.0821 -0.1648 -0.5203
    1PA     H3R 4840   0.444   2.090   6.119 -0.9615 -0.1715  1.1634
    1PA     H3S 4841   0.295   2.012   6.050  0.3755 -0.2136 -1.7086
    1PA     C12 4842   0.382   1.905   6.222 -0.0232 -0.2157  0.2441
    1PA     H2R 4843   0.309   1.827   6.202  0.7395 -1.1694  1.0503
    1PA     H2S 4844   0.477   1.854   6.243 -0.5258 -0.6691  1.5086
    1PC     C11 4845   0.334   1.993   6.337 -0.6252  0.0357  0.7193
    1PC     O12 4846   0.360   2.111   6.340 -0.0016 -0.6644  0.3254
    1PC     O11 4847   0.265   1.921   6.428  0.0019  0.0620 -0.4037
    1PC      C1 4848   0.226   1.977   6.552  0.3408 -1.1843  0.1044
    1PC      HR 4849   0.225   2.085   6.537  1.8712 -1.3292 -1.3764
    1PC      HS 4850   0.136   1.939   6.600  0.3730  1.0717  2.1195
    1PC      C2 4851   0.337   1.942   6.653 -0.2524 -0.3266  0.3016
    1PC      HX 4852   0.351   1.834   6.654 -1.0809 -0.4344  1.2192
    1PC      C3 4853   0.312   1.970   6.800  0.2303 -0.0451 -0.8157
    1PC      HA 4854   0.225   1.925   6.850  1.7863 -0.0466  2.0956
    1PC      HB 4855   0.401   1.941   6.856 -1.1338 -1.2900  0.8533
    1PC     O31 4856   0.275   2.115   6.809  0.0420 -0.6212  0.7384
    1PC     P31 4857   0.297   2.194   6.942 -0.4177  0.0780  0.0600
    1PC     O32 4858   0.457   2.211   6.945  0.3560 -0.4731 -0.2006
    1PC     C31 4859   0.523   2.314   6.869  0.2834 -0.2342  0.1066
    1PC     H1A 4860   0.576   2.259   6.790 -1.7475 -1.2357 -0.6336
    1PC     H1B 4861   0.449   2.375   6.817  0.2205  1.1446  1.7335
    1PC     C32 4862   0.626   2.396   6.945  1.2102  0.2773 -0.0192
    1PC     H2A 4863   0.698   2.330   6.993  0.2894  0.1642  1.2563
    1PC     H2B 4864   0.678   2.450   6.866 -0.4353 -1.1573 -2.2198
    1PC     N31 4865   0.581   2.491   7.053  0.6938  0.2759 -0.6026
    1PC     C33 4866   0.516   2.412   7.164 -0.7330 -0.0721 -0.8087
    1PC     H3A 4867   0.471   2.471   7.244 -2.7207 -2.7076  0.1845
    1PC     H3B 4868   0.425   2.373   7.119 -1.6862  1.2037 -0.0646
    1PC     H3C 4869   0.582   2.333   7.200 -0.6895  0.9931  1.6776
    1PC     C34 4870   0.703   2.552   7.109 -0.3197  0.0606 -0.2184
    1PC     H4A 4871   0.761   2.472   7.155  0.3794  1.4231  1.3634
    1PC     H4B 4872   0.760   2.600   7.030 -0.5534 -0.1260 -0.5032
    1PC     H4C 4873   0.675   2.626   7.184 -0.8670  1.1939 -1.4969
    1PC     C35 4874   0.489   2.596   7.012 -0.2151  0.4948 -0.4805
    1PC     H5A 4875   0.415   2.554   6.943 -0.7615 -0.2704  0.5513
    1PC     H5B 4876   0.543   2.684   6.976  1.6244 -0.8030 -1.0204
    1PC     H5C 4877   0.434   2.631   7.099 -0.8485  3.7315 -1.9997
    1PC     O33 4878   0.229   2.326   6.935  0.3538 -0.5387 -0.5522
    1PC     O34 4879   0.254   2.105   7.055  0.0617 -0.3133  0.4885
    1PC     O21 4880   0.455   2.013   6.618  0.2749 -0.2354 -0.1883
    1PC     C21 4881   0.567   1.946   6.585  0.0734  0.0316  0.1124
    1PC     O22 4882   0.585   1.826   6.583  0.3369 -0.1878  0.7171
    1OL     C12 4883   0.676   2.036   6.544 -0.9303 -0.5765 -0.1743
    1OL     H2R 4884   0.713   2.098   6.627  0.2541  0.2533 -1.2831
    1OL     H2S 4885   0.637   2.099   6.464  1.6040  0.9158 -0.3810
    1OL     C13 4886   0.793   1.964   6.479 -0.2489 -0.0551 -0.0376
    1OL     H3R 4887   0.820   1.883   6.547 -2.0346  0.0952  0.8988
    1OL     H3S 4888   0.880   2.030   6.476 -0.3968  0.1269 -0.3376
    1OL     C14 4889   0.771   1.931   6.338  0.2050 -0.5183  0.6667
    1OL     H4R 4890   0.729   2.021   6.291  0.4715 -0.5475  0.3688
    1OL     H4S 4891   0.693   1.856   6.324 -1.1408  1.0036 -0.3950
    1OL     C15 4892   0.892   1.884   6.249 -0.0099 -0.8635 -0.1610
    1OL     H5R 4893   0.930   1.791   6.292 -1.7504 -0.9798  1.2544
    1OL     H5S 4894   0.974   1.955   6.253  1.3537 -2.4168  2.1879
    1OL     C16 4895   0.850   1.865   6.105  0.4459  0.5496  0.5095
    1OL     H6R 4896   0.809   1.955   6.059 -0.0219 -0.0907 -0.3699
    1OL     H6S 4897   0.773   1.787   6.101 -0.6078  1.4424  2.1902
    1OL     C17 4898   0.975   1.825   6.024  0.1153 -0.5010 -0.2320
    1OL     H7R 4899   0.945   1.772   5.933  1.5028  0.5369 -1.3396
    1OL     H7S 4900   1.031   1.753   6.084  1.6031  0.1874 -0.7422
    1OL     C18 4901   1.072   1.943   5.993 -0.3809 -0.8514 -0.0520
    1OL     H8R 4902   1.101   1.989   6.088  4.0815 -1.1959 -1.0305
    1OL     H8S 4903   1.026   2.019   5.929  0.3922  0.2034  0.6234
    1OL     C19 4904   1.204   1.901   5.929  0.3673  0.0045 -0.1391
    1OL     H9R 4905   1.287   1.882   5.997 -0.3953  2.0732  1.4867
    1OL    C110 4906   1.216   1.880   5.797  0.3100  0.8541  0.1126
    1OL    H10R 4907   1.314   1.845   5.764  0.3539 -0.6600  1.7484
    1OL    C111 4908   1.106   1.903   5.689  0.6413 -0.5607 -0.5720
    1OL    H11R 4909   1.020   1.955   5.731  2.1239  1.3769  0.2729
    1OL    H11S 4910   1.085   1.804   5.649 -2.3345  0.3810 -1.5622
    1OL    C112 4911   1.157   1.977   5.569  0.1791  0.1086  0.0611
    1OL    H12R 4912   1.176   2.081   5.594  1.8655 -0.4387  1.2283
    1OL    H12S 4913   1.082   1.979   5.489 -1.6425 -1.5892  1.6035
    1OL    C113 4914   1.297   1.918   5.526 -0.2374 -0.0571  0.1920
    1OL    H13R 4915   1.294   1.809   5.525 -0.9538 -0.0408 -0.5121
    1OL    H13S 4916   1.373   1.953   5.596 -1.0524 -0.7187  1.4442
    1OL    C114 4917   1.334   1.957   5.383  0.3183  0.3717  0.1542
    1OL    H14R 4918   1.442   1.948   5.370  0.1249 -1.7430 -0.4234
    1OL    H14S 4919   1.300   2.060   5.371 -2.7157 -0.5246  0.0389
    1OL    C115 4920   1.271   1.870   5.272 -0.6608 -0.9468  0.1191
    1OL    H15R 4921   1.162   1.868   5.273 -0.7480  1.2895  0.4520
    1OL    H15S 4922   1.313   1.769   5.277  0.1954 -0.5506  1.4342
    1OL    C116 4923   1.296   1.924   5.122  0.1621  0.4079  0.2094
    1OL    H16R 4924   1.222   1.868   5.064 -0.7800  1.7687  0.0538
    1OL    H16S 4925   1.392   1.903   5.076  0.5949  3.3847 -0.4715
    1OL    C117 4926   1.277   2.075   5.098 -0.0891 -0.2924  0.1307
    1OL    H17R 4927   1.370   2.127   5.122  0.5045 -0.3161 -1.8782
    1OL    H17S 4928   1.200   2.114   5.164  0.4117  0.4875  0.2679
    1OL    C118 4929   1.244   2.107   4.945  0.1802 -0.0595  0.7249
    1OL    H18R 4930   1.137   2.092   4.928  0.1822 -0.2171  0.8455
    1OL    H18S 4931   1.259   2.214   4.934 -2.6314  0.5107  1.6988
    1OL    H18T 4932   1.295   2.047   4.869 -1.7566  0.6084 -1.2091
    1PA    C116 4933   0.244   4.890   4.992 -0.1230  0.9003  0.0956
    1PA    H16R 4934   0.199   4.858   4.898  3.1964  0.4364 -1.4966
    1PA    H16S 4935   0.353   4.905   4.989 -0.1578  1.1664  0.1519
    1PA    H16T 4936   0.196   4.977   5.035  0.3005 -0.6753  4.1858
    1PA    C115 4937   0.217   4.765   5.076 -0.4168  0.6148 -0.2114
    1PA    H15R 4938   0.109   4.753   5.090 -0.0207 -2.3535  1.1993
    1PA    H15S 4939   0.252   4.683   5.013 -0.6995  1.9978 -2.2491
    1PA    C114 4940   0.293   4.769   5.209 -0.1020  0.0713  0.2607
    1PA    H14R 4941   0.397   4.794   5.185  0.5930 -2.3750  0.4655
    1PA    H14S 4942   0.249   4.846   5.272 -1.4863 -0.2175 -0.3178
    1PA    C113 4943   0.287   4.632   5.276  0.3513  0.7080 -0.7587
    1PA    H13R 4944   0.182   4.602   5.280  1.2280 -2.7901 -0.1783
    1PA    H13S 4945   0.334   4.556   5.213  2.1353  0.6031  0.6254
    1PA    C112 4946   0.339   4.635   5.423  0.4234  0.1931  0.7059
    1PA    H12R 4947   0.430   4.694   5.436  0.6134  0.0610  0.0382
    1PA    H12S 4948   0.258   4.678   5.482 -2.8419 -0.3078 -2.9683
    1PA    C111 4949   0.376   4.500   5.481 -0.1608 -0.0862 -0.4621
    1PA    H11R 4950   0.280   4.449   5.482  1.3225 -3.2243  2.3242
    1PA    H11S 4951   0.442   4.447   5.412  0.3952  0.0633 -0.0508
    1PA    C110 4952   0.437   4.503   5.623 -0.0056 -0.2740  0.4718
    1PA    H10R 4953   0.537   4.546   5.619 -0.8997  2.1742  2.1222
    1PA    H10S 4954   0.384   4.569   5.692 -0.3192 -0.4940  0.4411
    1PA     C19 4955   0.444   4.365   5.690 -0.5380  0.2670 -0.0867
    1PA     H9R 4956   0.453   4.385   5.797  2.4792 -0.8884 -0.0460
    1PA     H9S 4957   0.347   4.314   5.684 -0.5201 -0.0593  1.7613
    1PA     C18 4958   0.563   4.280   5.638 -0.7645 -0.3291  1.1236
    1PA     H8R 4959   0.536   4.254   5.536  1.3715 -0.2877  0.5114
    1PA     H8S 4960   0.658   4.334   5.643 -1.3843  1.0173 -0.5693
    1PA     C17 4961   0.582   4.141   5.715  0.0452  0.4927  0.1805
    1PA     H7R 4962   0.494   4.079   5.698  0.9534 -1.3319  1.8529
    1PA     H7S 4963   0.669   4.089   5.675 -0.3569 -1.8627  2.1606
    1PA     C16 4964   0.606   4.161   5.867 -0.1907 -0.7167  0.4207
    1PA     H6R 4965   0.698   4.219   5.868  0.1878 -1.2108 -1.2223
    1PA     H6S 4966   0.523   4.209   5.920  1.1225  1.3399  0.7078
    1PA     C15 4967   0.617   4.027   5.941 -0.4592  0.3312 -0.1506
    1PA     H5R 4968   0.532   3.968   5.905  1.1043 -0.7453 -2.2911
    1PA     H5S 4969   0.696   3.970   5.893 -1.3104 -0.0010 -1.2057
    1PA     C14 4970   0.628   4.047   6.095  0.1359 -0.2171  0.2331
    1PA     H4R 4971   0.706   4.123   6.110 -0.1327  0.7833 -2.7306
    1PA     H4S 4972   0.530   4.078   6.131 -0.0326 -1.3351  0.7624
    1PA     C13 4973   0.667   3.931   6.178  0.0914 -0.1003 -0.0701
    1PA     H3R 4974   0.594   3.852   6.156 -0.0130  0.2539 -1.0540
    1PA     H3S 4975   0.764   3.895   6.144  0.9468 -0.5904  2.6734
    1PA     C12 4976   0.679   3.958   6.333  0.0741 -0.1913  0.7018
    1PA     H2R 4977   0.745   4.044   6.347 -0.4909  0.7418 -1.7035
    1PA     H2S 4978   0.579   3.989   6.365  0.5616  3.1644 -0.5488
    1PC     C11 4979   0.718   3.833   6.413 -0.3324  0.1396 -0.1686
    1PC     O12 4980   0.634   3.758   6.459  0.1752 -0.0002  0.3673
    1PC     O11 4981   0.853   3.823   6.434  0.0893  0.2398 -0.1989
    1PC      C1 4982   0.892   3.711   6.517  0.2674 -0.0707 -0.6164
    1PC      HR 4983   0.837   3.709   6.612  0.6600 -0.7820 -0.3951
    1PC      HS 4984   0.860   3.627   6.454  0.0671  0.8078 -1.7130
    1PC      C2 4985   1.046   3.709   6.560 -0.6063 -0.6289  0.3862
    1PC      HX 4986   1.056   3.616   6.617 -2.6625  0.0969  2.0602
    1PC      C3 4987   1.081   3.832   6.656 -0.5350 -0.6690 -0.0794
    1PC      HA 4988   1.185   3.860   6.636 -0.7005  0.0353  0.0174
    1PC      HB 4989   1.014   3.917   6.640  0.7273  0.5291  0.7592
    1PC     O31 4990   1.066   3.796   6.798  0.0307 -0.5627  0.0917
    1PC     P31 4991   0.926   3.789   6.868  0.1732  0.2644  0.1991
    1PC     O32 4992   0.962   3.830   7.021  0.6879 -0.0283  0.0689
    1PC     C31 4993   0.969   3.967   7.066 -0.0586 -0.7800 -0.1047
    1PC     H1A 4994   1.061   4.008   7.024  0.7836 -2.5881 -0.1236
    1PC     H1B 4995   0.878   4.019   7.035 -0.7825 -1.1061  1.3427
    1PC     C32 4996   0.982   3.964   7.217  0.3304  0.5316 -0.4939
    1PC     H2A 4997   0.959   4.067   7.245 -0.6186  0.4822 -1.0366
    1PC     H2B 4998   0.897   3.905   7.250 -0.0933  1.3428 -0.0960
    1PC     N31 4999   1.108   3.926   7.291 -0.3054 -0.0210 -0.3301
    1PC     C33 5000   1.204   4.035   7.298 -0.3736 -1.3196 -0.6307
    1PC     H3A 5001   1.210   4.063   7.193 -0.5007  1.1490 -0.0406
    1PC     H3B 5002   1.169   4.112   7.367 -0.8174 -0.7840 -1.4432
    1PC     H3C 5003   1.301   3.995   7.329 -0.0086  1.1852  1.9779
    1PC     C34 5004   1.063   3.891   7.432  0.2249  0.2647  0.0380
    1PC     H4A 5005   1.023   3.984   7.473  0.3543  0.8634 -1.1513
    1PC     H4B 5006   0.982   3.819   7.422  1.6676 -1.2254 -1.6477
    1PC     H4C 5007   1.146   3.853   7.491 -0.7100  1.1789  2.0401
    1PC     C35 5008   1.179   3.820   7.221 -0.7782 -0.0248  0.2624
    1PC     H5A 5009   1.238   3.859   7.138  0.6782  0.5127  1.5066
    1PC     H5B 5010   1.108   3.748   7.179  0.8390 -1.1829 -0.6523
    1PC     H5C 5011   1.252   3.775   7.288  1.5504  1.0599 -1.3965
    1PC     O33 5012   0.836   3.887   6.808  0.0694 -0.7642 -0.1308
    1PC     O34 5013   0.881   3.651   6.878 -0.1002 -0.2808  0.0656
    1PC     O21 5014   1.141   3.708   6.449  0.7847 -0.0381  0.3215
    1PC     C21 5015   1.142   3.589   6.379 -0.1579 -0.2287  0.1676
    1PC     O22 5016   1.078   3.490   6.411  0.0761 -0.6208 -0.1496
    1OL     C12 5017   1.230   3.595   6.260 -0.4570 -0.5673  0.2350
    1OL     H2R 5018   1.319   3.539   6.288 -0.1820 -0.7173 -0.8876
    1OL     H2S 5019   1.266   3.696   6.238 -0.7931 -0.4044  0.4313
    1OL     C13 5020   1.158   3.535   6.136 -0.7141 -0.8117 -0.8542
    1OL     H3R 5021   1.095   3.614   6.096 -1.2510 -0.2509  0.9934
    1OL     H3S 5022   1.084   3.464   6.175 -1.1417  0.0145 -0.1226
    1OL     C14 5023   1.249   3.462   6.034 -0.3514  0.7479 -0.9744
    1OL     H4R 5024   1.304   3.381   6.081  0.6995  0.8438 -2.0051
    1OL     H4S 5025   1.320   3.532   5.991 -0.3955  0.5849 -1.3197
    1OL     C15 5026   1.178   3.385   5.915 -0.6656 -0.3658 -0.6331
    1OL     H5R 5027   1.078   3.351   5.943 -1.4312  0.5757 -2.1260
    1OL     H5S 5028   1.236   3.296   5.889 -0.4120  0.6248 -3.8626
    1OL     C16 5029   1.154   3.474   5.799  0.4034 -0.7895  0.4932
    1OL     H6R 5030   1.251   3.514   5.769  0.7866 -0.3660  2.2263
    1OL     H6S 5031   1.091   3.558   5.828 -1.7648 -2.7181  1.7004
    1OL     C17 5032   1.076   3.414   5.680 -1.2071  1.0154 -0.1816
    1OL     H7R 5033   0.978   3.378   5.714 -1.4043  2.0485  0.3942
    1OL     H7S 5034   1.129   3.323   5.652 -0.0122  1.2514  1.2300
    1OL     C18 5035   1.065   3.507   5.558  0.7689  0.4503 -0.5275
    1OL     H8R 5036   1.160   3.502   5.504  1.0895  0.1918  0.0490
    1OL     H8S 5037   1.046   3.612   5.582  3.3056  1.6241 -3.0789
    1OL     C19 5038   0.953   3.461   5.467 -0.0037 -0.7418 -0.5220
    1OL     H9R 5039   0.883   3.392   5.513 -1.4711  1.1780  0.2430
    1OL    C110 5040   0.917   3.512   5.350  0.2462 -0.6415 -0.2311
    1OL    H10R 5041   0.826   3.475   5.304 -1.1427  0.6918  1.2921
    1OL    C111 5042   1.004   3.611   5.277 -0.2580  0.3378 -0.0745
    1OL    H11R 5043   1.072   3.660   5.347  1.2395 -1.3367 -0.2836
    1OL    H11S 5044   0.947   3.692   5.231  0.4970 -0.7344 -3.1080
    1OL    C112 5045   1.079   3.533   5.164 -0.0195 -0.6508 -0.2263
    1OL    H12R 5046   0.995   3.514   5.098  0.8541 -1.5469 -1.1116
    1OL    H12S 5047   1.115   3.436   5.198 -0.7737 -1.3340 -1.3394
    1OL    C113 5048   1.191   3.614   5.097 -0.4399 -0.3282  0.1864
    1OL    H13R 5049   1.280   3.614   5.161 -0.1921  1.2938 -0.1046
    1OL    H13S 5050   1.149   3.715   5.105  0.3606 -0.0464  1.1517
    1OL    C114 5051   1.223   3.575   4.950 -1.0591 -0.6059 -0.6514
    1OL    H14R 5052   1.136   3.592   4.887 -0.3014  1.2535 -1.2695
    1OL    H14S 5053   1.254   3.471   4.953  2.7623  0.4148  0.3900
    1OL    C115 5054   1.342   3.669   4.900  0.9360  0.3320  0.2337
    1OL    H15R 5055   1.306   3.769   4.922 -0.8791 -0.2234 -0.0263
    1OL    H15S 5056   1.346   3.655   4.792 -0.1540 -2.8295  0.4902
    1OL    C116 5057   1.482   3.650   4.969 -0.0639 -0.3687 -0.2679
    1OL    H16R 5058   1.535   3.562   4.933  0.9559  0.7241 -1.5501
    1OL    H16S 5059   1.467   3.640   5.076  2.2328  0.5078  0.1985
    1OL    C117 5060   1.588   3.760   4.948  0.3233 -0.2857  0.2901
    1OL    H17R 5061   1.591   3.757   4.839 -1.9059  3.5262 -0.1010
    1OL    H17S 5062   1.683   3.726   4.988  0.3198 -1.7137 -0.8570
    1OL    C118 5063   1.558   3.914   4.980 -0.4605  0.4053  0.0118
    1OL    H18R 5064   1.588   3.939   5.082  0.2484 -1.1551  0.2225
    1OL    H18S 5065   1.454   3.946   4.965 -0.0613  0.9253 -1.8993
    1OL    H18T 5066   1.621   3.974   4.915  1.8517 -0.0666  1.6708
    1PA    C116 5067   4.947   5.129   5.490  0.3346  0.3066 -0.5674
    1PA    H16R 5068   4.940   5.023   5.515 -0.0936  0.0272 -1.8018
    1PA    H16S 5069   5.052   5.154   5.478  0.7047  0.2157  1.8929
    1PA    H16T 5070   4.888   5.144   5.400 -1.6760  1.4879  0.8488
    1PA    C115 5071   4.889   5.206   5.610 -0.1211  0.0007 -0.0325
    1PA    H15R 5072   4.789   5.171   5.634 -0.6003  1.5422  0.3171
    1PA    H15S 5073   4.949   5.178   5.698  2.8824 -1.9908 -2.4806
    1PA    C114 5074   4.887   5.362   5.591  0.0512  0.0305  0.3491
    1PA    H14R 5075   4.840   5.374   5.493  1.7784 -0.2976 -0.5578
    1PA    H14S 5076   4.829   5.412   5.668  0.3890  1.6167 -0.3944
    1PA    C113 5077   5.020   5.428   5.567 -0.2039 -0.0883 -0.8703
    1PA    H13R 5078   5.059   5.375   5.480 -0.6895 -4.3692  1.2412
    1PA    H13S 5079   4.992   5.533   5.553  1.9476  0.5678 -0.6711
    1PA    C112 5080   5.115   5.422   5.693 -0.3811 -0.1117  0.2633
    1PA    H12R 5081   5.078   5.487   5.773  1.7476 -0.3230  1.4823
    1PA    H12S 5082   5.121   5.322   5.735  4.3257  0.1744  0.7792
    1PA    C111 5083   5.263   5.464   5.657  0.1212 -0.3225  0.0690
    1PA    H11R 5084   5.280   5.425   5.557  0.4769  0.3433 -0.1348
    1PA    H11S 5085   5.274   5.572   5.664  1.4592 -0.4487  0.2257
    1PA    C110 5086   5.367   5.407   5.753 -0.6292  0.6901  0.0392
    1PA    H10R 5087   5.336   5.308   5.788  0.9301  0.4564  0.8567
    1PA    H10S 5088   5.456   5.383   5.696 -1.2564  0.1255 -0.7303
    1PA     C19 5089   5.395   5.479   5.891 -0.1307  0.0824 -0.4045
    1PA     H9R 5090   5.488   5.448   5.938 -0.3132  0.8865  0.5351
    1PA     H9S 5091   5.416   5.583   5.866 -0.9893  0.4233  0.2204
    1PA     C18 5092   5.291   5.448   6.005  0.1738 -0.7904 -0.2529
    1PA     H8R 5093   5.191   5.478   5.972  0.3592 -0.1529 -0.2571
    1PA     H8S 5094   5.292   5.340   6.019  1.2123 -0.6812  0.6427
    1PA     C17 5095   5.325   5.520   6.141  0.3991  0.3666  0.2751
    1PA     H7R 5096   5.433   5.520   6.160  0.6547  1.1806 -1.0217
    1PA     H7S 5097   5.296   5.625   6.135 -1.2410  0.0477  1.7506
    1PA     C16 5098   5.248   5.461   6.264 -0.3736  0.1565 -0.0406
    1PA     H6R 5099   5.144   5.492   6.256 -0.5064 -0.1208  0.5440
    1PA     H6S 5100   5.251   5.352   6.275  1.0356  0.2578  0.8476
    1PA     C15 5101   5.296   5.531   6.397 -0.7132  1.1568  0.1281
    1PA     H5R 5102   5.405   5.540   6.404 -0.2371 -1.3092 -2.4570
    1PA     H5S 5103   5.267   5.636   6.395 -0.0646  1.3232 -0.8043
    1PA     C14 5104   5.225   5.464   6.523 -0.0378 -0.4141  0.7768
    1PA     H4R 5105   5.265   5.527   6.602 -2.7146  0.7408  1.3134
    1PA     H4S 5106   5.116   5.472   6.520 -0.0695  0.9094  3.1360
    1PA     C13 5107   5.245   5.308   6.557 -0.1491 -0.1520 -0.2587
    1PA     H3R 5108   5.223   5.254   6.465  1.2179  1.6886 -1.7482
    1PA     H3S 5109   5.347   5.288   6.591  0.2214  0.7123 -0.8374
    1PA     C12 5110   5.136   5.270   6.662 -0.0453  0.3713  0.2171
    1PA     H2R 5111   5.033   5.282   6.628 -0.5435 -0.8985  1.2047
    1PA     H2S 5112   5.141   5.163   6.682  1.6314  0.3646 -0.0824
    1PC     C11 5113   5.152   5.337   6.796 -0.4664  0.0528 -0.1691
    1PC     O12 5114   5.262   5.380   6.837 -0.1037 -0.1680  0.2467
    1PC     O11 5115   5.043   5.343   6.867  0.2881 -0.2269 -0.3252
    1PC      C1 5116   5.042   5.410   6.993 -0.1414 -0.5283  0.8180
    1PC      HR 5117   4.953   5.389   7.052 -0.3365  0.0670  0.7490
    1PC      HS 5118   5.130   5.378   7.049 -0.4225 -0.9112  1.0389
    1PC      C2 5119   5.053   5.565   6.963  0.2506  0.1980 -0.1253
    1PC      HX 5120   5.126   5.589   6.885 -0.5249  1.6291 -0.4395
    1PC      C3 5121   5.104   5.645   7.092  0.5490  1.0473 -0.1796
    1PC      HA 5122   5.213   5.639   7.098  0.3930 -2.3947  1.7069
    1PC      HB 5123   5.077   5.751   7.096  2.4514  1.6558 -1.6575
    1PC     O31 5124   5.065   5.583   7.216 -0.3226 -0.4869  0.1085
    1PC     P31 5125   4.955   5.641   7.321 -0.0169  0.5161 -0.3443
    1PC     O32 5126   4.826   5.634   7.229 -0.3893  0.0549  0.2570
    1PC     C31 5127   4.698   5.596   7.280 -0.3692  0.4159  0.1423
    1PC     H1A 5128   4.632   5.585   7.193  1.4414  2.5672 -1.6043
    1PC     H1B 5129   4.702   5.501   7.334  0.3647  0.3594 -0.0019
    1PC     C32 5130   4.637   5.706   7.369  0.0908  0.1177  0.2581
    1PC     H2A 5131   4.698   5.724   7.458 -0.4629  1.2561  0.4311
    1PC     H2B 5132   4.630   5.797   7.310  1.0112  0.3526  0.4876
    1PC     N31 5133   4.496   5.685   7.425 -0.2599 -0.7155  0.6717
    1PC     C33 5134   4.477   5.561   7.494 -0.5672 -0.3604 -0.2049
    1PC     H3A 5135   4.495   5.477   7.427 -0.1753  1.0091 -1.8605
    1PC     H3B 5136   4.553   5.555   7.573  1.1257  1.7774 -1.5665
    1PC     H3C 5137   4.380   5.564   7.545 -1.2692 -1.0836 -1.4436
    1PC     C34 5138   4.467   5.794   7.526 -0.2151  0.2391 -0.3166
    1PC     H4A 5139   4.474   5.888   7.471  2.3036  0.9726  1.0999
    1PC     H4B 5140   4.370   5.772   7.571  0.9919 -3.4117  0.8588
    1PC     H4C 5141   4.553   5.792   7.593 -0.5564  1.1562  0.1663
    1PC     C35 5142   4.399   5.687   7.310  0.5031 -0.3033  0.5080
    1PC     H5A 5143   4.298   5.707   7.346 -0.5318 -1.9522 -1.2782
    1PC     H5B 5144   4.396   5.592   7.257  0.4534 -0.3157  0.5323
    1PC     H5C 5145   4.438   5.768   7.249  0.2052 -0.4850  0.0705
    1PC     O33 5146   4.938   5.550   7.436  0.0666  0.4281  0.4178
    1PC     O34 5147   4.992   5.783   7.356  0.4324  0.3692  0.1387
    1PC     O21 5148   4.919   5.616   6.928 -0.0694  0.0986 -0.0120
    1PC     C21 5149   4.877   5.609   6.801  0.9240 -0.1313  0.0487
    1PC     O22 5150   4.940   5.564   6.707  0.3125  0.0254  0.6426
    1OL     C12 5151   4.733   5.655   6.789  0.7250 -0.1429 -0.8093
    1OL     H2R 5152   4.751   5.762   6.777 -1.4482  0.7988  2.6583
    1OL     H2S 5153   4.681   5.652   6.885  0.9657 -1.0865 -0.7042
    1OL     C13 5154   4.637   5.586   6.679 -0.0965  0.1065 -0.1397
    1OL     H3R 5155   4.658   5.479   6.677 -0.0246  0.1248 -0.5869
    1OL     H3S 5156   4.679   5.619   6.583 -1.6719  0.0610 -0.8638
    1OL     C14 5157   4.492   5.621   6.671  0.6834  0.3783  0.3774
    1OL     H4R 5158   4.475   5.725   6.697 -1.4644  0.7273 -2.0515
    1OL     H4S 5159   4.448   5.548   6.740 -1.2410  2.0654  1.0100
    1OL     C15 5160   4.429   5.598   6.535 -0.6657  0.3788  0.6042
    1OL     H5R 5161   4.476   5.670   6.468 -1.0718  0.1074  0.0168
    1OL     H5S 5162   4.323   5.624   6.540 -1.2893 -1.5710 -0.8955
    1OL     C16 5163   4.436   5.455   6.485 -0.5758  0.4122 -0.4241
    1OL     H6R 5164   4.417   5.380   6.562  1.4774  1.7071  1.4931
    1OL     H6S 5165   4.534   5.435   6.441 -0.5978 -0.3219 -0.1469
    1OL     C17 5166   4.337   5.438   6.365 -0.1149 -0.1748 -0.5555
    1OL     H7R 5167   4.234   5.421   6.395 -0.5777 -0.2773 -2.0952
    1OL     H7S 5168   4.369   5.350   6.309  2.0231  0.2667 -0.1238
    1OL     C18 5169   4.335   5.558   6.271 -0.4066 -0.2319  0.2810
    1OL     H8R 5170   4.292   5.648   6.318 -0.4459 -0.6141  0.9898
    1OL     H8S 5171   4.263   5.539   6.191  0.7437 -4.7258  0.0835
    1OL     C19 5172   4.467   5.582   6.206 -0.6068  0.4316  0.4348
    1OL     H9R 5173   4.546   5.615   6.272 -0.0652  1.0136 -0.4863
    1OL    C110 5174   4.495   5.591   6.072 -0.0978  1.2029 -0.2387
    1OL    H10R 5175   4.594   5.626   6.045  1.0549  0.0627  2.2249
    1OL    C111 5176   4.399   5.574   5.953 -0.5716  0.1797  0.9467
    1OL    H11R 5177   4.409   5.659   5.885 -0.1673  0.0228  0.8035
    1OL    H11S 5178   4.295   5.567   5.986 -1.0471  1.7981 -0.0941
    1OL    C112 5179   4.430   5.453   5.858  0.2396 -0.3436  0.5009
    1OL    H12R 5180   4.416   5.371   5.929 -0.6216  0.9769  1.9202
    1OL    H12S 5181   4.534   5.464   5.826  0.3062  2.2728  1.3582
    1OL    C113 5182   4.353   5.448   5.727  0.1768  0.2485 -0.3188
    1OL    H13R 5183   4.392   5.513   5.648  1.0050  0.2808  0.1045
    1OL    H13S 5184   4.248   5.471   5.749 -0.3669 -2.9271  0.9288
    1OL    C114 5185   4.361   5.299   5.676  0.1442 -0.6748 -0.5687
    1OL    H14R 5186   4.292   5.282   5.593  2.4415 -3.6174 -2.0974
    1OL    H14S 5187   4.344   5.231   5.759 -1.2591  0.7122  0.3262
    1OL    C115 5188   4.496   5.270   5.607 -0.2872 -0.0458 -0.5514
    1OL    H15R 5189   4.571   5.278   5.685 -1.9140  0.6669  0.9964
    1OL    H15S 5190   4.512   5.346   5.530  2.3650 -0.1624 -0.2055
    1OL    C116 5191   4.505   5.132   5.526  0.1668 -0.5742  0.0994
    1OL    H16R 5192   4.609   5.113   5.498  0.2919  0.0055  0.1595
    1OL    H16S 5193   4.445   5.148   5.436  0.1912  0.4294  0.2534
    1OL    C117 5194   4.451   5.017   5.602 -0.1019  0.3260 -0.2837
    1OL    H17R 5195   4.343   5.024   5.621 -0.2054 -1.1630 -0.2016
    1OL    H17S 5196   4.493   5.007   5.702  3.4389 -2.8569 -1.8259
    1OL    C118 5197   4.476   4.879   5.533 -0.1086  0.2990 -0.0217
    1OL    H18R 5198   4.583   4.857   5.539 -0.0652  0.6699  0.7349
    1OL    H18S 5199   4.446   4.868   5.429 -1.0479 -0.8231  0.3485
    1OL    H18T 5200   4.427   4.803   5.593 -0.8671  1.2103  0.5573
    1PA    C116 5201   1.112   0.481   5.336  0.1728 -0.0266 -0.0759
    1PA    H16R 5202   1.167   0.575   5.331  2.0989 -1.1606 -2.0008
    1PA    H16S 5203   1.022   0.483   5.274  0.8415  0.0219 -1.0747
    1PA    H16T 5204   1.161   0.404   5.276  1.5186  0.3341  0.5161
    1PA    C115 5205   1.077   0.442   5.480 -0.0993  0.2362 -0.1695
    1PA    H15R 5206   0.995   0.370   5.479  1.1955 -1.3648  1.4891
    1PA    H15S 5207   1.166   0.405   5.532 -0.0719  2.9509  1.9314
    1PA    C114 5208   1.032   0.567   5.560  0.3452 -0.5275 -0.1640
    1PA    H14R 5209   1.119   0.629   5.583  0.5241 -1.3078  1.3542
    1PA    H14S 5210   0.961   0.623   5.499  0.8143 -0.2218 -0.4379
    1PA    C113 5211   0.966   0.539   5.694 -0.6081  0.4055  0.2872
    1PA    H13R 5212   0.925   0.630   5.739 -0.0836  0.7579  0.0498
    1PA    H13S 5213   0.872   0.484   5.678  0.4136 -1.1138 -0.7839
    1PA    C112 5214   1.054   0.453   5.785 -0.6187  0.3361  0.8238
    1PA    H12R 5215   1.104   0.373   5.730  0.1012  2.1731 -1.3459
    1PA    H12S 5216   1.134   0.518   5.821  1.5856 -1.9677  0.3386
    1PA    C111 5217   0.980   0.390   5.904  0.1034 -0.1454 -0.0569
    1PA    H11R 5218   0.902   0.323   5.866 -0.6622  1.4922 -1.5005
    1PA    H11S 5219   1.046   0.318   5.953  1.3224 -0.6130 -2.2776
    1PA    C110 5220   0.927   0.480   6.015 -0.5594  0.1425 -0.2102
    1PA    H10R 5221   0.856   0.554   5.978  0.0523 -0.1115 -1.9809
    1PA    H10S 5222   0.873   0.427   6.094  0.7698  2.3869  2.3655
    1PA     C19 5223   1.039   0.557   6.096  0.2878  0.4537  0.6918
    1PA     H9R 5224   1.069   0.644   6.037  2.3442  0.6131  1.8625
    1PA     H9S 5225   0.990   0.593   6.186  1.0069 -1.1640  1.7768
    1PA     C18 5226   1.161   0.468   6.146  0.4842 -0.4617 -0.1202
    1PA     H8R 5227   1.123   0.387   6.210  1.8216 -1.9505 -1.1462
    1PA     H8S 5228   1.202   0.423   6.056  3.1791  2.2886 -0.4196
    1PA     C17 5229   1.268   0.555   6.210 -0.5670  0.2302  0.7365
    1PA     H7R 5230   1.365   0.505   6.209  0.2746  1.8078 -0.6974
    1PA     H7S 5231   1.280   0.641   6.145  2.0238 -1.1819 -0.8279
    1PA     C16 5232   1.237   0.598   6.348  0.8155  0.1213  0.3042
    1PA     H6R 5233   1.143   0.653   6.342 -0.5819 -2.2018 -0.2539
    1PA     H6S 5234   1.225   0.514   6.416 -1.1727  0.7422  0.7721
    1PA     C15 5235   1.352   0.682   6.409  0.2302  0.0234 -0.4362
    1PA     H5R 5236   1.443   0.624   6.427 -0.7313 -1.2166  0.5891
    1PA     H5S 5237   1.372   0.752   6.327  1.6162  1.9497  1.4277
    1PA     C14 5238   1.302   0.764   6.530 -0.9133 -0.4851  0.1722
    1PA     H4R 5239   1.371   0.844   6.561  0.7157 -2.2600  1.4095
    1PA     H4S 5240   1.210   0.817   6.506 -0.8158 -0.7221 -0.7296
    1PA     C13 5241   1.266   0.686   6.653  0.1815  0.0928  0.7928
    1PA     H3R 5242   1.205   0.756   6.710 -0.5796 -0.5090  0.7268
    1PA     H3S 5243   1.214   0.596   6.619  1.2933 -0.7893  1.3173
    1PA     C12 5244   1.397   0.648   6.723  0.2620 -0.3466  0.3989
    1PA     H2R 5245   1.450   0.580   6.656  3.9000  1.5462  1.1326
    1PA     H2S 5246   1.456   0.739   6.732  1.7796 -1.3985  1.4035
    1PC     C11 5247   1.364   0.583   6.854  0.5803 -0.3811  0.0789
    1PC     O12 5248   1.382   0.644   6.961 -0.6197  0.2082  0.2986
    1PC     O11 5249   1.291   0.470   6.847  0.6996  0.3052 -0.5156
    1PC      C1 5250   1.212   0.411   6.958 -0.3747  0.3718  0.5865
    1PC      HR 5251   1.174   0.319   6.913  1.2847  0.6926 -1.6222
    1PC      HS 5252   1.271   0.393   7.049  2.7180 -0.4737 -1.4303
    1PC      C2 5253   1.087   0.496   6.993 -0.3789 -0.7652 -0.6311
    1PC      HX 5254   1.120   0.590   7.038 -0.0852 -1.0791 -0.1673
    1PC      C3 5255   1.005   0.425   7.101  0.3931  0.4973  0.3128
    1PC      HA 5256   0.906   0.470   7.117  0.0822 -0.8879  2.8246
    1PC      HB 5257   0.989   0.323   7.063  0.2687  0.1813  1.1920
    1PC     O31 5258   1.072   0.407   7.233  0.0131  0.4265  0.2998
    1PC     P31 5259   1.026   0.306   7.340  0.0791 -0.0527 -0.4035
    1PC     O32 5260   0.915   0.393   7.424 -0.0922 -0.1563 -0.4828
    1PC     C31 5261   0.940   0.502   7.511 -0.2149  0.7059  0.7282
    1PC     H1A 5262   0.858   0.518   7.582  0.0792 -2.8715  2.0671
    1PC     H1B 5263   1.031   0.469   7.562 -0.0990 -0.1935 -0.0441
    1PC     C32 5264   0.980   0.623   7.421  0.1870  0.4520  0.0020
    1PC     H2A 5265   1.057   0.589   7.351  0.9670  0.4327  0.8414
    1PC     H2B 5266   0.884   0.649   7.377 -0.5233 -0.8906  0.7093
    1PC     N31 5267   1.033   0.751   7.483 -0.3835  0.3412  0.2239
    1PC     C33 5268   1.178   0.733   7.532 -0.2539 -0.3920 -0.5627
    1PC     H3A 5269   1.228   0.684   7.449  1.4622  1.0754 -0.4569
    1PC     H3B 5270   1.213   0.835   7.551  1.7571 -0.7087 -2.2955
    1PC     H3C 5271   1.171   0.673   7.623  0.9211  0.2265 -0.0399
    1PC     C34 5272   1.033   0.855   7.377  0.3076  0.1519  1.1649
    1PC     H4A 5273   0.931   0.892   7.365  0.1386 -0.1488  1.6863
    1PC     H4B 5274   1.086   0.945   7.410 -0.8388  2.0073 -1.6235
    1PC     H4C 5275   1.066   0.813   7.282 -0.6470  0.9555  0.4446
    1PC     C35 5276   0.942   0.799   7.593 -0.1027  0.0960  0.8117
    1PC     H5A 5277   0.929   0.717   7.664 -0.3944  0.3599  1.0617
    1PC     H5B 5278   0.850   0.842   7.554 -0.7478  2.3375  4.3868
    1PC     H5C 5279   0.990   0.883   7.643 -1.1189  0.9731  0.3560
    1PC     O33 5280   0.946   0.191   7.280 -0.3334 -0.0831  0.4641
    1PC     O34 5281   1.145   0.271   7.421  0.6182  0.2209 -0.3793
    1PC     O21 5282   1.010   0.518   6.874 -0.3758 -0.2001 -0.1470
    1PC     C21 5283   0.907   0.613   6.858  0.3245 -0.1169  0.2175
    1PC     O22 5284   0.862   0.685   6.949  0.6374  0.2577  0.2658
    1OL     C12 5285   0.851   0.615   6.716  0.0990  0.1573 -0.7480
    1OL     H2R 5286   0.745   0.589   6.725  0.3021 -0.6241 -0.5653
    1OL     H2S 5287   0.904   0.544   6.653 -1.2883 -1.8959  0.2800
    1OL     C13 5288   0.864   0.757   6.666 -0.1768  0.0092 -0.2592
    1OL     H3R 5289   0.968   0.787   6.678 -0.4454  1.2246 -0.9060
    1OL     H3S 5290   0.803   0.819   6.732 -0.6985 -0.9255  0.1645
    1OL     C14 5291   0.815   0.761   6.522  0.4513  0.8348 -0.5814
    1OL     H4R 5292   0.707   0.765   6.528  0.4556 -1.0011  2.2036
    1OL     H4S 5293   0.849   0.674   6.466  1.8075  1.0503 -0.1355
    1OL     C15 5294   0.868   0.882   6.451 -0.1825 -0.2091 -0.1574
    1OL     H5R 5295   0.976   0.890   6.465 -0.6213  0.2511  4.3234
    1OL     H5S 5296   0.827   0.974   6.494  2.0114  0.8602 -0.2277
    1OL     C16 5297   0.822   0.868   6.307  0.2121 -0.9588 -0.4894
    1OL     H6R 5298   0.718   0.836   6.298  0.1719 -0.5991 -1.5147
    1OL     H6S 5299   0.870   0.780   6.263 -1.0889 -1.8092 -0.2847
    1OL     C17 5300   0.825   0.991   6.213 -0.9709 -0.2225  0.6906
    1OL     H7R 5301   0.925   1.032   6.197 -1.4945  2.0033  2.6143
    1OL     H7S 5302   0.784   1.083   6.256  2.3702  2.4940 -1.3546
    1OL     C18 5303   0.767   0.949   6.075  0.4465 -0.1689  0.3408
    1OL     H8R 5304   0.668   0.906   6.096 -0.5473  2.5891  1.7994
    1OL     H8S 5305   0.826   0.867   6.034 -0.3967 -0.5588 -0.1169
    1OL     C19 5306   0.754   1.062   5.974  0.1996 -0.8675  0.4789
    1OL     H9R 5307   0.685   1.140   6.006 -1.0716 -1.6393 -0.2601
    1OL    C110 5308   0.804   1.066   5.849 -0.0873 -0.1631  0.1520
    1OL    H10R 5309   0.779   1.148   5.782  2.2687  1.7241  1.4290
    1OL    C111 5310   0.901   0.958   5.796 -0.1623 -0.3470 -0.5276
    1OL    H11R 5311   0.892   0.973   5.689  0.4101  3.5849 -0.1787
    1OL    H11S 5312   0.855   0.862   5.822  0.5826 -0.2908  1.1378
    1OL    C112 5313   1.052   0.975   5.835  0.3558  0.2585 -0.5313
    1OL    H12R 5314   1.058   0.998   5.942  0.4533  1.1140 -0.7100
    1OL    H12S 5315   1.097   1.060   5.784  2.2625  0.2651  1.0297
    1OL    C113 5316   1.127   0.843   5.797  0.2287 -0.7855 -0.0889
    1OL    H13R 5317   1.105   0.811   5.695 -1.2734 -3.8612  1.0828
    1OL    H13S 5318   1.088   0.765   5.862  0.6229  1.1524  2.6636
    1OL    C114 5319   1.285   0.853   5.818  0.8802 -0.0352  0.7575
    1OL    H14R 5320   1.300   0.870   5.925 -1.7952  0.6895  1.0901
    1OL    H14S 5321   1.322   0.939   5.761 -0.5437 -0.9335 -1.6644
    1OL    C115 5322   1.359   0.727   5.764  0.3712  0.0287 -0.1890
    1OL    H15R 5323   1.334   0.719   5.658  0.0813 -2.7316  0.0263
    1OL    H15S 5324   1.316   0.639   5.811  0.0456  0.0601 -0.4247
    1OL    C116 5325   1.509   0.722   5.776 -0.3976 -0.9324 -0.5263
    1OL    H16R 5326   1.544   0.825   5.776 -1.3223 -0.5830  1.1486
    1OL    H16S 5327   1.542   0.668   5.687  0.3848  0.4817 -1.1141
    1OL    C117 5328   1.563   0.673   5.911  1.2761  0.6004  0.0568
    1OL    H17R 5329   1.521   0.738   5.988 -1.0210 -0.3736 -0.2727
    1OL    H17S 5330   1.672   0.673   5.908  1.2662  0.4203 -1.2389
    1OL    C118 5331   1.509   0.527   5.942 -0.9055  0.0437 -0.0429
    1OL    H18R 5332   1.569   0.457   5.883 -1.8094 -2.4723  1.8228
    1OL    H18S 5333   1.408   0.506   5.909  0.3098 -1.5276 -3.1920
    1OL    H18T 5334   1.525   0.507   6.049 -1.9454  0.6355  0.2311
    1PA    C116 5335   4.841   0.502   6.404  0.0885  0.4844  0.0082
    1PA    H16R 5336   4.897   0.501   6.498 -2.4992 -0.4321  1.6454
    1PA    H16S 5337   4.737   0.473   6.417  0.1858 -0.4872 -1.2490
    1PA    H16T 5338   4.842   0.604   6.364 -1.1004  1.6514  2.6450
    1PA    C115 5339   4.898   0.387   6.319  0.0539  0.3520 -0.2586
    1PA    H15R 5340   5.007   0.403   6.316 -0.0661  1.1002 -1.8860
    1PA    H15S 5341   4.895   0.296   6.379  0.2486 -0.1824 -1.0479
    1PA    C114 5342   4.835   0.360   6.187  0.0875  0.1769 -0.1894
    1PA    H14R 5343   4.732   0.333   6.211  0.0748 -0.4484 -0.9216
    1PA    H14S 5344   4.822   0.454   6.133 -3.5109  1.0259  1.8395
    1PA    C113 5345   4.902   0.252   6.108 -0.4621 -0.3248  0.0762
    1PA    H13R 5346   4.999   0.281   6.066 -0.8886 -1.2739 -1.6411
    1PA    H13S 5347   4.933   0.183   6.187  3.3630 -0.1388 -1.0520
    1PA    C112 5348   4.812   0.196   5.991 -0.2579 -0.7521  0.3756
    1PA    H12R 5349   4.717   0.183   6.043  0.8087 -0.4479  2.5520
    1PA    H12S 5350   4.802   0.276   5.918  0.9145  0.1389  1.1441
    1PA    C111 5351   4.848   0.060   5.934  0.4178  0.1158  0.1669
    1PA    H11R 5352   4.790   0.044   5.843 -0.3116  0.9676  0.4672
    1PA    H11S 5353   4.953   0.076   5.908  0.2624  0.5901 -0.1853
    1PA    C110 5354   4.835  -0.060   6.032  0.0558  0.0637  0.3622
    1PA    H10R 5355   4.873  -0.034   6.131  2.4485 -0.8249 -0.2608
    1PA    H10S 5356   4.732  -0.093   6.047  0.1738 -1.6729 -2.0270
    1PA     C19 5357   4.910  -0.179   5.971  0.7933 -0.0373  0.3422
    1PA     H9R 5358   4.870  -0.260   6.033 -1.8264  1.6477  1.0245
    1PA     H9S 5359   4.871  -0.200   5.871 -1.8296 -1.9430  1.6248
    1PA     C18 5360   5.065  -0.183   5.969 -0.5521 -0.1069 -0.1931
    1PA     H8R 5361   5.092  -0.281   5.927 -0.9480 -1.1331  1.8455
    1PA     H8S 5362   5.112  -0.109   5.904  0.6562 -1.3174 -0.7743
    1PA     C17 5363   5.122  -0.180   6.111  0.2018 -0.9020  0.8191
    1PA     H7R 5364   5.231  -0.187   6.102  0.2847  0.6526  0.3706
    1PA     H7S 5365   5.103  -0.085   6.161 -1.5119 -0.4260 -0.6343
    1PA     C16 5366   5.085  -0.294   6.202  0.2642 -0.3427  1.0669
    1PA     H6R 5367   4.982  -0.273   6.231 -0.5051 -1.2466 -0.8092
    1PA     H6S 5368   5.080  -0.385   6.141  0.5333 -0.3030  0.9841
    1PA     C15 5369   5.185  -0.316   6.323  0.7491  0.5403  0.0772
    1PA     H5R 5370   5.283  -0.350   6.288  0.3674  0.2084 -0.6848
    1PA     H5S 5371   5.206  -0.221   6.375  3.3853 -0.5621  1.2172
    1PA     C14 5372   5.131  -0.423   6.430 -0.2806  0.2787  0.4899
    1PA     H4R 5373   5.032  -0.394   6.468  0.4855  1.1120  1.9174
    1PA     H4S 5374   5.117  -0.520   6.383  1.0010  0.0161  0.6391
    1PA     C13 5375   5.222  -0.436   6.548  0.7890  0.2552  0.1284
    1PA     H3R 5376   5.208  -0.535   6.592 -0.0012  1.7880  3.6096
    1PA     H3S 5377   5.324  -0.434   6.509 -0.4359  1.5049 -3.3635
    1PA     C12 5378   5.217  -0.320   6.640 -0.0176  0.1275 -0.3623
    1PA     H2R 5379   5.280  -0.242   6.596  2.3771 -0.3534  1.9179
    1PA     H2S 5380   5.118  -0.276   6.649  0.5734  1.1601  2.1394
    1PC     C11 5381   5.275  -0.354   6.778 -0.1584 -0.2139  0.5011
    1PC     O12 5382   5.331  -0.454   6.808 -0.0048 -0.2200 -0.3162
    1PC     O11 5383   5.247  -0.257   6.866  0.0629  0.4800  0.0817
    1PC      C1 5384   5.279  -0.292   7.005  0.2492 -0.5165  0.3655
    1PC      HR 5385   5.350  -0.374   7.017  0.8140 -0.2902 -1.1924
    1PC      HS 5386   5.323  -0.198   7.040  1.6331 -0.8897 -0.3269
    1PC      C2 5387   5.146  -0.326   7.082 -0.1264  0.0096  0.2264
    1PC      HX 5388   5.087  -0.235   7.095  0.7773  0.4543  1.4590
    1PC      C3 5389   5.173  -0.395   7.217 -0.1915  0.1234  0.4350
    1PC      HA 5390   5.131  -0.327   7.292  0.1377  1.4729 -0.5597
    1PC      HB 5391   5.107  -0.482   7.222  0.2898 -0.1989  1.4314
    1PC     O31 5392   5.307  -0.436   7.237  0.2307 -0.2424 -0.1870
    1PC     P31 5393   5.327  -0.565   7.322 -0.2154  0.1444  0.0437
    1PC     O32 5394   5.295  -0.678   7.213  0.0785  0.2085  0.0905
    1PC     C31 5395   5.397  -0.755   7.135  0.4263  0.2743 -0.3248
    1PC     H1A 5396   5.353  -0.815   7.055 -0.0598 -0.3705  0.4065
    1PC     H1B 5397   5.459  -0.677   7.089 -0.4780  1.7184  0.8036
    1PC     C32 5398   5.474  -0.842   7.232 -0.2975 -0.5252  0.1730
    1PC     H2A 5399   5.484  -0.792   7.329 -1.7468 -2.7339  1.5659
    1PC     H2B 5400   5.424  -0.936   7.257 -1.7337 -0.1818 -1.2709
    1PC     N31 5401   5.616  -0.868   7.181 -0.2173 -0.2302 -0.1750
    1PC     C33 5402   5.711  -0.759   7.194  0.4517 -0.6499 -0.1023
    1PC     H3A 5403   5.682  -0.672   7.136  1.0200  0.3259  1.0393
    1PC     H3B 5404   5.717  -0.736   7.300  1.6829 -0.1738 -0.2570
    1PC     H3C 5405   5.806  -0.799   7.158  0.9937  0.5262  0.0065
    1PC     C34 5406   5.669  -0.981   7.259  0.2155  0.3347  0.1755
    1PC     H4A 5407   5.753  -1.031   7.210  0.6279  0.5135  0.6799
    1PC     H4B 5408   5.692  -0.946   7.360 -0.9031  3.4081 -0.5215
    1PC     H4C 5409   5.588  -1.053   7.256  0.8685 -0.3950 -1.7388
    1PC     C35 5410   5.616  -0.912   7.036 -0.3549  0.6522 -0.9707
    1PC     H5A 5411   5.581  -0.819   6.992 -2.0525 -0.2617 -1.6472
    1PC     H5B 5412   5.553  -0.999   7.019 -1.2122  1.1564 -0.4334
    1PC     H5C 5413   5.719  -0.936   7.008 -0.3326 -2.7645  1.3598
    1PC     O33 5414   5.469  -0.574   7.351 -0.0566 -0.0852  0.0778
    1PC     O34 5415   5.238  -0.564   7.445  0.2269 -0.2223 -0.0324
    1PC     O21 5416   5.078  -0.432   7.007  0.4192  0.5905 -0.0918
    1PC     C21 5417   4.951  -0.416   6.967  0.4166  0.1638 -0.1622
    1PC     O22 5418   4.874  -0.336   7.018  0.1107  0.0742 -0.7864
    1OL     C12 5419   4.907  -0.518   6.867  0.1204 -0.4414  0.5685
    1OL     H2R 5420   4.909  -0.620   6.906  1.9307 -0.9623 -0.7256
    1OL     H2S 5421   4.984  -0.521   6.790 -0.0061  0.2365  0.4148
    1OL     C13 5422   4.764  -0.485   6.817 -0.6585 -0.5139  0.3558
    1OL     H3R 5423   4.773  -0.386   6.772 -0.5589 -0.4929  0.4243
    1OL     H3S 5424   4.701  -0.473   6.905  0.6953  1.3462  1.1120
    1OL     C14 5425   4.719  -0.586   6.704  0.1389  0.2331  0.5591
    1OL     H4R 5426   4.737  -0.687   6.740  1.2369  0.9911  2.2753
    1OL     H4S 5427   4.783  -0.564   6.619 -0.1013  1.1399  0.5984
    1OL     C15 5428   4.580  -0.571   6.654  0.8743 -0.0403  0.0713
    1OL     H5R 5429   4.575  -0.471   6.608 -0.2848 -1.2836 -2.7514
    1OL     H5S 5430   4.510  -0.576   6.737  1.8352  0.9977  0.9833
    1OL     C16 5431   4.550  -0.688   6.549 -0.4560 -0.0744 -0.3847
    1OL     H6R 5432   4.556  -0.783   6.601 -3.5236 -1.7220 -2.6825
    1OL     H6S 5433   4.628  -0.682   6.473 -0.5751 -1.1864 -0.5995
    1OL     C17 5434   4.422  -0.695   6.477 -0.6819 -0.4793  0.8573
    1OL     H7R 5435   4.401  -0.597   6.433  1.1846  0.6395  2.3115
    1OL     H7S 5436   4.351  -0.710   6.558  0.8376 -0.9151  2.1569
    1OL     C18 5437   4.423  -0.820   6.392 -0.1791  0.0125 -0.2641
    1OL     H8R 5438   4.451  -0.904   6.456  0.0096 -1.7078 -2.4481
    1OL     H8S 5439   4.505  -0.816   6.320  0.6359  2.8117  0.6844
    1OL     C19 5440   4.289  -0.841   6.327  0.9320  0.0002  0.5336
    1OL     H9R 5441   4.228  -0.911   6.383  1.3289  0.3180  1.3745
    1OL    C110 5442   4.251  -0.792   6.209  0.5549  0.3593  0.2115
    1OL    H10R 5443   4.149  -0.801   6.172  1.0951  0.6871 -1.4715
    1OL    C111 5444   4.324  -0.695   6.125  0.5869  0.4893  0.1276
    1OL    H11R 5445   4.426  -0.688   6.163  0.2332 -2.7328  2.0658
    1OL    H11S 5446   4.270  -0.600   6.130  0.5126  0.5054 -0.8274
    1OL    C112 5447   4.336  -0.733   5.976 -0.2085  0.2673 -0.4337
    1OL    H12R 5448   4.237  -0.745   5.932 -0.5499  1.9949 -0.1853
    1OL    H12S 5449   4.384  -0.831   5.977 -1.4357 -0.4887  3.8613
    1OL    C113 5450   4.408  -0.632   5.892 -0.0365 -0.8353  0.5971
    1OL    H13R 5451   4.354  -0.539   5.876 -1.0701 -1.4637  0.3221
    1OL    H13S 5452   4.417  -0.684   5.797 -0.6819  0.7063 -0.3491
    1OL    C114 5453   4.544  -0.602   5.950 -0.0039  0.5061  0.5919
    1OL    H14R 5454   4.590  -0.696   5.980  0.6331  0.2191 -1.1819
    1OL    H14S 5455   4.525  -0.543   6.040 -1.7102  0.7591  0.1030
    1OL    C115 5456   4.632  -0.523   5.852 -0.7363 -0.1537 -0.5815
    1OL    H15R 5457   4.705  -0.473   5.916 -1.4720  1.0461 -0.6471
    1OL    H15S 5458   4.565  -0.453   5.802 -0.6834 -1.4576 -2.5865
    1OL    C116 5459   4.697  -0.597   5.737 -0.5544 -0.0463 -0.6004
    1OL    H16R 5460   4.625  -0.633   5.663 -1.3939 -1.5752  0.8733
    1OL    H16S 5461   4.745  -0.689   5.771  1.0514  0.3554 -1.6578
    1OL    C117 5462   4.808  -0.512   5.667 -0.1888  0.3271 -0.1185
    1OL    H17R 5463   4.899  -0.513   5.728 -1.1114  2.8228  1.4245
    1OL    H17S 5464   4.779  -0.407   5.671 -0.4924  0.2116  0.9059
    1OL    C118 5465   4.832  -0.551   5.526 -0.2155 -0.0192  0.5429
    1OL    H18R 5466   4.878  -0.650   5.529 -0.1944  0.0109  1.4320
    1OL    H18S 5467   4.895  -0.483   5.470 -0.3452 -0.9153 -0.7408
    1OL    H18T 5468   4.738  -0.554   5.471 -0.2331 -0.4689  0.5917
    1PA    C116 5469   0.153   3.059   4.630  0.4713  0.8106 -0.0066
    1PA    H16R 5470   0.056   3.045   4.679  0.4120 -0.3642 -0.4197
    1PA    H16S 5471   0.177   2.955   4.604 -0.4397  1.1802 -2.6547
    1PA    H16T 5472   0.129   3.114   4.538 -0.5130  0.7598  0.2106
    1PA    C115 5473   0.260   3.132   4.710 -0.2703 -0.2763  0.4633
    1PA    H15R 5474   0.338   3.063   4.744  0.4887  0.2417 -0.2094
    1PA    H15S 5475   0.318   3.195   4.643  1.5988  2.4090  4.2085
    1PA    C114 5476   0.207   3.205   4.837  0.2056  0.3197  0.1221
    1PA    H14R 5477   0.125   3.273   4.813  0.3536 -0.0389 -1.5372
    1PA    H14S 5478   0.163   3.135   4.909 -1.2604  1.2021  0.1227
    1PA    C113 5479   0.311   3.283   4.906 -0.1641 -0.7422  0.6435
    1PA    H13R 5480   0.375   3.233   4.980  1.5527 -0.2635 -0.4579
    1PA    H13S 5481   0.386   3.324   4.838 -1.2866 -0.2145 -0.2939
    1PA    C112 5482   0.259   3.416   4.969 -0.2221 -0.1491 -0.3824
    1PA    H12R 5483   0.342   3.481   5.001 -0.2389 -0.4156  0.2213
    1PA    H12S 5484   0.204   3.481   4.901 -2.2674 -2.0909 -0.7073
    1PA    C111 5485   0.157   3.392   5.086 -0.0262 -0.0693 -0.3488
    1PA    H11R 5486   0.104   3.484   5.114  1.0214  0.1186  1.1693
    1PA    H11S 5487   0.075   3.326   5.060 -0.4993  1.2147 -2.3328
    1PA    C110 5488   0.225   3.357   5.214 -0.8267 -0.5700 -0.3350
    1PA    H10R 5489   0.268   3.256   5.211 -3.0452 -1.6118  0.6806
    1PA    H10S 5490   0.297   3.437   5.231 -1.3909 -0.2631  0.6396
    1PA     C19 5491   0.125   3.361   5.330 -0.0626 -0.4403 -0.0409
    1PA     H9R 5492   0.100   3.467   5.336  2.3739  0.1569  0.3682
    1PA     H9S 5493   0.035   3.300   5.316 -1.7045  1.6522  0.8274
    1PA     C18 5494   0.177   3.314   5.469 -0.4351 -0.0516  0.2265
    1PA     H8R 5495   0.180   3.205   5.467  0.4518 -0.0335 -0.0506
    1PA     H8S 5496   0.279   3.349   5.485 -1.4638  2.2876  2.2856
    1PA     C17 5497   0.090   3.362   5.587  0.3731  0.2225  0.1551
    1PA     H7R 5498   0.105   3.467   5.614 -0.7202 -0.1034  2.2497
    1PA     H7S 5499  -0.010   3.360   5.545  0.9481 -0.8077 -1.2298
    1PA     C16 5500   0.099   3.274   5.716 -0.0276  0.3795  0.2929
    1PA     H6R 5501   0.019   3.305   5.784 -1.0559  0.0928 -0.7410
    1PA     H6S 5502   0.069   3.176   5.679 -1.2511  1.6511 -2.4262
    1PA     C15 5503   0.238   3.266   5.785 -0.5450 -0.6723 -0.5273
    1PA     H5R 5504   0.306   3.258   5.700 -0.0285 -1.5713 -0.0427
    1PA     H5S 5505   0.263   3.360   5.834  1.8892 -1.9664  0.9407
    1PA     C14 5506   0.250   3.149   5.885 -0.6277 -0.3843 -0.7162
    1PA     H4R 5507   0.157   3.093   5.891 -0.7082 -0.1362  1.2107
    1PA     H4S 5508   0.338   3.089   5.860  0.1751 -0.9474  2.8892
    1PA     C13 5509   0.264   3.205   6.028  0.1962 -0.1876 -0.5641
    1PA     H3R 5510   0.366   3.240   6.045 -0.0259  0.6203 -0.8200
    1PA     H3S 5511   0.199   3.292   6.038 -0.6508 -0.9409  0.8770
    1PA     C12 5512   0.232   3.113   6.143  0.2200  0.0661  0.2367
    1PA     H2R 5513   0.124   3.105   6.153  0.0442 -1.2298 -2.0627
    1PA     H2S 5514   0.271   3.016   6.112  2.7324  0.7888  0.8766
    1PC     C11 5515   0.276   3.155   6.275  0.4839 -0.2546 -0.1117
    1PC     O12 5516   0.197   3.184   6.363 -0.1776 -0.3113 -0.0276
    1PC     O11 5517   0.411   3.147   6.294 -0.3944 -0.2803  0.3326
    1PC      C1 5518   0.470   3.173   6.427  0.2985  0.7814 -0.3872
    1PC      HR 5519   0.574   3.203   6.409  0.2853  1.7550  1.0306
    1PC      HS 5520   0.423   3.261   6.472  0.3347  1.7143 -2.0965
    1PC      C2 5521   0.451   3.053   6.522  0.0379  0.0165 -0.3107
    1PC      HX 5522   0.346   3.037   6.548  0.1350 -1.6917 -0.8069
    1PC      C3 5523   0.529   3.071   6.657  0.1104 -0.1747  0.1856
    1PC      HA 5524   0.500   2.989   6.723 -1.5308  0.0981 -0.1412
    1PC      HB 5525   0.637   3.059   6.650 -0.1871 -2.6447 -1.5757
    1PC     O31 5526   0.482   3.194   6.731 -0.2705 -0.7150 -0.2161
    1PC     P31 5527   0.546   3.234   6.875  0.1194 -0.2507 -0.0550
    1PC     O32 5528   0.502   3.117   6.975  0.1066 -0.5071 -0.1828
    1PC     C31 5529   0.362   3.117   7.020 -0.3865 -0.1077  0.5616
    1PC     H1A 5530   0.341   3.204   7.082 -0.1434  0.1143  0.3338
    1PC     H1B 5531   0.293   3.127   6.936 -0.5326  1.0748  0.8063
    1PC     C32 5532   0.343   2.989   7.096 -0.2424  0.4368 -0.3715
    1PC     H2A 5533   0.390   2.909   7.038 -0.1852 -0.3733  0.7485
    1PC     H2B 5534   0.404   2.999   7.186 -3.2595  0.4844  1.8080
    1PC     N31 5535   0.209   2.947   7.148  0.1656  0.6427  0.3953
    1PC     C33 5536   0.108   2.939   7.041 -0.3384  0.1256  0.0206
    1PC     H3A 5537   0.138   2.871   6.962 -1.1134  0.0667 -0.2312
    1PC     H3B 5538   0.017   2.894   7.081 -0.9874  0.9093 -0.5284
    1PC     H3C 5539   0.092   3.041   7.004  2.3696  0.9242  0.8017
    1PC     C34 5540   0.206   2.814   7.218  0.7527 -0.1894  0.1504
    1PC     H4A 5541   0.279   2.820   7.298  1.6311 -2.6673 -0.3596
    1PC     H4B 5542   0.103   2.788   7.245 -0.0415  0.0028 -2.3647
    1PC     H4C 5543   0.253   2.739   7.153  2.7497  0.5482  0.6744
    1PC     C35 5544   0.160   3.047   7.248  0.0599 -0.0015  0.2587
    1PC     H5A 5545   0.052   3.039   7.262  0.2780 -0.8349  1.5926
    1PC     H5B 5546   0.179   3.142   7.198  0.5418 -0.5227 -0.5722
    1PC     H5C 5547   0.211   3.040   7.344 -0.1906 -0.6542  0.3504
    1PC     O33 5548   0.694   3.216   6.857 -0.0740 -0.0287  0.1646
    1PC     O34 5549   0.489   3.358   6.933 -0.1963  0.2850  0.8943
    1PC     O21 5550   0.502   2.923   6.472  1.2367 -0.3936  0.1783
    1PC     C21 5551   0.412   2.833   6.429 -0.1408  0.5890  0.2602
    1PC     O22 5552   0.293   2.847   6.421 -0.1749 -0.4502 -0.2064
    1OL     C12 5553   0.480   2.704   6.397  0.0739  0.3007 -0.0469
    1OL     H2R 5554   0.473   2.631   6.478  1.8283 -1.3670 -1.3393
    1OL     H2S 5555   0.588   2.716   6.386 -0.0869  0.1232 -2.0353
    1OL     C13 5556   0.417   2.637   6.275  0.3776  0.4322 -0.2501
    1OL     H3R 5557   0.309   2.627   6.288  0.0378  0.4080 -2.7488
    1OL     H3S 5558   0.464   2.538   6.276 -0.6721 -0.0773 -0.0013
    1OL     C14 5559   0.450   2.684   6.135  0.1362 -0.2161 -0.0512
    1OL     H4R 5560   0.354   2.680   6.083 -1.8000 -0.4137  3.2561
    1OL     H4S 5561   0.514   2.611   6.084  1.0873 -0.5200  1.5082
    1OL     C15 5562   0.503   2.830   6.112 -0.9872 -0.2076  0.4133
    1OL     H5R 5563   0.599   2.834   6.164 -1.8745 -1.0171  2.2051
    1OL     H5S 5564   0.435   2.899   6.161  1.2493  2.6303 -0.1707
    1OL     C16 5565   0.508   2.869   5.957  0.2245  0.4358 -0.0313
    1OL     H6R 5566   0.410   2.889   5.911 -0.3170  1.3091  1.4405
    1OL     H6S 5567   0.543   2.786   5.896 -0.0994 -0.9491  1.6005
    1OL     C17 5568   0.605   2.986   5.937  0.2565 -0.3130 -0.4765
    1OL     H7R 5569   0.691   2.982   6.004  1.1055 -0.0350 -1.5221
    1OL     H7S 5570   0.547   3.070   5.974 -0.3997 -1.8144  2.2059
    1OL     C18 5571   0.666   3.013   5.801  0.8830  1.4256  0.4135
    1OL     H8R 5572   0.594   3.049   5.726 -0.3031 -0.7244  0.4435
    1OL     H8S 5573   0.711   2.920   5.766 -0.8383 -0.5016  2.9769
    1OL     C19 5574   0.769   3.116   5.819  0.3651 -0.0398  0.1629
    1OL     H9R 5575   0.726   3.213   5.796 -0.0520 -0.7270 -2.3195
    1OL    C110 5576   0.898   3.108   5.829  0.1268 -0.0946  0.3766
    1OL    H10R 5577   0.956   3.199   5.842  0.8586 -0.6748  1.2781
    1OL    C111 5578   0.973   2.982   5.833  0.0996  0.4979  0.1130
    1OL    H11R 5579   0.914   2.891   5.824 -0.5397  0.8418  0.7456
    1OL    H11S 5580   1.020   2.982   5.931  2.9536  0.1973 -1.1574
    1OL    C112 5581   1.077   2.978   5.714 -0.1462  0.1849  0.4878
    1OL    H12R 5582   1.106   2.873   5.701  0.9066  0.6185 -1.0323
    1OL    H12S 5583   1.170   3.034   5.732  0.9433 -1.0807 -0.8953
    1OL    C113 5584   1.019   3.026   5.582  0.0406  0.0693  0.2004
    1OL    H13R 5585   0.994   3.132   5.595  0.2624  0.2822 -0.9954
    1OL    H13S 5586   0.924   2.984   5.549 -0.8509  2.6510 -0.8150
    1OL    C114 5587   1.118   3.024   5.468  0.2879  0.0891  0.0176
    1OL    H14R 5588   1.120   2.919   5.438  0.2912 -0.4751  1.8937
    1OL    H14S 5589   1.217   3.055   5.501  0.0742 -0.6087  1.3586
    1OL    C115 5590   1.080   3.110   5.350  0.0943 -0.5762 -0.0122
    1OL    H15R 5591   1.146   3.100   5.263 -0.2712  1.6022 -0.5995
    1OL    H15S 5592   1.087   3.215   5.379 -0.4752 -0.7678  0.8161
    1OL    C116 5593   0.943   3.081   5.279 -0.2758 -0.2994  0.3136
    1OL    H16R 5594   0.870   3.091   5.360  0.0412  2.0583  0.3822
    1OL    H16S 5595   0.950   2.983   5.232  0.9440 -0.1854  0.2361
    1OL    C117 5596   0.905   3.181   5.168 -0.1655  0.4614  0.0189
    1OL    H17R 5597   0.977   3.189   5.086 -1.7556  2.4216 -1.2717
    1OL    H17S 5598   0.896   3.280   5.212 -2.0430 -0.2143  1.2760
    1OL    C118 5599   0.770   3.137   5.108  0.1727  0.1602  0.7081
    1OL    H18R 5600   0.705   3.092   5.184 -2.0304  1.4597 -0.3094
    1OL    H18S 5601   0.714   3.213   5.054  1.5655  0.9022  0.2737
    1OL    H18T 5602   0.779   3.049   5.044  0.0690  0.8328 -0.2618
    1PA    C116 5603   2.108   0.315   5.268 -0.2619 -0.1012  0.1025
    1PA    H16R 5604   2.174   0.228   5.267  0.3684  0.3315 -2.1979
    1PA    H16S 5605   2.141   0.364   5.359  0.5022  1.4713 -0.9681
    1PA    H16T 5606   2.150   0.375   5.187 -1.0515 -0.5350 -0.6445
    1PA    C115 5607   1.959   0.296   5.247  0.5548 -0.1548  0.2455
    1PA    H15R 5608   1.914   0.394   5.262 -2.7906 -1.4785 -0.2080
    1PA    H15S 5609   1.933   0.277   5.143 -3.2583  0.6395  0.8796
    1PA    C114 5610   1.893   0.203   5.349  0.2203 -0.5506 -0.3721
    1PA    H14R 5611   1.914   0.102   5.314 -0.8900 -1.1439  0.6141
    1PA    H14S 5612   1.945   0.212   5.445  1.4885 -0.1260 -1.0619
    1PA    C113 5613   1.744   0.219   5.355 -0.6056 -0.2510 -0.1623
    1PA    H13R 5614   1.730   0.327   5.371  0.3730  0.0453 -1.2025
    1PA    H13S 5615   1.682   0.186   5.271  0.1521 -2.2036  0.0042
    1PA    C112 5616   1.693   0.147   5.475  0.3822  0.1565 -0.5497
    1PA    H12R 5617   1.741   0.183   5.566 -0.0674  0.3903 -0.4018
    1PA    H12S 5618   1.587   0.173   5.477  0.7532  1.9255  2.0573
    1PA    C111 5619   1.703  -0.004   5.471  0.4814 -0.1195 -0.4952
    1PA    H11R 5620   1.690  -0.043   5.370 -0.2572  0.2623 -0.5515
    1PA    H11S 5621   1.804  -0.024   5.508  1.0559  2.5573 -0.4611
    1PA    C110 5622   1.588  -0.061   5.567  0.3205 -0.2734  0.0354
    1PA    H10R 5623   1.579  -0.018   5.667  0.5497 -0.7455  0.2620
    1PA    H10S 5624   1.493  -0.050   5.516 -0.2541  0.8577  1.2980
    1PA     C19 5625   1.615  -0.209   5.580  0.1748  0.1359  0.1305
    1PA     H9R 5626   1.597  -0.244   5.478  0.6209  2.0199 -0.6325
    1PA     H9S 5627   1.718  -0.222   5.613  1.3918 -0.0694 -3.3445
    1PA     C18 5628   1.524  -0.288   5.671 -0.1902  0.7762 -0.5459
    1PA     H8R 5629   1.423  -0.255   5.647 -0.2688  2.4033  1.6585
    1PA     H8S 5630   1.533  -0.396   5.660  0.9490  0.8729 -0.6375
    1PA     C17 5631   1.558  -0.256   5.822  0.3283  0.4083 -0.1868
    1PA     H7R 5632   1.665  -0.272   5.841 -0.0205 -1.7972  0.1355
    1PA     H7S 5633   1.524  -0.153   5.836 -3.8136 -0.8575  0.3023
    1PA     C16 5634   1.475  -0.343   5.918 -0.8345  0.2778  0.2058
    1PA     H6R 5635   1.370  -0.315   5.903 -1.0825  0.3623  1.8406
    1PA     H6S 5636   1.490  -0.451   5.909  2.5348  0.3536  2.8905
    1PA     C15 5637   1.514  -0.306   6.064  0.5577  0.1963 -0.1266
    1PA     H5R 5638   1.621  -0.309   6.082  0.5436  1.1087  0.2062
    1PA     H5S 5639   1.478  -0.205   6.088  0.9004  0.7250 -1.7122
    1PA     C14 5640   1.451  -0.402   6.165  0.1153 -0.1349 -0.8167
    1PA     H4R 5641   1.343  -0.390   6.179  0.0708 -0.5312 -0.8004
    1PA     H4S 5642   1.455  -0.505   6.127  1.5920 -1.1089  1.7051
    1PA     C13 5643   1.522  -0.396   6.303 -0.4585 -0.2555 -0.0257
    1PA     H3R 5644   1.501  -0.492   6.351 -0.2736 -0.7117 -0.8503
    1PA     H3S 5645   1.631  -0.394   6.293 -0.3310 -0.1220  1.2347
    1PA     C12 5646   1.469  -0.282   6.395  0.3942  0.2162 -0.2211
    1PA     H2R 5647   1.451  -0.186   6.346 -0.2976 -0.0772 -0.5455
    1PA     H2S 5648   1.365  -0.304   6.420 -0.1956  0.7387 -2.0628
    1PC     C11 5649   1.552  -0.253   6.517 -0.0895 -0.3312 -0.1489
    1PC     O12 5650   1.676  -0.233   6.515 -0.0871 -0.3667  0.0442
    1PC     O11 5651   1.470  -0.220   6.625  0.2270  0.1850 -0.3237
    1PC      C1 5652   1.530  -0.129   6.716 -0.1873  0.4570  0.1823
    1PC      HR 5653   1.629  -0.171   6.735  0.1110  0.4286 -1.3263
    1PC      HS 5654   1.543  -0.029   6.673 -2.4669  0.6383 -0.1766
    1PC      C2 5655   1.435  -0.107   6.838  0.3463 -0.0668  0.4370
    1PC      HX 5656   1.481  -0.031   6.902  1.6520 -1.0562  0.7224
    1PC      C3 5657   1.421  -0.241   6.907 -0.2811  0.6057 -0.4113
    1PC      HA 5658   1.397  -0.327   6.844  3.5226 -0.3873 -0.7032
    1PC      HB 5659   1.519  -0.265   6.948 -1.1308 -2.1308  0.2258
    1PC     O31 5660   1.322  -0.225   7.007 -0.0713  0.3093 -0.5925
    1PC     P31 5661   1.353  -0.158   7.150  0.1800 -0.0965 -0.3039
    1PC     O32 5662   1.333  -0.283   7.252  0.3118  0.3135 -0.0981
    1PC     C31 5663   1.208  -0.362   7.263 -0.7612  0.0252  0.1006
    1PC     H1A 5664   1.134  -0.296   7.310 -0.8788  1.6744 -2.1986
    1PC     H1B 5665   1.171  -0.386   7.163  1.1166  1.0356 -0.8970
    1PC     C32 5666   1.226  -0.493   7.337 -0.5172  0.3856 -0.2458
    1PC     H2A 5667   1.243  -0.474   7.444 -1.5865  0.3259 -0.0538
    1PC     H2B 5668   1.132  -0.543   7.314 -0.6552 -0.6743  2.2563
    1PC     N31 5669   1.318  -0.608   7.295 -0.0441 -0.5879 -0.1327
    1PC     C33 5670   1.278  -0.721   7.375 -0.2285  0.2673 -0.2795
    1PC     H3A 5671   1.286  -0.705   7.483 -1.1999 -3.1647  0.4154
    1PC     H3B 5672   1.175  -0.741   7.348 -0.3964  1.3752 -0.5145
    1PC     H3C 5673   1.330  -0.809   7.337 -0.7819  0.5932 -1.8622
    1PC     C34 5674   1.302  -0.658   7.152 -0.7076 -0.3668  0.0828
    1PC     H4A 5675   1.359  -0.751   7.140 -0.1321  0.3193 -3.7706
    1PC     H4B 5676   1.197  -0.662   7.125 -0.4027  0.7856 -1.3901
    1PC     H4C 5677   1.344  -0.578   7.091 -2.2017  2.1072  2.0994
    1PC     C35 5678   1.461  -0.565   7.315 -0.0657  0.0698 -0.0581
    1PC     H5A 5679   1.461  -0.537   7.421 -1.4936  1.7589 -0.4545
    1PC     H5B 5680   1.484  -0.483   7.247  0.2457 -1.0477 -1.3441
    1PC     H5C 5681   1.521  -0.653   7.293 -1.6433 -0.6312 -1.7708
    1PC     O33 5682   1.497  -0.117   7.143 -0.3662  0.4204 -0.7033
    1PC     O34 5683   1.247  -0.062   7.177 -0.1769  0.3547  0.5498
    1PC     O21 5684   1.303  -0.048   6.798 -0.1194  0.4614  0.3817
    1PC     C21 5685   1.284   0.089   6.800  0.9172  0.5626 -0.3933
    1PC     O22 5686   1.352   0.171   6.860 -0.5086  0.3580 -0.7607
    1OL     C12 5687   1.163   0.131   6.720  0.0896  0.0065 -0.1068
    1OL     H2R 5688   1.104   0.193   6.787 -0.8983 -1.0275  0.0062
    1OL     H2S 5689   1.093   0.056   6.683 -1.3475  0.2649  1.9397
    1OL     C13 5690   1.204   0.211   6.593  0.5904 -0.0835  0.1916
    1OL     H3R 5691   1.260   0.300   6.622 -0.0013  0.5334 -0.5210
    1OL     H3S 5692   1.118   0.246   6.536 -0.1488 -2.4133 -0.2144
    1OL     C14 5693   1.291   0.124   6.501 -0.1903  0.0773  0.2587
    1OL     H4R 5694   1.233   0.033   6.486 -0.1512  0.3432 -1.8165
    1OL     H4S 5695   1.382   0.091   6.551 -0.4504 -1.4361 -0.2137
    1OL     C15 5696   1.334   0.195   6.370  0.4130  0.2315  0.0807
    1OL     H5R 5697   1.388   0.284   6.403 -1.3603  0.5782  2.3120
    1OL     H5S 5698   1.241   0.227   6.323 -0.1187  1.0079  1.6143
    1OL     C16 5699   1.416   0.116   6.266  0.7704 -0.5577 -0.1139
    1OL     H6R 5700   1.351   0.031   6.246  0.6867 -1.0059  1.8192
    1OL     H6S 5701   1.508   0.076   6.309  0.1731 -2.1410 -0.2347
    1OL     C17 5702   1.451   0.208   6.151 -0.5271 -0.0130  0.1362
    1OL     H7R 5703   1.527   0.271   6.199  0.1075 -0.6915  0.0495
    1OL     H7S 5704   1.362   0.264   6.122 -0.9523 -1.4089 -1.3864
    1OL     C18 5705   1.525   0.133   6.042 -1.2436  0.5936  0.4177
    1OL     H8R 5706   1.568   0.201   5.969 -0.4131  0.4497  0.7571
    1OL     H8S 5707   1.456   0.063   5.994  0.4294 -1.3333  0.6739
    1OL     C19 5708   1.639   0.047   6.093 -0.4555  1.5762 -0.1642
    1OL     H9R 5709   1.626   0.002   6.191  1.1975 -0.0398 -0.6388
    1OL    C110 5710   1.766   0.027   6.047  1.1177 -0.2236 -0.0415
    1OL    H10R 5711   1.828  -0.035   6.111  0.3188 -1.0912 -0.0890
    1OL    C111 5712   1.813   0.050   5.903 -0.4210 -0.4872 -0.0962
    1OL    H11R 5713   1.797   0.149   5.861  2.5019 -0.6124 -1.8489
    1OL    H11S 5714   1.755  -0.019   5.841 -1.8571  0.5045  0.1155
    1OL    C112 5715   1.959   0.008   5.898 -0.7420 -0.2455 -0.7078
    1OL    H12R 5716   1.947  -0.098   5.921 -0.7695 -0.4504 -1.6034
    1OL    H12S 5717   2.029   0.059   5.964 -0.9340  0.4951 -1.0711
    1OL    C113 5718   2.034   0.017   5.764  0.1786  0.1358 -0.5702
    1OL    H13R 5719   2.015   0.117   5.725  0.5268  0.6169  0.4841
    1OL    H13S 5720   1.980  -0.058   5.706  0.0039 -1.0748  1.0992
    1OL    C114 5721   2.187  -0.012   5.783 -0.0808 -0.8241  0.4571
    1OL    H14R 5722   2.220  -0.027   5.679  1.2972  0.4786  0.6729
    1OL    H14S 5723   2.207  -0.109   5.829 -3.1668 -1.9338 -0.2769
    1OL    C115 5724   2.268   0.098   5.853 -0.8574 -0.3695 -0.0978
    1OL    H15R 5725   2.245   0.100   5.960  0.2322  0.5140  0.1447
    1OL    H15S 5726   2.246   0.192   5.802  0.4672 -0.0143 -0.0658
    1OL    C116 5727   2.420   0.078   5.832 -0.4989 -0.4450 -0.1444
    1OL    H16R 5728   2.453  -0.020   5.868 -1.4046 -0.7045  0.0072
    1OL    H16S 5729   2.475   0.146   5.896  1.1396 -2.3698  0.5854
    1OL    C117 5730   2.462   0.083   5.684 -0.2300  0.0776  0.3316
    1OL    H17R 5731   2.425   0.166   5.623  0.7059  2.0137  2.2434
    1OL    H17S 5732   2.421  -0.007   5.639  0.4868 -0.1502  0.1093
    1OL    C118 5733   2.618   0.081   5.675  0.0316 -0.0262 -0.1095
    1OL    H18R 5734   2.663   0.172   5.714  0.8100  0.0017 -1.0317
    1OL    H18S 5735   2.638   0.086   5.568  0.9860  1.1955  0.1006
    1OL    H18T 5736   2.659  -0.013   5.712 -1.9123 -0.5340  0.8929
    1PA    C116 5737   0.237   0.047   5.054  0.9137  0.8814  0.3773
    1PA    H16R 5738   0.221   0.114   4.970 -2.2254 -0.6165 -0.3784
    1PA    H16S 5739   0.148  -0.015   5.044  1.0014  0.5843  1.3168
    1PA    H16T 5740   0.328  -0.011   5.037  0.3702  1.0122 -4.2339
    1PA    C115 5741   0.237   0.128   5.182 -0.2803 -0.4109 -0.2104
    1PA    H15R 5742   0.340   0.160   5.198  0.2040 -2.4217  1.0843
    1PA    H15S 5743   0.173   0.216   5.171 -1.4481 -0.8820  2.0511
    1PA    C114 5744   0.198   0.043   5.308 -0.3919 -0.0105 -0.1017
    1PA    H14R 5745   0.208   0.113   5.391  1.4660  0.5811 -0.7833
    1PA    H14S 5746   0.090   0.024   5.314 -0.6490  1.8196  3.3375
    1PA    C113 5747   0.288  -0.081   5.329  0.3635 -0.1078 -0.1986
    1PA    H13R 5748   0.292  -0.138   5.236 -3.5852  0.3189 -0.8063
    1PA    H13S 5749   0.388  -0.048   5.360  0.9934 -2.3090  0.2682
    1PA    C112 5750   0.233  -0.177   5.441  0.2699  0.0411 -0.4419
    1PA    H12R 5751   0.148  -0.218   5.387 -0.9275  2.2682 -0.3258
    1PA    H12S 5752   0.294  -0.267   5.451 -0.7462 -0.9481 -2.6032
    1PA    C111 5753   0.190  -0.133   5.577  0.4439 -0.4861  0.2258
    1PA    H11R 5754   0.271  -0.087   5.635  0.9623 -1.6535  0.4717
    1PA    H11S 5755   0.113  -0.056   5.575 -0.2853 -1.1805  0.7710
    1PA    C110 5756   0.127  -0.242   5.667  0.3291 -0.0716  0.6442
    1PA    H10R 5757   0.069  -0.201   5.750 -1.6931 -0.1023 -0.6667
    1PA    H10S 5758   0.050  -0.308   5.625  0.2111 -1.5694  3.0372
    1PA     C19 5759   0.234  -0.331   5.731  0.5824  0.4418  0.5880
    1PA     H9R 5760   0.179  -0.392   5.803  1.6885  0.0014  1.0805
    1PA     H9S 5761   0.267  -0.395   5.648  0.5314 -0.2602  1.1032
    1PA     C18 5762   0.358  -0.261   5.791  0.2445  0.7451  0.3714
    1PA     H8R 5763   0.422  -0.221   5.713  1.4106  0.2022  1.0115
    1PA     H8S 5764   0.324  -0.189   5.865 -2.3356  0.3763 -0.3585
    1PA     C17 5765   0.446  -0.351   5.869 -0.5675 -0.5854  0.5660
    1PA     H7R 5766   0.491  -0.419   5.796 -1.1187  0.1693 -0.5073
    1PA     H7S 5767   0.533  -0.298   5.910  1.6282 -2.7455 -0.9839
    1PA     C16 5768   0.372  -0.423   5.980  0.6087  0.5611  1.0271
    1PA     H6R 5769   0.324  -0.348   6.044 -0.9526  1.0561 -0.6074
    1PA     H6S 5770   0.291  -0.484   5.939  2.2691 -0.7311 -0.5040
    1PA     C15 5771   0.461  -0.513   6.075 -0.1011 -0.3529 -0.3827
    1PA     H5R 5772   0.534  -0.444   6.118  0.3364 -0.9398 -0.1767
    1PA     H5S 5773   0.409  -0.548   6.164  0.1069 -3.4532 -1.3723
    1PA     C14 5774   0.513  -0.637   6.008 -0.5279 -0.3520  0.4065
    1PA     H4R 5775   0.425  -0.681   5.960 -3.0063  2.2547  2.2434
    1PA     H4S 5776   0.597  -0.626   5.939  0.1428  2.6338  1.5697
    1PA     C13 5777   0.575  -0.736   6.113  0.4309  0.5980 -0.2125
    1PA     H3R 5778   0.511  -0.721   6.200 -0.2892  3.7260 -1.1676
    1PA     H3S 5779   0.561  -0.838   6.075  2.7822  0.5354 -1.0911
    1PA     C12 5780   0.726  -0.715   6.154  0.3967  0.2895 -0.6509
    1PA     H2R 5781   0.796  -0.747   6.077  0.4229 -2.8088  0.5257
    1PA     H2S 5782   0.736  -0.607   6.174  0.7786  0.2776 -0.7702
    1PC     C11 5783   0.772  -0.806   6.269  0.6862 -0.4619  0.9783
    1PC     O12 5784   0.871  -0.879   6.259 -0.2200 -0.4477  0.1886
    1PC     O11 5785   0.682  -0.809   6.369 -0.4555  0.5887 -0.6243
    1PC      C1 5786   0.708  -0.879   6.491  0.1790 -0.1409 -0.7053
    1PC      HR 5787   0.684  -0.985   6.477  0.0354 -0.0432 -1.2326
    1PC      HS 5788   0.813  -0.866   6.517  0.0677 -1.3496  0.4901
    1PC      C2 5789   0.612  -0.822   6.598 -0.2405 -0.4519  0.2139
    1PC      HX 5790   0.627  -0.714   6.609 -0.9153 -0.2845 -0.4552
    1PC      C3 5791   0.637  -0.892   6.735  0.2564 -0.5525 -0.1501
    1PC      HA 5792   0.562  -0.855   6.806 -1.3984 -0.7265 -1.7455
    1PC      HB 5793   0.624  -1.000   6.733  2.2025 -0.8119 -0.8633
    1PC     O31 5794   0.767  -0.862   6.783 -0.4052 -0.3365  0.0841
    1PC     P31 5795   0.804  -0.736   6.874 -0.1757  0.2941 -0.0208
    1PC     O32 5796   0.869  -0.630   6.775 -0.0664  0.4062  0.0378
    1PC     C31 5797   0.808  -0.503   6.745 -0.7055  0.9182  0.3520
    1PC     H1A 5798   0.852  -0.466   6.652  0.4436  0.9340  0.8751
    1PC     H1B 5799   0.702  -0.527   6.738 -0.1888 -1.2860 -1.0067
    1PC     C32 5800   0.836  -0.401   6.859  0.3996  0.0163  0.2091
    1PC     H2A 5801   0.765  -0.317   6.861  0.8373  0.3797  0.9159
    1PC     H2B 5802   0.814  -0.450   6.953  0.1252  0.4949  0.3963
    1PC     N31 5803   0.973  -0.338   6.870  0.0759  0.0211 -0.6141
    1PC     C33 5804   0.994  -0.221   6.783 -0.4529 -0.0802  0.4004
    1PC     H3A 5805   1.087  -0.169   6.807 -0.1728 -0.0934 -0.5883
    1PC     H3B 5806   0.983  -0.262   6.682 -3.7195 -0.7311  0.8863
    1PC     H3C 5807   0.907  -0.155   6.793  1.3099  2.3996  0.3583
    1PC     C34 5808   0.980  -0.270   7.004  0.5484  0.5089  0.2713
    1PC     H4A 5809   0.897  -0.200   7.004 -0.4480 -0.5848 -2.0926
    1PC     H4B 5810   0.958  -0.349   7.077 -0.4184 -1.1473 -1.7300
    1PC     H4C 5811   1.078  -0.225   7.020  0.7808 -0.4734  1.9035
    1PC     C35 5812   1.082  -0.438   6.860  0.0068 -0.6538  0.7484
    1PC     H5A 5813   1.091  -0.506   6.945  2.9661  0.4580  1.4752
    1PC     H5B 5814   1.171  -0.377   6.845 -0.4106 -0.3159 -0.4340
    1PC     H5C 5815   1.069  -0.483   6.762  1.2277  0.2021  0.1572
    1PC     O33 5816   0.684  -0.689   6.943  0.7717 -0.3521 -0.7419
    1PC     O34 5817   0.905  -0.793   6.965 -0.4521 -0.4668  0.1741
    1PC     O21 5818   0.474  -0.855   6.566  0.2613  0.7717 -0.0001
    1PC     C21 5819   0.404  -0.756   6.504  0.7827  0.3932 -0.1019
    1PC     O22 5820   0.438  -0.640   6.497  0.3444 -0.1747 -0.1293
    1OL     C12 5821   0.271  -0.814   6.446 -0.6049 -0.2960 -0.3814
    1OL     H2R 5822   0.200  -0.824   6.528 -1.7649  0.1312 -1.2970
    1OL     H2S 5823   0.282  -0.911   6.396  1.2272  0.7526 -2.1756
    1OL     C13 5824   0.210  -0.717   6.344 -0.9826  0.6116  0.1341
    1OL     H3R 5825   0.282  -0.698   6.264  0.5051 -0.1554  1.2260
    1OL     H3S 5826   0.186  -0.623   6.393  0.8316  0.3632  1.6499
    1OL     C14 5827   0.084  -0.782   6.287 -0.4970 -0.1580 -0.0618
    1OL     H4R 5828   0.047  -0.714   6.211 -1.1237 -0.5545 -0.1189
    1OL     H4S 5829   0.015  -0.803   6.369  0.2702 -1.2011  0.3542
    1OL     C15 5830   0.107  -0.911   6.209 -0.2281 -0.1663  0.5415
    1OL     H5R 5831   0.018  -0.931   6.150  1.5258  1.1988 -2.8687
    1OL     H5S 5832   0.120  -0.997   6.275  0.8960 -1.2372 -0.9998
    1OL     C16 5833   0.216  -0.900   6.099 -0.8293 -0.6864 -0.0349
    1OL     H6R 5834   0.308  -0.861   6.142 -0.2084 -0.6632 -1.3475
    1OL     H6S 5835   0.180  -0.858   6.005 -0.9889 -0.2898  0.2013
    1OL     C17 5836   0.253  -1.040   6.050 -0.0131  0.7251  0.0501
    1OL     H7R 5837   0.262  -1.098   6.142  1.1605  0.6717 -0.0823
    1OL     H7S 5838   0.348  -1.045   5.996  0.5631  2.3091  0.8375
    1OL     C18 5839   0.141  -1.114   5.973  0.3295  0.5728  0.4661
    1OL     H8R 5840   0.102  -1.052   5.892  1.0268 -1.6661 -1.6820
    1OL     H8S 5841   0.053  -1.126   6.036 -0.5452 -0.5224 -0.9144
    1OL     C19 5842   0.198  -1.241   5.924  0.4503  0.0735  0.5133
    1OL     H9R 5843   0.214  -1.320   5.998  1.5019  1.0010  1.3222
    1OL    C110 5844   0.200  -1.279   5.793  0.4184 -0.0923 -0.3958
    1OL    H10R 5845   0.233  -1.379   5.765 -2.0536 -1.3482  0.8683
    1OL    C111 5846   0.169  -1.197   5.667 -0.0212 -0.1916 -0.1982
    1OL    H11R 5847   0.260  -1.188   5.608 -0.8266  0.3201 -1.4232
    1OL    H11S 5848   0.142  -1.094   5.691  2.6618  0.7866 -1.0695
    1OL    C112 5849   0.064  -1.261   5.576 -0.3099  0.5634 -0.3762
    1OL    H12R 5850  -0.024  -1.280   5.638 -0.9774 -0.7938 -1.6836
    1OL    H12S 5851   0.093  -1.364   5.554  1.5680  0.3963  2.3365
    1OL    C113 5852   0.030  -1.174   5.449  0.6006 -0.0716 -0.1055
    1OL    H13R 5853   0.026  -1.068   5.475  0.2251 -0.0924 -0.0675
    1OL    H13S 5854  -0.070  -1.199   5.414 -0.9049  6.3810 -1.8311
    1OL    C114 5855   0.136  -1.191   5.334 -0.0199  0.2396  0.6481
    1OL    H14R 5856   0.133  -1.293   5.295 -0.7678  0.7299 -0.6435
    1OL    H14S 5857   0.236  -1.162   5.367 -0.4909  0.6853  1.6998
    1OL    C115 5858   0.081  -1.097   5.219 -0.3472 -0.3991 -0.8549
    1OL    H15R 5859   0.090  -0.995   5.258 -1.1192 -0.9518  0.8164
    1OL    H15S 5860  -0.027  -1.107   5.213 -0.3076 -0.9219 -0.7245
    1OL    C116 5861   0.146  -1.117   5.082 -0.1010  0.0223 -0.1751
    1OL    H16R 5862   0.092  -1.052   5.014 -0.4733 -0.9051 -0.7792
    1OL    H16S 5863   0.122  -1.219   5.052  0.6525 -0.2901  0.2550
    1OL    C117 5864   0.300  -1.097   5.076 -0.1927 -0.6426 -0.2621
    1OL    H17R 5865   0.338  -1.108   4.974 -0.9504 -1.2349 -0.4880
    1OL    H17S 5866   0.348  -1.172   5.139  0.5348  1.4600  1.8347
    1OL    C118 5867   0.354  -0.961   5.136  0.6254 -0.5945  0.8184
    1OL    H18R 5868   0.313  -0.953   5.237  0.7981  1.3548  0.7641
    1OL    H18S 5869   0.315  -0.875   5.082  0.4502 -1.5763 -0.6879
    1OL    H18T 5870   0.462  -0.950   5.132  0.6059 -0.3640  0.9540
    1PA    C116 5871   0.015   1.377   5.641  0.4499 -0.5139 -0.1364
    1PA    H16R 5872   0.026   1.465   5.577  0.1169 -0.3303  0.0580
    1PA    H16S 5873   0.077   1.387   5.730  0.8427 -2.5574 -0.1246
    1PA    H16T 5874  -0.089   1.376   5.676 -0.3151 -0.7459 -2.2335
    1PA    C115 5875   0.042   1.249   5.566 -0.3804  0.2233 -0.1925
    1PA    H15R 5876  -0.035   1.216   5.496 -0.1996 -0.5468 -0.0343
    1PA    H15S 5877   0.122   1.279   5.497  0.6443  1.2377  1.3821
    1PA    C114 5878   0.077   1.123   5.646 -0.3296 -0.4448 -0.5818
    1PA    H14R 5879  -0.009   1.078   5.697 -0.3557 -0.3906 -0.5763
    1PA    H14S 5880   0.122   1.057   5.572  0.1215  0.2318 -0.9233
    1PA    C113 5881   0.192   1.146   5.753 -0.1159  0.4042 -0.5920
    1PA    H13R 5882   0.266   1.209   5.704  0.4114  0.2260 -0.0300
    1PA    H13S 5883   0.141   1.201   5.832 -0.9833 -0.5768 -0.4355
    1PA    C112 5884   0.256   1.014   5.788 -0.0887 -0.0162 -0.3361
    1PA    H12R 5885   0.174   0.949   5.818 -1.2284  0.9200 -1.3286
    1PA    H12S 5886   0.315   0.963   5.711  0.4824 -1.6170  1.1054
    1PA    C111 5887   0.372   1.037   5.887 -0.2873 -0.0828  0.3110
    1PA    H11R 5888   0.430   0.946   5.905 -2.1566 -1.1109  1.4673
    1PA    H11S 5889   0.436   1.114   5.842 -0.3980 -1.8217 -3.1747
    1PA    C110 5890   0.324   1.078   6.026 -0.0267  0.1917 -0.1066
    1PA    H10R 5891   0.299   1.183   6.010  1.0649  0.3842 -0.6081
    1PA    H10S 5892   0.237   1.015   6.048 -1.8755  1.9181 -2.0261
    1PA     C19 5893   0.437   1.065   6.134  0.8765 -0.6006  0.7825
    1PA     H9R 5894   0.478   0.964   6.132  2.5680  0.0767 -0.2580
    1PA     H9S 5895   0.513   1.140   6.112 -2.4498  2.4439 -1.5067
    1PA     C18 5896   0.387   1.070   6.282 -0.1000  0.3434 -0.2391
    1PA     H8R 5897   0.317   1.154   6.291  0.4268  0.7594  0.1080
    1PA     H8S 5898   0.328   0.979   6.294 -2.5607  1.5777 -2.0285
    1PA     C17 5899   0.490   1.070   6.395  0.1115 -0.3964 -0.1784
    1PA     H7R 5900   0.533   0.970   6.390  0.3366 -0.2524 -1.3636
    1PA     H7S 5901   0.574   1.137   6.378  0.5125 -0.3406  1.7141
    1PA     C16 5902   0.431   1.091   6.536  0.1625 -0.6936 -0.4182
    1PA     H6R 5903   0.518   1.102   6.601 -1.5323 -0.4497  1.9283
    1PA     H6S 5904   0.376   1.186   6.533  1.8310  0.3028 -1.0674
    1PA     C15 5905   0.338   0.979   6.587 -0.1440  0.1654  0.0544
    1PA     H5R 5906   0.253   0.969   6.519 -0.8688  1.8637  0.6544
    1PA     H5S 5907   0.390   0.883   6.584 -2.8567 -1.3646 -1.4034
    1PA     C14 5908   0.275   1.023   6.720 -0.1242  0.2993 -0.4496
    1PA     H4R 5909   0.353   1.054   6.790 -0.5033  1.1052 -0.3780
    1PA     H4S 5910   0.212   1.112   6.716 -0.4221  0.0794 -0.7515
    1PA     C13 5911   0.197   0.905   6.779 -0.1243  0.5049  0.0487
    1PA     H3R 5912   0.144   0.939   6.868 -0.6905 -0.4575  0.0982
    1PA     H3S 5913   0.116   0.871   6.713 -0.6807  0.2291  0.8616
    1PA     C12 5914   0.265   0.769   6.814  0.0081 -0.0101 -0.6721
    1PA     H2R 5915   0.189   0.701   6.854  0.2877 -0.6005 -1.1317
    1PA     H2S 5916   0.304   0.719   6.725  0.4453  2.1089 -1.7252
    1PC     C11 5917   0.376   0.777   6.910 -0.2214  0.1537  0.8104
    1PC     O12 5918   0.386   0.860   6.999 -0.9368 -0.2182  0.0235
    1PC     O11 5919   0.448   0.671   6.892  0.1754  0.0541 -0.2109
    1PC      C1 5920   0.545   0.634   6.997 -0.2818  0.3581  0.1474
    1PC      HR 5921   0.609   0.562   6.946 -0.4502 -0.4528  1.0504
    1PC      HS 5922   0.602   0.724   7.023  3.1786 -1.7554  0.5305
    1PC      C2 5923   0.499   0.568   7.133  0.1899 -0.3491 -0.0623
    1PC      HX 5924   0.434   0.646   7.174  1.0813  0.8512 -0.8693
    1PC      C3 5925   0.617   0.550   7.228  0.0182 -0.2014 -0.3630
    1PC      HA 5926   0.573   0.492   7.309 -1.4995 -0.4548 -1.3339
    1PC      HB 5927   0.694   0.493   7.176 -0.7732 -2.8640  1.2304
    1PC     O31 5928   0.672   0.680   7.283  0.4818  0.2326  0.1095
    1PC     P31 5929   0.608   0.780   7.395  0.3087  0.3560  0.4297
    1PC     O32 5930   0.651   0.719   7.532  0.0739 -0.4712  0.1737
    1PC     C31 5931   0.578   0.615   7.592  0.2735  1.0312  0.5341
    1PC     H1A 5932   0.559   0.542   7.513 -0.3568  1.2503  0.4763
    1PC     H1B 5933   0.645   0.561   7.660  0.2355  0.0928 -0.1505
    1PC     C32 5934   0.439   0.663   7.652 -0.8597 -0.1359  0.1547
    1PC     H2A 5935   0.390   0.725   7.577 -0.0517  0.6468  0.2443
    1PC     H2B 5936   0.386   0.570   7.670  0.6400 -0.8120  1.3301
    1PC     N31 5937   0.449   0.749   7.768  0.0784  0.6265  0.2518
    1PC     C33 5938   0.312   0.752   7.820  0.6411 -0.6561  0.2511
    1PC     H3A 5939   0.287   0.649   7.843 -1.5839 -0.3530 -0.5801
    1PC     H3B 5940   0.301   0.820   7.905 -0.1874  2.2165 -1.9704
    1PC     H3C 5941   0.245   0.783   7.740 -0.2898  1.1545  1.6670
    1PC     C34 5942   0.523   0.685   7.883  0.0742  0.3732 -0.4146
    1PC     H4A 5943   0.475   0.594   7.918 -0.2862  0.4852 -0.6178
    1PC     H4B 5944   0.624   0.655   7.854 -0.0719 -3.1535  2.0520
    1PC     H4C 5945   0.527   0.768   7.954  1.7519  1.6793 -1.9259
    1PC     C35 5946   0.487   0.886   7.725 -0.4800  0.3367 -0.3160
    1PC     H5A 5947   0.477   0.953   7.811  0.4156 -0.5468  0.5072
    1PC     H5B 5948   0.427   0.926   7.644 -1.5890 -0.7566 -0.0595
    1PC     H5C 5949   0.587   0.875   7.682 -0.6390  1.5399 -1.0590
    1PC     O33 5950   0.677   0.913   7.374  0.4873  0.2982  0.7260
    1PC     O34 5951   0.463   0.767   7.381 -0.6531  0.1053  0.0096
    1PC     O21 5952   0.435   0.437   7.111 -0.2251 -0.0217  0.1465
    1PC     C21 5953   0.315   0.433   7.051 -0.2921 -0.0597 -0.6060
    1PC     O22 5954   0.240   0.528   7.050 -0.5915  0.6343  0.1516
    1OL     C12 5955   0.277   0.293   7.018 -0.1732 -0.1353  0.5317
    1OL     H2R 5956   0.174   0.300   6.982 -0.6977 -1.3244  1.7132
    1OL     H2S 5957   0.271   0.233   7.109  2.4169 -1.5849 -0.1639
    1OL     C13 5958   0.365   0.232   6.912  0.2335 -0.0815 -0.3576
    1OL     H3R 5959   0.324   0.133   6.893 -0.8203  0.2426  0.1505
    1OL     H3S 5960   0.466   0.214   6.951 -0.3565  1.4477  2.0911
    1OL     C14 5961   0.376   0.317   6.782 -0.3577  0.2105  0.1588
    1OL     H4R 5962   0.405   0.419   6.807 -3.1878  1.2105 -0.2940
    1OL     H4S 5963   0.279   0.318   6.730  0.1300 -3.6864 -1.2105
    1OL     C15 5964   0.462   0.244   6.668  0.1447  0.8310 -1.4123
    1OL     H5R 5965   0.450   0.136   6.679 -0.3871  1.1486  2.5547
    1OL     H5S 5966   0.560   0.261   6.712  0.7792 -1.8742 -1.5879
    1OL     C16 5967   0.435   0.290   6.526 -0.0848  0.0187 -0.2845
    1OL     H6R 5968   0.329   0.308   6.511 -0.2074 -0.8609 -0.5315
    1OL     H6S 5969   0.463   0.217   6.449  1.9237  0.6645 -0.2216
    1OL     C17 5970   0.508   0.423   6.503 -0.0376  0.3694  1.0688
    1OL     H7R 5971   0.614   0.410   6.479 -0.6328 -1.6870 -0.7506
    1OL     H7S 5972   0.489   0.490   6.588  0.9539  3.0928 -0.7121
    1OL     C18 5973   0.443   0.484   6.374 -0.3636 -0.4275 -0.3018
    1OL     H8R 5974   0.334   0.471   6.374 -0.2313 -1.6282 -0.5990
    1OL     H8S 5975   0.480   0.438   6.283 -3.1874 -0.2904 -1.6170
    1OL     C19 5976   0.479   0.629   6.374 -0.4267 -0.4990 -0.5548
    1OL     H9R 5977   0.507   0.678   6.467  0.9664 -1.2966 -0.5273
    1OL    C110 5978   0.479   0.703   6.264 -0.3959  0.4578  0.1672
    1OL    H10R 5979   0.499   0.808   6.281 -2.2939  0.8433  0.2138
    1OL    C111 5980   0.423   0.663   6.131 -0.2470 -1.3741  0.2483
    1OL    H11R 5981   0.367   0.752   6.100  0.4851 -1.9810 -3.2048
    1OL    H11S 5982   0.353   0.581   6.147 -0.9655 -0.7317  0.4939
    1OL    C112 5983   0.530   0.623   6.033 -0.0125 -0.4583 -0.2037
    1OL    H12R 5984   0.576   0.531   6.071  0.9675 -0.3676 -1.1487
    1OL    H12S 5985   0.596   0.710   6.026 -0.0284 -0.4523 -0.2767
    1OL    C113 5986   0.477   0.581   5.900  0.2306  0.1229 -0.4649
    1OL    H13R 5987   0.405   0.654   5.864  0.5671  0.7333  0.0852
    1OL    H13S 5988   0.432   0.482   5.909  0.2183  0.1841  0.1599
    1OL    C114 5989   0.591   0.576   5.793 -0.3606  0.2212 -0.2087
    1OL    H14R 5990   0.567   0.504   5.715  2.0509 -0.6496 -0.2066
    1OL    H14S 5991   0.683   0.541   5.840 -0.2293  2.7237  1.6550
    1OL    C115 5992   0.625   0.710   5.727 -0.0590  0.0056  0.3518
    1OL    H15R 5993   0.721   0.696   5.677 -0.2172 -1.1067  0.3354
    1OL    H15S 5994   0.632   0.797   5.792  0.4930 -0.1199  0.4582
    1OL    C116 5995   0.524   0.746   5.612 -0.8065 -0.4714 -0.0864
    1OL    H16R 5996   0.421   0.754   5.648 -0.4236  1.8139  0.6787
    1OL    H16S 5997   0.520   0.677   5.527 -2.8112 -0.4680 -0.0457
    1OL    C117 5998   0.550   0.887   5.549 -0.3578  0.2467 -0.6826
    1OL    H17R 5999   0.653   0.891   5.514  0.3676  0.5066  1.3701
    1OL    H17S 6000   0.545   0.956   5.634 -1.1956 -1.4923  0.7352
    1OL    C118 6001   0.447   0.928   5.441 -0.0350 -0.2014 -0.2700
    1OL    H18R 6002   0.343   0.922   5.473 -1.0291  0.7037 -3.0144
    1OL    H18S 6003   0.467   0.881   5.344  0.7196  0.2578 -0.3401
    1OL    H18T 6004   0.457   1.033   5.414 -2.3058  0.2646  0.5070
    1PA    C116 6005   0.202   0.569   5.075  0.4073 -0.5940  0.1444
    1PA    H16R 6006   0.173   0.488   5.142  0.4274 -0.3647  0.4345
    1PA    H16S 6007   0.179   0.556   4.969  0.5045  0.3023 -0.0005
    1PA    H16T 6008   0.152   0.658   5.115 -2.1335 -0.8504 -2.1600
    1PA    C115 6009   0.358   0.587   5.080  0.5446  0.1554  0.3643
    1PA    H15R 6010   0.397   0.504   5.021 -0.6013  0.1911 -0.4781
    1PA    H15S 6011   0.391   0.673   5.022 -1.2518 -0.6419 -2.0209
    1PA    C114 6012   0.413   0.590   5.227  0.2936  0.1623  0.0243
    1PA    H14R 6013   0.506   0.647   5.235 -0.1279  1.4132 -2.8026
    1PA    H14S 6014   0.338   0.636   5.291  0.6309  1.4778 -0.4837
    1PA    C113 6015   0.425   0.444   5.270  0.3793  0.2392  0.6979
    1PA    H13R 6016   0.330   0.391   5.263  0.5650  0.1714 -2.1464
    1PA    H13S 6017   0.490   0.387   5.203  0.3741 -0.3216  1.1605
    1PA    C112 6018   0.476   0.420   5.414  0.7502 -0.9491  0.6299
    1PA    H12R 6019   0.574   0.464   5.436 -0.1545  1.5654 -0.0201
    1PA    H12S 6020   0.400   0.469   5.475 -0.6890 -0.1516 -1.6644
    1PA    C111 6021   0.487   0.274   5.443  0.1759 -0.2655  0.5334
    1PA    H11R 6022   0.391   0.222   5.439 -0.0781  0.0918  1.7183
    1PA    H11S 6023   0.554   0.228   5.370 -2.4579 -1.4760 -1.2974
    1PA    C110 6024   0.547   0.246   5.582  0.7286  0.1596  0.2353
    1PA    H10R 6025   0.644   0.297   5.576  0.1347  1.4830  1.1929
    1PA    H10S 6026   0.498   0.297   5.665 -0.2059 -0.1748 -0.1019
    1PA     C19 6027   0.572   0.091   5.614  0.1573  0.2159 -0.3701
    1PA     H9R 6028   0.482   0.031   5.602 -0.0816 -0.0475  2.2601
    1PA     H9S 6029   0.636   0.054   5.534 -0.8907  1.4228 -1.8336
    1PA     C18 6030   0.636   0.057   5.751 -0.1567 -0.2222 -0.3569
    1PA     H8R 6031   0.659  -0.050   5.760 -1.0616 -0.3458  0.7098
    1PA     H8S 6032   0.732   0.109   5.755 -0.4393  0.3090 -0.4159
    1PA     C17 6033   0.535   0.100   5.866  0.1094  0.1038  0.0216
    1PA     H7R 6034   0.495   0.196   5.833  0.6732  0.3918  0.1635
    1PA     H7S 6035   0.448   0.034   5.858  0.9634 -1.1586  0.7451
    1PA     C16 6036   0.605   0.099   6.004 -0.6952  0.0953 -0.6616
    1PA     H6R 6037   0.663   0.006   6.010 -2.2946 -0.9248 -0.2622
    1PA     H6S 6038   0.670   0.187   6.010 -1.4820  0.5936  2.1049
    1PA     C15 6039   0.501   0.102   6.114 -0.0250  0.3970  0.3151
    1PA     H5R 6040   0.551   0.146   6.201 -0.2695 -2.0481  1.7921
    1PA     H5S 6041   0.409   0.159   6.098 -1.3793 -1.1333  2.1082
    1PA     C14 6042   0.452  -0.033   6.156  0.7239  0.4237  0.1742
    1PA     H4R 6043   0.396  -0.083   6.077  2.0254  0.8473 -1.0626
    1PA     H4S 6044   0.539  -0.093   6.184  0.3730 -0.0556  0.2534
    1PA     C13 6045   0.357  -0.020   6.280  0.8850  0.6509  0.5783
    1PA     H3R 6046   0.421   0.022   6.357  1.7494 -2.1366  1.5009
    1PA     H3S 6047   0.277   0.051   6.258 -0.9821 -0.9635  1.8164
    1PA     C12 6048   0.279  -0.144   6.346  0.2763  0.5176  0.2950
    1PA     H2R 6049   0.210  -0.112   6.424 -0.7951 -1.6446  0.3133
    1PA     H2S 6050   0.222  -0.191   6.266  0.6979  0.0660  0.2534
    1PC     C11 6051   0.366  -0.245   6.417  0.5534  0.3329  0.3767
    1PC     O12 6052   0.469  -0.289   6.372 -0.2284 -0.0181 -0.0249
    1PC     O11 6053   0.303  -0.288   6.531  0.0408  0.3718  0.2548
    1PC      C1 6054   0.388  -0.366   6.620 -0.1460  0.2354 -0.4889
    1PC      HR 6055   0.322  -0.424   6.686 -0.0990  1.4423  0.6738
    1PC      HS 6056   0.457  -0.426   6.560  0.0013 -1.4024  1.1856
    1PC      C2 6057   0.473  -0.272   6.719  0.0331  0.6626 -0.1420
    1PC      HX 6058   0.548  -0.324   6.779 -0.7518  0.6715  0.8880
    1PC      C3 6059   0.391  -0.202   6.828 -0.0705  0.3399 -0.1404
    1PC      HA 6060   0.326  -0.136   6.770 -0.8569 -0.7775 -0.5617
    1PC      HB 6061   0.332  -0.272   6.888 -0.0028  2.4540  2.5757
    1PC     O31 6062   0.476  -0.114   6.906 -0.6336 -0.0303  0.7426
    1PC     P31 6063   0.541  -0.153   7.053 -0.3807 -0.1699  0.0989
    1PC     O32 6064   0.412  -0.150   7.143  0.5541  0.0517 -0.3410
    1PC     C31 6065   0.363  -0.022   7.188  0.3001  0.6583 -0.8896
    1PC     H1A 6066   0.394   0.045   7.107 -0.4982 -0.2227 -1.9643
    1PC     H1B 6067   0.254  -0.020   7.196  0.3498 -0.4495  0.3194
    1PC     C32 6068   0.425   0.013   7.330  0.2585 -0.2199 -0.2286
    1PC     H2A 6069   0.531   0.035   7.320  0.3476 -0.6855 -0.3105
    1PC     H2B 6070   0.381   0.104   7.371 -2.2918 -0.9769 -1.0496
    1PC     N31 6071   0.418  -0.077   7.445  0.0781  0.4651 -0.1182
    1PC     C33 6072   0.437  -0.004   7.569  0.1433 -0.4555 -0.2294
    1PC     H3A 6073   0.423  -0.078   7.648  0.4802 -0.3398 -0.0583
    1PC     H3B 6074   0.538   0.037   7.580 -0.0347 -0.2767  0.9337
    1PC     H3C 6075   0.364   0.077   7.569  1.8469  1.1723 -0.9270
    1PC     C34 6076   0.294  -0.161   7.441  0.0598  0.7098 -0.7323
    1PC     H4A 6077   0.305  -0.243   7.371  0.0657 -1.4667  1.6685
    1PC     H4B 6078   0.271  -0.196   7.542 -0.2264 -0.3308 -1.1478
    1PC     H4C 6079   0.212  -0.093   7.418 -2.1901 -1.5748  0.1418
    1PC     C35 6080   0.529  -0.186   7.430  0.4705 -0.2911  0.0919
    1PC     H5A 6081   0.528  -0.249   7.519 -1.7493  0.9846  1.0595
    1PC     H5B 6082   0.617  -0.122   7.436 -1.2828  2.3286 -0.2364
    1PC     H5C 6083   0.534  -0.247   7.340  1.9083 -0.3988  0.2263
    1PC     O33 6084   0.595  -0.286   7.048  0.5831 -0.0726  0.3841
    1PC     O34 6085   0.633  -0.050   7.097 -0.3966 -0.3478  0.6200
    1PC     O21 6086   0.523  -0.173   6.636  0.1338 -0.4672 -0.2549
    1PC     C21 6087   0.660  -0.161   6.606 -0.2688 -0.0151  0.6623
    1PC     O22 6088   0.740  -0.254   6.617 -0.1114 -0.7735  0.2021
    1OL     C12 6089   0.698  -0.023   6.547 -0.5490 -0.3108 -0.0707
    1OL     H2R 6090   0.729   0.038   6.632  0.2345 -1.1278  0.2498
    1OL     H2S 6091   0.606   0.021   6.508 -0.3126  0.2221 -0.0339
    1OL     C13 6092   0.811  -0.030   6.437  0.1728  0.0845 -0.0762
    1OL     H3R 6093   0.778  -0.104   6.364 -1.6532 -2.0820  2.7337
    1OL     H3S 6094   0.899  -0.075   6.483  0.3662  0.3862 -0.1489
    1OL     C14 6095   0.836   0.106   6.365  0.1031 -0.4968 -0.1955
    1OL     H4R 6096   0.853   0.183   6.441 -1.7467  1.0460 -1.2884
    1OL     H4S 6097   0.746   0.148   6.320  0.1970 -0.0346  0.0412
    1OL     C15 6098   0.949   0.115   6.259  1.1463 -0.3045 -0.0354
    1OL     H5R 6099   1.043   0.127   6.313  0.3097  1.0735  1.1799
    1OL     H5S 6100   0.927   0.207   6.206  0.6900  0.6083  1.6583
    1OL     C16 6101   0.960  -0.013   6.165 -0.0705 -0.1296 -1.0361
    1OL     H6R 6102   0.863  -0.012   6.115 -0.0316  0.2049 -1.1032
    1OL     H6S 6103   0.970  -0.108   6.219  3.1619  1.0195  0.6255
    1OL     C17 6104   1.080  -0.005   6.063  0.7768  0.1053  0.0476
    1OL     H7R 6105   1.178  -0.015   6.109  0.4045 -0.0954  0.8282
    1OL     H7S 6106   1.074   0.092   6.013 -0.1031  0.4757  0.8478
    1OL     C18 6107   1.071  -0.119   5.953 -0.2140  0.5940  0.2244
    1OL     H8R 6108   0.974  -0.128   5.902 -1.2713  2.8359  1.6822
    1OL     H8S 6109   1.077  -0.216   6.001 -0.7663  0.5368  0.1924
    1OL     C19 6110   1.189  -0.101   5.852  0.6866 -0.5545  0.5073
    1OL     H9R 6111   1.283  -0.146   5.883  0.2716 -2.2381 -0.5386
    1OL    C110 6112   1.184  -0.040   5.734  0.0284 -0.0046  0.3605
    1OL    H10R 6113   1.274  -0.034   5.674 -0.6611 -0.2869 -0.7464
    1OL    C111 6114   1.053   0.011   5.676  0.1978 -0.1265  0.1235
    1OL    H11R 6115   1.044   0.118   5.698 -0.4689 -0.1435 -0.0649
    1OL    H11S 6116   0.969  -0.045   5.717 -1.1454  1.2475 -0.6477
    1OL    C112 6117   1.053  -0.012   5.526 -0.1382 -0.2591 -0.3591
    1OL    H12R 6118   1.082  -0.116   5.505 -0.4199 -0.7351  1.4276
    1OL    H12S 6119   1.130   0.052   5.482 -0.3979  0.9645  0.9015
    1OL    C113 6120   0.920   0.040   5.465  0.1529  0.3632  0.4197
    1OL    H13R 6121   0.911   0.147   5.487 -1.7890 -0.2748  3.1786
    1OL    H13S 6122   0.841  -0.017   5.514 -0.0332  0.2520 -0.0001
    1OL    C114 6123   0.908   0.024   5.313 -0.4247  0.5006 -0.0636
    1OL    H14R 6124   0.990   0.074   5.261  0.1628  0.2456  0.6165
    1OL    H14S 6125   0.814   0.063   5.272  0.4278  0.5441 -2.1081
    1OL    C115 6126   0.926  -0.116   5.263 -0.5535  0.4489 -0.1348
    1OL    H15R 6127   0.869  -0.189   5.321  0.2323  0.7288  1.0318
    1OL    H15S 6128   1.032  -0.138   5.275  0.2272  2.6881 -2.1583
    1OL    C116 6129   0.893  -0.126   5.112  0.0915  0.5302  0.1617
    1OL    H16R 6130   0.893  -0.029   5.063  1.0276 -0.2172 -1.4040
    1OL    H16S 6131   0.790  -0.157   5.093  0.3048  0.1302 -0.3829
    1OL    C117 6132   0.979  -0.227   5.029  1.0110  0.9678 -0.1075
    1OL    H17R 6133   1.082  -0.190   5.031  1.1995  0.5610 -1.5041
    1OL    H17S 6134   0.945  -0.226   4.926  0.5442  2.2329  0.0311
    1OL    C118 6135   0.972  -0.368   5.085  0.0796  0.2811 -0.6910
    1OL    H18R 6136   1.025  -0.439   5.020  1.1629  0.8411 -0.4305
    1OL    H18S 6137   0.869  -0.403   5.093  0.4614 -1.2833 -2.0056
    1OL    H18T 6138   1.013  -0.389   5.184  0.4119 -1.3459 -1.1412
    1PA    C116 6139   2.999   1.346   5.098 -0.5963  0.0471 -0.0818
    1PA    H16R 6140   3.008   1.281   5.185 -0.6487  0.8503  0.5318
    1PA    H16S 6141   2.912   1.308   5.043 -0.6754  2.7039 -1.9555
    1PA    H16T 6142   2.974   1.449   5.125 -1.3002 -0.3908  0.9874
    1PA    C115 6143   3.120   1.342   5.002 -0.2003  0.1737  0.1398
    1PA    H15R 6144   3.216   1.356   5.053  1.7160  1.1158 -3.3858
    1PA    H15S 6145   3.135   1.244   4.956 -2.1265 -1.0525  1.9671
    1PA    C114 6146   3.116   1.443   4.893  0.3348  0.3983 -0.2051
    1PA    H14R 6147   3.128   1.541   4.939  1.1040  0.5436 -0.6970
    1PA    H14S 6148   3.209   1.415   4.843  0.2004 -0.6100  0.0921
    1PA    C113 6149   2.995   1.437   4.799 -0.0361 -0.2268  0.1624
    1PA    H13R 6150   2.960   1.339   4.764 -2.1809  1.0610 -1.4984
    1PA    H13S 6151   2.913   1.473   4.861 -0.0141  0.1537 -0.0279
    1PA    C112 6152   3.012   1.530   4.680  0.1561 -0.8667 -0.2181
    1PA    H12R 6153   3.061   1.622   4.712 -2.4374  1.0347 -1.3723
    1PA    H12S 6154   3.067   1.479   4.601 -1.8173  0.0339 -2.2856
    1PA    C111 6155   2.878   1.567   4.619  0.3315 -0.6222 -0.2576
    1PA    H11R 6156   2.809   1.599   4.698 -1.1056  0.4592 -1.8729
    1PA    H11S 6157   2.888   1.660   4.563 -0.7523 -2.3452 -3.6012
    1PA    C110 6158   2.807   1.459   4.549  0.2122 -0.1004  1.2176
    1PA    H10R 6159   2.867   1.431   4.462 -1.0694 -2.8040  1.1220
    1PA    H10S 6160   2.798   1.364   4.601  0.1563 -0.6531  0.2296
    1PA     C19 6161   2.667   1.505   4.484 -0.1031  0.5034 -0.6034
    1PA     H9R 6162   2.607   1.545   4.566  0.8209  2.4155 -0.8014
    1PA     H9S 6163   2.686   1.594   4.422  2.7710  0.1999 -0.2975
    1PA     C18 6164   2.591   1.395   4.418 -0.2929 -0.2727  0.1142
    1PA     H8R 6165   2.652   1.337   4.349 -1.5628 -0.6596 -0.7215
    1PA     H8S 6166   2.583   1.308   4.485  3.7783  0.3201  1.6600
    1PA     C17 6167   2.453   1.452   4.365 -0.1277 -0.0554  0.6581
    1PA     H7R 6168   2.401   1.493   4.451  1.4310  1.3859  0.9712
    1PA     H7S 6169   2.482   1.541   4.308  2.1853 -1.2373 -0.1756
    1PA     C16 6170   2.364   1.350   4.282 -0.3437 -0.4487 -0.5658
    1PA     H6R 6171   2.359   1.256   4.336 -0.1916 -1.2968 -1.9844
    1PA     H6S 6172   2.263   1.393   4.280  0.2624  1.0733 -0.1251
    1PA     C15 6173   2.417   1.326   4.145 -0.1756 -0.7488  0.6065
    1PA     H5R 6174   2.425   1.422   4.094  1.9542 -0.9472  0.4873
    1PA     H5S 6175   2.519   1.290   4.159 -0.2318 -0.4203  2.0848
    1PA     C14 6176   2.319   1.229   4.076  0.0940 -0.6048  0.4885
    1PA     H4R 6177   2.313   1.136   4.133 -1.2724 -1.3838 -0.8539
    1PA     H4S 6178   2.219   1.270   4.064 -0.8842 -3.1704 -0.9575
    1PA     C13 6179   2.378   1.199   3.938 -0.1598  0.0521 -0.6822
    1PA     H3R 6180   2.396   1.300   3.901  1.6914 -0.0190 -0.0657
    1PA     H3S 6181   2.476   1.151   3.938 -0.9159 -1.5552 -2.0465
    1PA     C12 6182   2.287   1.115   3.843 -0.1428  0.3241  0.0170
    1PA     H2R 6183   2.305   1.007   3.855 -1.8352 -0.2472 -2.0356
    1PA     H2S 6184   2.182   1.140   3.858  0.1947  1.4195  0.6101
    1PC     C11 6185   2.301   1.152   3.698  0.3446  0.8973 -0.2423
    1PC     O12 6186   2.365   1.094   3.615  0.0155  0.2840 -0.6159
    1PC     O11 6187   2.210   1.249   3.668 -0.6648  0.2005  0.3402
    1PC      C1 6188   2.204   1.296   3.526 -0.0634 -0.5815  0.2084
    1PC      HR 6189   2.306   1.295   3.486 -0.7559 -1.9936 -1.6625
    1PC      HS 6190   2.134   1.239   3.465  2.2495 -1.6470 -1.5647
    1PC      C2 6191   2.167   1.444   3.523  0.3389  0.1821 -0.1080
    1PC      HX 6192   2.071   1.448   3.574  1.0004 -2.8264  1.6624
    1PC      C3 6193   2.152   1.499   3.381  0.4146  0.4971 -0.1073
    1PC      HA 6194   2.073   1.450   3.323  0.9846 -0.3181 -0.1974
    1PC      HB 6195   2.145   1.608   3.380  2.0244  0.6140 -0.0698
    1PC     O31 6196   2.275   1.467   3.305 -0.0479 -0.2481  0.1780
    1PC     P31 6197   2.365   1.577   3.231 -0.3128  0.1990 -0.2676
    1PC     O32 6198   2.461   1.640   3.340  0.8829 -0.4306  0.1998
    1PC     C31 6199   2.581   1.583   3.375 -0.4977  0.4972 -0.0085
    1PC     H1A 6200   2.580   1.557   3.481 -1.9306  0.8983  0.1073
    1PC     H1B 6201   2.608   1.495   3.316  1.0448  2.9274 -3.1790
    1PC     C32 6202   2.693   1.692   3.358  0.4742 -0.0575  0.1891
    1PC     H2A 6203   2.788   1.653   3.393  0.7684 -1.6524 -2.1463
    1PC     H2B 6204   2.712   1.714   3.253 -0.8144  1.5086  0.2464
    1PC     N31 6205   2.682   1.823   3.432  0.8750 -0.2610 -0.5096
    1PC     C33 6206   2.589   1.914   3.355 -0.2218 -0.3947 -0.0426
    1PC     H3A 6207   2.605   2.016   3.392 -0.5631 -0.4232  0.1847
    1PC     H3B 6208   2.600   1.900   3.248  0.4963  0.1708 -0.0558
    1PC     H3C 6209   2.488   1.892   3.390 -0.0530  0.7948  1.3070
    1PC     C34 6210   2.631   1.814   3.577 -0.4114 -0.0405  0.4812
    1PC     H4A 6211   2.693   1.741   3.629  1.9751  0.8601 -0.9146
    1PC     H4B 6212   2.637   1.911   3.625 -1.9943  0.2853  0.0800
    1PC     H4C 6213   2.526   1.786   3.565 -0.5856  0.8290 -0.1741
    1PC     C35 6214   2.818   1.887   3.421  0.0590 -0.3285  0.2435
    1PC     H5A 6215   2.867   1.853   3.329  0.8942  2.3512 -0.3748
    1PC     H5B 6216   2.866   1.843   3.509 -0.4319  0.9760  1.1891
    1PC     H5C 6217   2.811   1.995   3.427  0.2448 -0.2974 -0.0858
    1PC     O33 6218   2.444   1.504   3.130  0.1114  0.3107 -0.3201
    1PC     O34 6219   2.277   1.689   3.187 -0.6419  0.1896 -0.3736
    1PC     O21 6220   2.272   1.516   3.588 -0.6018 -0.3190 -0.1321
    1PC     C21 6221   2.244   1.580   3.700 -0.7468 -0.0689 -0.4363
    1PC     O22 6222   2.129   1.604   3.729  0.0965  0.8433  0.1638
    1OL     C12 6223   2.364   1.613   3.782  0.5974  0.4405 -0.7153
    1OL     H2R 6224   2.442   1.661   3.722 -0.4149  1.8104 -0.9694
    1OL     H2S 6225   2.399   1.519   3.827  1.0806  0.9108 -0.0814
    1OL     C13 6226   2.328   1.714   3.901 -0.0147  0.0169  0.0520
    1OL     H3R 6227   2.266   1.670   3.980  0.6293  1.0646  1.1708
    1OL     H3S 6228   2.274   1.797   3.854  1.7579  1.2408  0.0835
    1OL     C14 6229   2.448   1.773   3.969  0.1943 -0.5381 -0.5417
    1OL     H4R 6230   2.516   1.805   3.890  2.2458 -0.8646  1.0063
    1OL     H4S 6231   2.493   1.697   4.034  0.3125 -1.2898 -1.4798
    1OL     C15 6232   2.406   1.892   4.058  0.0996 -0.0447  0.4104
    1OL     H5R 6233   2.319   1.873   4.121 -0.4227  2.2810  0.4714
    1OL     H5S 6234   2.372   1.974   3.994 -0.0739  1.3876  2.2188
    1OL     C16 6235   2.531   1.941   4.133 -0.3432 -0.2401  0.1818
    1OL     H6R 6236   2.602   1.970   4.055 -0.4974 -1.8625 -0.6102
    1OL     H6S 6237   2.585   1.860   4.182  0.1058 -0.4631 -0.6601
    1OL     C17 6238   2.503   2.047   4.241  0.4426  0.4318  0.2428
    1OL     H7R 6239   2.463   2.135   4.190 -0.8422  1.3679  2.7093
    1OL     H7S 6240   2.605   2.069   4.274  1.2012 -1.3782 -0.7480
    1OL     C18 6241   2.400   1.996   4.347 -0.6315 -0.4601  0.3415
    1OL     H8R 6242   2.419   1.890   4.366  1.0643 -0.3767 -0.7059
    1OL     H8S 6243   2.297   2.006   4.313  0.1456 -0.9446 -2.3572
    1OL     C19 6244   2.411   2.086   4.467  0.1029 -0.5638  0.2992
    1OL     H9R 6245   2.429   2.188   4.432 -0.6122 -0.1155  1.1989
    1OL    C110 6246   2.401   2.048   4.593  0.9959 -0.6620 -0.3399
    1OL    H10R 6247   2.415   2.122   4.670 -1.6917 -2.3021  1.9147
    1OL    C111 6248   2.374   1.908   4.645  0.4520 -0.6083  1.2140
    1OL    H11R 6249   2.468   1.861   4.674  1.3001  0.1272 -0.2767
    1OL    H11S 6250   2.325   1.848   4.569  1.1389  2.1854 -1.6559
    1OL    C112 6251   2.282   1.911   4.762 -0.7351  0.1720  0.2038
    1OL    H12R 6252   2.205   1.985   4.739  0.8648  1.6586 -0.5892
    1OL    H12S 6253   2.341   1.950   4.845  1.0048 -1.5769 -0.1309
    1OL    C113 6254   2.224   1.777   4.800  0.1052 -0.3681 -0.4970
    1OL    H13R 6255   2.308   1.708   4.805  0.3549  0.0221  2.3108
    1OL    H13S 6256   2.144   1.757   4.729 -0.6226 -1.1616  0.5171
    1OL    C114 6257   2.168   1.791   4.941 -0.5018 -0.4275  0.6536
    1OL    H14R 6258   2.086   1.862   4.930 -0.4339 -0.6921 -2.5142
    1OL    H14S 6259   2.238   1.848   5.002 -0.1368 -0.0463 -0.1003
    1OL    C115 6260   2.106   1.660   5.000  1.0668 -0.6049  0.0661
    1OL    H15R 6261   2.191   1.600   5.035  0.2987 -1.0886  1.1526
    1OL    H15S 6262   2.061   1.594   4.925 -1.3739 -0.4233  1.2727
    1OL    C116 6263   2.015   1.672   5.122 -0.8874  0.6156 -0.4515
    1OL    H16R 6264   1.935   1.742   5.101  1.1367  3.3168  0.2777
    1OL    H16S 6265   2.082   1.715   5.197  0.4448 -2.0038  0.0163
    1OL    C117 6266   1.960   1.536   5.173 -0.0096  0.1640 -0.7591
    1OL    H17R 6267   1.896   1.551   5.260  2.5268  2.0931  0.9438
    1OL    H17S 6268   2.044   1.475   5.210 -1.8183 -0.4985  2.7455
    1OL    C118 6269   1.886   1.436   5.083  0.9987  0.0545 -0.1042
    1OL    H18R 6270   1.855   1.355   5.149  0.5560 -0.7215 -1.2489
    1OL    H18S 6271   1.940   1.398   4.996  0.7996 -1.1273  0.2640
    1OL    H18T 6272   1.787   1.473   5.057  1.0692  1.2753  1.2261
    1PA    C116 6273   3.278   2.693   5.074 -0.3123 -0.2163 -0.1175
    1PA    H16R 6274   3.263   2.651   5.174  0.3629 -2.4091 -0.8728
    1PA    H16S 6275   3.271   2.801   5.086  2.2450  0.0208 -0.3070
    1PA    H16T 6276   3.380   2.662   5.050  0.7892  1.3527  2.2694
    1PA    C115 6277   3.175   2.647   4.970 -0.2684  0.2173 -0.2436
    1PA    H15R 6278   3.178   2.541   4.945 -0.4395  0.2457 -0.3859
    1PA    H15S 6279   3.074   2.659   5.007 -0.8892  1.0499 -2.0799
    1PA    C114 6280   3.191   2.727   4.840 -0.0418  0.4239  0.1075
    1PA    H14R 6281   3.240   2.824   4.853  1.1225 -0.1328  0.0045
    1PA    H14S 6282   3.261   2.664   4.783 -0.6441 -2.2970  2.1655
    1PA    C113 6283   3.052   2.745   4.772 -0.2713 -0.1642  1.2177
    1PA    H13R 6284   2.989   2.658   4.793  0.5587 -1.2369 -0.5162
    1PA    H13S 6285   3.005   2.834   4.814  0.5800  0.3236  1.1581
    1PA    C112 6286   3.060   2.774   4.621  0.5675  0.7573 -0.1122
    1PA    H12R 6287   3.041   2.877   4.592 -1.0044  0.8225  1.0875
    1PA    H12S 6288   3.161   2.748   4.586  1.3360 -0.4522  2.6971
    1PA    C111 6289   2.961   2.692   4.543  0.6746  0.1494  0.0530
    1PA    H11R 6290   2.971   2.587   4.571 -0.5018  0.3909  1.5227
    1PA    H11S 6291   2.859   2.716   4.574  0.2980 -0.7116 -0.4796
    1PA    C110 6292   2.980   2.703   4.393 -0.0117  0.1215  0.5466
    1PA    H10R 6293   3.080   2.669   4.367  0.7138  1.8982  0.8963
    1PA    H10S 6294   2.908   2.642   4.337  0.8925 -0.2554 -0.2538
    1PA     C19 6295   2.977   2.849   4.339  0.6730 -0.1592  0.5917
    1PA     H9R 6296   2.889   2.908   4.364  0.8866  1.5822 -2.2775
    1PA     H9S 6297   3.066   2.903   4.372  1.8969 -1.6156 -0.1676
    1PA     C18 6298   2.968   2.853   4.187 -0.3246  0.4184  0.0901
    1PA     H8R 6299   2.898   2.779   4.146 -0.6554  0.7918 -0.0272
    1PA     H8S 6300   2.936   2.954   4.158 -0.4389  0.5594  0.6951
    1PA     C17 6301   3.099   2.813   4.116 -0.7612 -0.6616 -0.4047
    1PA     H7R 6302   3.174   2.875   4.166  0.1272 -1.5796 -0.5711
    1PA     H7S 6303   3.123   2.711   4.147  0.0344 -0.5585 -0.6640
    1PA     C16 6304   3.109   2.829   3.960  0.6905  0.0891 -0.1110
    1PA     H6R 6305   3.099   2.932   3.927  0.8161 -0.4546 -1.9940
    1PA     H6S 6306   3.214   2.811   3.935  1.3185  0.6595  1.9220
    1PA     C15 6307   3.017   2.730   3.886  0.9077  0.4700 -0.2553
    1PA     H5R 6308   3.046   2.625   3.896 -1.9411 -0.4355 -0.6738
    1PA     H5S 6309   2.917   2.726   3.930  0.9608  0.4598 -0.1331
    1PA     C14 6310   2.995   2.754   3.737 -0.5318 -0.2175 -0.7329
    1PA     H4R 6311   2.931   2.674   3.701 -0.8181  0.3668 -1.5528
    1PA     H4S 6312   2.948   2.849   3.710  1.2535  0.5818 -1.1512
    1PA     C13 6313   3.129   2.733   3.657  0.4460 -0.5279 -0.2800
    1PA     H3R 6314   3.190   2.823   3.649 -0.2088 -0.1033 -0.4884
    1PA     H3S 6315   3.199   2.662   3.703  1.9644  2.0164  1.6176
    1PA     C12 6316   3.108   2.684   3.513  0.3913 -0.4001 -1.2910
    1PA     H2R 6317   3.211   2.669   3.480  0.8595 -0.7886  0.2792
    1PA     H2S 6318   3.063   2.585   3.519  0.3499 -0.4160 -1.7947
    1PC     C11 6319   3.024   2.790   3.435 -0.7442 -0.6228  0.1883
    1PC     O12 6320   2.905   2.781   3.407  0.4276  0.1038  0.2055
    1PC     O11 6321   3.092   2.899   3.401  0.3636 -0.0176  0.1039
    1PC      C1 6322   3.021   3.001   3.321  0.1254  0.3085 -0.3093
    1PC      HR 6323   2.998   2.963   3.221  0.8475  1.4080 -0.9187
    1PC      HS 6324   2.932   3.035   3.375 -1.6399 -2.2249 -1.4321
    1PC      C2 6325   3.109   3.121   3.303 -0.4672 -0.1170 -0.0126
    1PC      HX 6326   3.057   3.196   3.243 -0.6222 -0.9513 -0.9656
    1PC      C3 6327   3.249   3.089   3.236  0.2902  0.3232 -0.2434
    1PC      HA 6328   3.294   3.177   3.191  2.3287 -0.1165  0.8388
    1PC      HB 6329   3.322   3.050   3.307 -1.1472 -0.8434  0.6725
    1PC     O31 6330   3.242   2.993   3.124  1.1795 -0.0642 -0.3136
    1PC     P31 6331   3.173   3.050   2.984  0.0537 -0.1612 -0.1795
    1PC     O32 6332   3.239   2.942   2.880  0.1567 -0.2785  0.0320
    1PC     C31 6333   3.360   2.969   2.805  0.5484 -0.3732 -0.0558
    1PC     H1A 6334   3.384   2.893   2.730  0.9795  1.3118 -1.7215
    1PC     H1B 6335   3.361   3.066   2.755 -0.0929 -0.0911  0.4674
    1PC     C32 6336   3.483   2.963   2.894  0.1929 -0.0181  0.2274
    1PC     H2A 6337   3.458   3.020   2.983 -0.4883 -3.2891  2.3305
    1PC     H2B 6338   3.496   2.859   2.925 -0.3868  0.4646  2.3050
    1PC     N31 6339   3.616   3.008   2.833 -0.5106  0.3327 -0.4386
    1PC     C33 6340   3.720   2.986   2.943 -0.3734  0.2504 -0.2102
    1PC     H3A 6341   3.712   3.061   3.022  0.6820  1.2548 -1.0167
    1PC     H3B 6342   3.703   2.888   2.986  0.6148  0.7259  1.3507
    1PC     H3C 6343   3.821   3.003   2.906 -0.1235 -0.3665  0.1795
    1PC     C34 6344   3.664   2.931   2.718  0.1723  0.1488 -1.0755
    1PC     H4A 6345   3.592   2.926   2.636 -1.4021 -0.9213  0.3023
    1PC     H4B 6346   3.761   2.974   2.696 -0.2398  1.5880 -0.2103
    1PC     H4C 6347   3.682   2.827   2.748  2.1805  0.2493 -1.7978
    1PC     C35 6348   3.612   3.156   2.813 -0.1996  0.3231 -0.1073
    1PC     H5A 6349   3.550   3.210   2.885 -0.5974 -0.3732  0.0804
    1PC     H5B 6350   3.565   3.179   2.717 -2.7679 -0.5796  0.8476
    1PC     H5C 6351   3.714   3.192   2.803  0.2842 -0.9905  0.0081
    1PC     O33 6352   3.032   3.023   3.005 -0.0158  0.2518  0.4741
    1PC     O34 6353   3.223   3.184   2.953  0.4297 -0.1652 -0.3098
    1PC     O21 6354   3.149   3.185   3.425  0.2911  0.8967  0.7634
    1PC     C21 6355   3.065   3.268   3.479 -0.1451 -0.5361  0.1736
    1PC     O22 6356   2.954   3.282   3.435  0.9143  0.0519  0.0416
    1OL     C12 6357   3.118   3.328   3.608 -0.2446 -0.6946 -0.2025
    1OL     H2R 6358   3.115   3.437   3.618  3.7485 -0.5824  2.0627
    1OL     H2S 6359   3.225   3.309   3.619 -0.3010 -0.5892  0.5996
    1OL     C13 6360   3.051   3.265   3.725 -0.4488  0.3043  0.3352
    1OL     H3R 6361   3.081   3.161   3.715  1.1094  0.7204  0.4619
    1OL     H3S 6362   2.941   3.262   3.723 -0.5154  0.6873  1.8498
    1OL     C14 6363   3.109   3.317   3.859 -0.4954  0.1833 -0.0490
    1OL     H4R 6364   3.110   3.424   3.882 -3.4967 -0.2682  2.9950
    1OL     H4S 6365   3.213   3.285   3.869 -0.0811  1.7190  0.9031
    1OL     C15 6366   3.045   3.241   3.978 -0.1094  0.4583 -1.1244
    1OL     H5R 6367   3.075   3.137   3.965 -1.6128 -0.0883 -0.4553
    1OL     H5S 6368   2.936   3.237   3.973 -0.1625 -0.0546  0.1328
    1OL     C16 6369   3.081   3.306   4.115 -0.0977 -0.2693  0.1078
    1OL     H6R 6370   3.078   3.415   4.102  2.1048  0.0227  1.5793
    1OL     H6S 6371   3.183   3.275   4.137 -0.0201  0.2716  0.5274
    1OL     C17 6372   2.976   3.268   4.228  0.6561 -0.1343 -0.4765
    1OL     H7R 6373   2.941   3.166   4.215 -1.3739  0.3765  0.6045
    1OL     H7S 6374   2.885   3.325   4.208 -0.7698 -2.4322 -0.9036
    1OL     C18 6375   3.029   3.290   4.369  0.4233 -0.4633 -0.1862
    1OL     H8R 6376   2.947   3.306   4.440  2.0979  1.3900  1.4717
    1OL     H8S 6377   3.073   3.389   4.381  0.2954 -0.5814  1.5007
    1OL     C19 6378   3.131   3.186   4.404 -0.3126  0.6096  0.4359
    1OL     H9R 6379   3.180   3.147   4.315  0.0673  1.9553  0.0423
    1OL    C110 6380   3.155   3.131   4.527 -0.2479 -0.2331  0.0265
    1OL    H10R 6381   3.239   3.061   4.532 -0.0761 -0.2303 -1.8857
    1OL    C111 6382   3.081   3.177   4.645  0.6000 -0.2043  0.3721
    1OL    H11R 6383   3.013   3.092   4.661  1.1611 -0.4633  1.4674
    1OL    H11S 6384   3.023   3.269   4.639 -0.9862 -1.1107  1.0725
    1OL    C112 6385   3.179   3.183   4.770 -0.1155 -0.1683 -0.3157
    1OL    H12R 6386   3.247   3.265   4.744 -3.2713  2.6819 -0.3600
    1OL    H12S 6387   3.230   3.087   4.772 -0.8535 -0.6847 -2.7218
    1OL    C113 6388   3.107   3.224   4.899  0.1385 -0.0720  0.0376
    1OL    H13R 6389   3.008   3.180   4.910  0.8581 -1.2346  2.3882
    1OL    H13S 6390   3.109   3.333   4.904  0.5537 -0.1248  1.2316
    1OL    C114 6391   3.181   3.183   5.021 -0.5890  0.1771 -0.4950
    1OL    H14R 6392   3.281   3.228   5.019  0.0012 -0.9214  1.3389
    1OL    H14S 6393   3.209   3.078   5.024  0.0588  0.3580  0.7858
    1OL    C115 6394   3.111   3.208   5.156 -0.9470 -0.5251 -0.4917
    1OL    H15R 6395   3.067   3.306   5.175 -2.2429 -1.6212  2.8658
    1OL    H15S 6396   3.192   3.199   5.229 -1.1455  1.0562 -0.0515
    1OL    C116 6397   2.998   3.101   5.199 -0.2584  0.0958  0.2226
    1OL    H16R 6398   2.926   3.106   5.118  1.3385 -0.4855 -1.3026
    1OL    H16S 6399   2.957   3.139   5.293  1.2352 -1.8507  1.7338
    1OL    C117 6400   3.058   2.961   5.222  0.4828  0.4594  0.2686
    1OL    H17R 6401   3.146   2.966   5.286  0.4649  0.2724  0.3091
    1OL    H17S 6402   3.100   2.919   5.130  0.5246  2.8484 -0.8701
    1OL    C118 6403   2.968   2.858   5.290 -0.1736  0.3336  0.9834
    1OL    H18R 6404   2.950   2.877   5.396  0.1322 -1.4762  1.4038
    1OL    H18S 6405   3.017   2.760   5.281 -0.6428 -0.2836  4.0004
    1OL    H18T 6406   2.870   2.853   5.242  0.0313 -0.4459  0.6306
    1PA    C116 6407   3.595   1.480   5.045 -0.4663 -0.8039 -0.1407
    1PA    H16R 6408   3.606   1.573   4.988 -0.0847 -2.0109 -2.1590
    1PA    H16S 6409   3.552   1.497   5.143 -0.4326 -1.3256 -0.0368
    1PA    H16T 6410   3.528   1.412   4.993 -1.6813 -0.2780  0.7091
    1PA    C115 6411   3.741   1.428   5.057  0.8324  0.0430 -0.1146
    1PA    H15R 6412   3.799   1.461   5.143  0.4183 -2.3138  1.1685
    1PA    H15S 6413   3.735   1.322   5.083  0.1292 -0.5029 -2.3076
    1PA    C114 6414   3.819   1.448   4.928  0.2640 -0.3099  0.0088
    1PA    H14R 6415   3.834   1.555   4.912  0.1909 -0.0592  1.4567
    1PA    H14S 6416   3.919   1.406   4.939  0.2304 -0.3270  0.2664
    1PA    C113 6417   3.749   1.381   4.806  0.2252  0.2301  0.1482
    1PA    H13R 6418   3.751   1.277   4.839  1.0466  0.5186  1.0809
    1PA    H13S 6419   3.645   1.411   4.790  0.0869 -1.3819 -2.6236
    1PA    C112 6420   3.810   1.412   4.670 -0.9550 -0.3455 -0.4464
    1PA    H12R 6421   3.800   1.517   4.642 -1.1859 -0.4175 -0.6372
    1PA    H12S 6422   3.917   1.392   4.672 -0.1647  2.8713 -2.5923
    1PA    C111 6423   3.764   1.317   4.566 -0.0409 -0.1234  0.5308
    1PA    H11R 6424   3.826   1.335   4.478 -0.4016  3.1883  0.8371
    1PA    H11S 6425   3.774   1.215   4.604 -0.6278  0.0914  1.2966
    1PA    C110 6426   3.619   1.342   4.513  0.6199 -0.4501 -0.7166
    1PA    H10R 6427   3.601   1.259   4.444  0.1208  1.0717 -2.4821
    1PA    H10S 6428   3.555   1.322   4.599  1.3830  1.5189  0.3701
    1PA     C19 6429   3.578   1.487   4.466 -0.0215 -0.1633  0.8784
    1PA     H9R 6430   3.591   1.552   4.553 -0.0645  0.0602  0.7183
    1PA     H9S 6431   3.653   1.533   4.402  2.2119 -1.7440  2.2505
    1PA     C18 6432   3.431   1.510   4.425 -0.3790  0.0933 -0.5683
    1PA     H8R 6433   3.365   1.466   4.500 -1.0534  0.5218 -0.8925
    1PA     H8S 6434   3.407   1.617   4.424  0.0776  0.2065 -2.0243
    1PA     C17 6435   3.391   1.447   4.290 -0.5292 -0.2404 -0.2858
    1PA     H7R 6436   3.457   1.492   4.215 -0.5769 -3.0626 -2.1611
    1PA     H7S 6437   3.412   1.340   4.298  1.7532  0.2355  0.9712
    1PA     C16 6438   3.247   1.476   4.240  0.1887 -0.2850  0.6734
    1PA     H6R 6439   3.180   1.428   4.312  0.0489  0.7133  1.2371
    1PA     H6S 6440   3.225   1.583   4.247 -1.8411 -0.5165 -1.2817
    1PA     C15 6441   3.226   1.424   4.104  0.5313 -0.0245  0.4342
    1PA     H5R 6442   3.122   1.435   4.072  0.5293 -1.1865 -0.0129
    1PA     H5S 6443   3.280   1.484   4.031 -0.2823  0.2212  0.0302
    1PA     C14 6444   3.270   1.276   4.079 -0.1129 -0.5548 -1.0406
    1PA     H4R 6445   3.378   1.270   4.091 -0.1115  0.4086 -0.4408
    1PA     H4S 6446   3.227   1.210   4.154 -0.9621  0.2501 -0.7923
    1PA     C13 6447   3.242   1.234   3.932  0.2518  0.3460  0.0355
    1PA     H3R 6448   3.140   1.231   3.892 -0.3408 -0.3558  1.4830
    1PA     H3S 6449   3.303   1.297   3.868 -1.6244  2.2934  0.0282
    1PA     C12 6450   3.290   1.092   3.915 -0.3663 -0.1472 -0.0379
    1PA     H2R 6451   3.398   1.077   3.917 -0.3173  0.2173  0.2198
    1PA     H2S 6452   3.267   1.037   4.006  0.1821 -0.0175  0.1842
    1PC     C11 6453   3.223   1.023   3.800 -0.5394  0.4765  0.3562
    1PC     O12 6454   3.105   0.981   3.796 -0.1810 -0.1290 -0.2149
    1PC     O11 6455   3.314   1.013   3.698  0.3262 -0.5161 -0.0926
    1PC      C1 6456   3.285   0.936   3.573 -0.0105 -0.3282 -0.0185
    1PC      HR 6457   3.378   0.884   3.547  0.8888  1.4343 -0.5125
    1PC      HS 6458   3.205   0.867   3.600 -1.9237  2.0221  0.7318
    1PC      C2 6459   3.251   1.018   3.450  0.0883  0.0184 -0.3032
    1PC      HX 6460   3.236   0.950   3.366 -0.4970 -0.0007 -0.1856
    1PC      C3 6461   3.361   1.124   3.405  0.3464  0.1130 -0.4052
    1PC      HA 6462   3.362   1.200   3.483  0.7938  0.4265 -0.7085
    1PC      HB 6463   3.463   1.085   3.404  0.1027 -0.5965  0.8735
    1PC     O31 6464   3.335   1.198   3.281  0.5789  0.2640 -0.2670
    1PC     P31 6465   3.351   1.153   3.134  0.2334  0.5718  0.2256
    1PC     O32 6466   3.509   1.119   3.133  0.0873 -0.1968 -0.2009
    1PC     C31 6467   3.585   1.063   3.015 -0.1438 -0.4887 -0.0281
    1PC     H1A 6468   3.567   1.122   2.925 -2.1024 -1.6041 -0.4365
    1PC     H1B 6469   3.690   1.053   3.041  0.4623  2.0032 -1.2081
    1PC     C32 6470   3.527   0.919   3.002  0.4733  0.3129  0.2235
    1PC     H2A 6471   3.517   0.871   3.099 -2.8940 -0.7416 -0.5069
    1PC     H2B 6472   3.427   0.930   2.960  0.0664 -1.8838  0.4663
    1PC     N31 6473   3.601   0.831   2.906 -0.5960  0.1048  0.7329
    1PC     C33 6474   3.607   0.891   2.773 -0.8336  0.1035  1.1407
    1PC     H3A 6475   3.510   0.932   2.744  0.7807  2.8655 -0.8656
    1PC     H3B 6476   3.680   0.971   2.776 -1.5840  0.9113 -0.5675
    1PC     H3C 6477   3.647   0.819   2.703 -1.0863 -0.7387  1.8424
    1PC     C34 6478   3.738   0.818   2.954 -0.3523  0.7031  0.2128
    1PC     H4A 6479   3.783   0.742   2.890 -2.4250  0.5896 -1.2011
    1PC     H4B 6480   3.794   0.911   2.943 -0.4858  0.9479  1.4519
    1PC     H4C 6481   3.742   0.783   3.058  1.5840  0.0962 -0.0245
    1PC     C35 6482   3.536   0.706   2.893  1.0366  0.9964  0.4647
    1PC     H5A 6483   3.610   0.630   2.865 -1.0937 -0.8150 -0.5439
    1PC     H5B 6484   3.457   0.702   2.817  0.1185 -0.5001  1.4562
    1PC     H5C 6485   3.506   0.683   2.995  1.0890 -2.2858 -0.1362
    1PC     O33 6486   3.270   1.034   3.100 -0.0782 -0.1481  0.1651
    1PC     O34 6487   3.337   1.270   3.047 -0.6594 -0.0960 -0.8058
    1PC     O21 6488   3.134   1.107   3.478 -0.4244 -0.1832 -0.1751
    1PC     C21 6489   3.009   1.057   3.466 -1.3652 -1.2677  0.9344
    1PC     O22 6490   2.983   0.943   3.437  0.1694  0.6444 -0.2531
    1OL     C12 6491   2.912   1.177   3.491 -0.2818 -0.5986 -0.5505
    1OL     H2R 6492   2.942   1.257   3.423  1.0832 -1.3613 -0.8833
    1OL     H2S 6493   2.924   1.221   3.590  0.4601 -0.0052 -0.8936
    1OL     C13 6494   2.757   1.145   3.479 -0.3550 -0.1396  0.3657
    1OL     H3R 6495   2.739   1.051   3.531  0.9465 -1.2010 -0.9844
    1OL     H3S 6496   2.742   1.128   3.372  0.6419  0.4366  0.1216
    1OL     C14 6497   2.662   1.258   3.516  0.7644  0.0345  0.5146
    1OL     H4R 6498   2.570   1.238   3.461  1.1606 -2.2217  0.5592
    1OL     H4S 6499   2.703   1.356   3.493  1.2533 -0.2345  0.2156
    1OL     C15 6500   2.637   1.281   3.666  0.5501 -0.6180  0.0959
    1OL     H5R 6501   2.590   1.193   3.710  0.4015 -0.7768 -0.3796
    1OL     H5S 6502   2.558   1.356   3.675  1.2703  0.1793 -0.0237
    1OL     C16 6503   2.752   1.335   3.754  0.1390 -0.0831 -0.3130
    1OL     H6R 6504   2.809   1.412   3.701  1.2894 -0.7254 -0.0553
    1OL     H6S 6505   2.822   1.252   3.765 -1.1102 -1.1328 -0.0260
    1OL     C17 6506   2.700   1.389   3.889 -0.2842 -0.0531  0.5327
    1OL     H7R 6507   2.624   1.327   3.938 -0.9153  1.3395  1.3955
    1OL     H7S 6508   2.637   1.475   3.863  0.4824 -0.0175 -1.3670
    1OL     C18 6509   2.802   1.432   3.990  0.2023  0.7696 -0.6244
    1OL     H8R 6510   2.872   1.492   3.931  0.5286 -0.3199 -1.3799
    1OL     H8S 6511   2.861   1.347   4.025  1.3979  2.4132  1.6205
    1OL     C19 6512   2.730   1.505   4.099 -0.4077 -0.5098 -0.8645
    1OL     H9R 6513   2.636   1.460   4.129 -1.4533  0.8189 -1.9935
    1OL    C110 6514   2.765   1.616   4.165  0.3955  0.1136 -0.2817
    1OL    H10R 6515   2.691   1.659   4.232 -0.5741  1.1289 -1.9322
    1OL    C111 6516   2.898   1.692   4.156 -0.3238 -0.0921 -0.1670
    1OL    H11R 6517   2.911   1.712   4.050  1.7237 -0.0108  0.0551
    1OL    H11S 6518   2.982   1.628   4.186 -0.5698  0.6174  2.2780
    1OL    C112 6519   2.910   1.828   4.240 -0.5517  0.6023  0.1214
    1OL    H12R 6520   2.924   1.803   4.346 -2.4953  0.6696  0.4214
    1OL    H12S 6521   2.817   1.883   4.225 -0.7677  0.2267  0.0527
    1OL    C113 6522   3.022   1.931   4.191  0.6997  0.9565  0.0953
    1OL    H13R 6523   3.009   2.007   4.268 -0.7028  0.8490 -0.0163
    1OL    H13S 6524   2.992   1.974   4.095  1.6945 -0.1226 -0.7345
    1OL    C114 6525   3.168   1.875   4.193 -0.1204  0.4597  0.5147
    1OL    H14R 6526   3.183   1.799   4.116  0.7351  1.2998 -0.1874
    1OL    H14S 6527   3.180   1.824   4.289  2.6028 -3.3526 -1.5675
    1OL    C115 6528   3.281   1.983   4.181  0.0652 -0.1457 -0.1054
    1OL    H15R 6529   3.369   1.925   4.209  1.3960  2.5695  1.8455
    1OL    H15S 6530   3.280   2.065   4.253 -2.7740 -1.3793  1.4036
    1OL    C116 6531   3.294   2.046   4.037  0.0870 -0.3985  0.3366
    1OL    H16R 6532   3.380   2.114   4.038 -1.0106  1.1693 -2.2417
    1OL    H16S 6533   3.202   2.100   4.015  0.6067 -0.0244 -0.9825
    1OL    C117 6534   3.328   1.940   3.933 -0.3366  0.1245  0.1443
    1OL    H17R 6535   3.238   1.879   3.919  0.0378 -0.0583 -1.8217
    1OL    H17S 6536   3.400   1.864   3.963  0.0989 -0.4067 -2.0732
    1OL    C118 6537   3.370   1.996   3.797 -0.1432 -0.2961  0.4039
    1OL    H18R 6538   3.455   2.062   3.815  0.2413  0.2987 -2.9968
    1OL    H18S 6539   3.292   2.061   3.756  0.3658  1.3315  1.8980
    1OL    H18T 6540   3.385   1.911   3.730  1.5396  1.6615 -1.8564
    1PA    C116 6541   2.552   1.526   5.129  0.0273 -0.1098 -0.4211
    1PA    H16R 6542   2.527   1.503   5.233  0.1216 -3.6915 -1.0670
    1PA    H16S 6543   2.618   1.455   5.079 -0.1510 -0.3987 -0.2549
    1PA    H16T 6544   2.454   1.521   5.080 -0.4005 -0.4814  0.4279
    1PA    C115 6545   2.606   1.668   5.114  0.1260  0.0209 -0.1379
    1PA    H15R 6546   2.555   1.738   5.181  0.6304  1.9076 -1.6164
    1PA    H15S 6547   2.709   1.689   5.141  0.8668 -3.0842 -0.2545
    1PA    C114 6548   2.585   1.701   4.967  0.0736 -0.5998  0.6735
    1PA    H14R 6549   2.634   1.628   4.903 -1.9824 -0.7679 -0.7960
    1PA    H14S 6550   2.478   1.703   4.947 -0.0272  0.7730  1.2378
    1PA    C113 6551   2.637   1.839   4.933  0.5730 -0.5780  0.4695
    1PA    H13R 6552   2.576   1.869   4.848  2.1745 -0.6774 -0.7521
    1PA    H13S 6553   2.614   1.907   5.015 -0.8752 -2.1263  1.4126
    1PA    C112 6554   2.790   1.827   4.894  0.0501  0.1313 -0.6288
    1PA    H12R 6555   2.851   1.810   4.983 -0.3049 -2.7216 -0.8265
    1PA    H12S 6556   2.799   1.753   4.814 -1.8081  2.0885 -2.8147
    1PA    C111 6557   2.852   1.954   4.835  0.7158  0.0029  0.3623
    1PA    H11R 6558   2.842   2.042   4.899 -0.3041  0.0406  0.1670
    1PA    H11S 6559   2.960   1.949   4.816  0.2630  0.3468 -2.8384
    1PA    C110 6560   2.773   1.991   4.700 -0.3366  0.3961  0.7669
    1PA    H10R 6561   2.759   1.906   4.634 -1.4324  0.7735  0.4854
    1PA    H10S 6562   2.679   2.036   4.735 -0.0845  0.9359  0.7591
    1PA     C19 6563   2.849   2.097   4.624  0.1334 -0.2129  0.0184
    1PA     H9R 6564   2.840   2.195   4.672 -0.0719  1.4382 -3.1684
    1PA     H9S 6565   2.958   2.084   4.624  0.3342  1.1807 -1.4211
    1PA     C18 6566   2.805   2.112   4.474  0.0788 -0.3902 -0.1939
    1PA     H8R 6567   2.817   2.012   4.434  2.3150 -0.6526  0.9556
    1PA     H8S 6568   2.703   2.151   4.469  0.8842  1.8224 -0.7136
    1PA     C17 6569   2.896   2.213   4.403  0.0282  0.2913 -0.3411
    1PA     H7R 6570   2.901   2.301   4.467 -1.4729  0.9373 -1.0269
    1PA     H7S 6571   2.995   2.169   4.391 -1.1585 -2.8077  0.2640
    1PA     C16 6572   2.858   2.247   4.258 -0.0531 -0.4637 -0.2407
    1PA     H6R 6573   2.863   2.159   4.193 -2.4649 -0.3056 -0.7047
    1PA     H6S 6574   2.755   2.278   4.240  0.6625  1.5641 -1.0856
    1PA     C15 6575   2.953   2.368   4.208 -0.0271 -0.5419 -0.4970
    1PA     H5R 6576   2.970   2.442   4.286 -1.2340 -1.6216  0.8346
    1PA     H5S 6577   3.053   2.324   4.195  0.5398  0.3356  0.6599
    1PA     C14 6578   2.903   2.446   4.079  0.1199  0.3160 -0.0306
    1PA     H4R 6579   2.821   2.514   4.100  0.4378  1.0493 -1.0626
    1PA     H4S 6580   2.986   2.512   4.052 -1.3952  1.6557 -1.6641
    1PA     C13 6581   2.860   2.349   3.967  0.1352  0.1394 -0.5290
    1PA     H3R 6582   2.768   2.305   4.006  0.1676  1.3841  1.0684
    1PA     H3S 6583   2.833   2.408   3.879  0.4915  1.3896  0.1690
    1PA     C12 6584   2.971   2.250   3.929 -0.7097  0.3819 -0.1799
    1PA     H2R 6585   3.062   2.308   3.912 -0.2893  0.0696  0.9417
    1PA     H2S 6586   2.996   2.176   4.004  0.2815 -0.0245 -0.8840
    1PC     C11 6587   2.943   2.173   3.802 -0.2555  0.1666 -0.3783
    1PC     O12 6588   2.835   2.132   3.768 -0.4117 -0.2308 -0.1399
    1PC     O11 6589   3.057   2.142   3.743  0.3452  0.3491 -0.0584
    1PC      C1 6590   3.047   2.080   3.611 -0.3926  0.6140 -0.0781
    1PC      HR 6591   3.110   1.991   3.605 -1.9787 -0.7309  1.7627
    1PC      HS 6592   2.947   2.044   3.590  0.9598 -2.2157 -2.2264
    1PC      C2 6593   3.081   2.189   3.506  0.9027 -0.2345  0.0552
    1PC      HX 6594   3.055   2.154   3.406 -2.6459  1.5609  0.1739
    1PC      C3 6595   3.223   2.229   3.499 -0.7572  0.4593 -0.8276
    1PC      HA 6596   3.252   2.255   3.601 -0.7719  0.6517 -0.8717
    1PC      HB 6597   3.285   2.142   3.476 -1.5654 -0.4236  0.1733
    1PC     O31 6598   3.253   2.341   3.405 -0.4625  0.0048  0.4144
    1PC     P31 6599   3.282   2.326   3.247 -0.2186 -0.1015 -0.1055
    1PC     O32 6600   3.437   2.324   3.245 -0.0106  0.3248  0.4062
    1PC     C31 6601   3.519   2.211   3.281 -0.8718 -0.8866 -0.0813
    1PC     H1A 6602   3.602   2.253   3.338 -1.3088 -0.0198 -0.0646
    1PC     H1B 6603   3.462   2.135   3.336 -1.0493 -0.2843  0.5785
    1PC     C32 6604   3.574   2.141   3.155  0.1734 -0.0013  0.2710
    1PC     H2A 6605   3.618   2.044   3.181 -2.1166 -1.4849 -0.9389
    1PC     H2B 6606   3.484   2.116   3.099 -0.1882  1.7146  0.0313
    1PC     N31 6607   3.675   2.213   3.066 -0.3979 -0.1437 -0.5382
    1PC     C33 6608   3.632   2.343   3.021 -0.6968 -0.0959 -0.0972
    1PC     H3A 6609   3.706   2.371   2.945 -1.5758 -0.8134 -1.2602
    1PC     H3B 6610   3.534   2.342   2.971 -1.4631  1.0353  1.3046
    1PC     H3C 6611   3.627   2.408   3.108  2.9929 -1.7349  1.5480
    1PC     C34 6612   3.807   2.231   3.135  0.1324  0.1126  0.5716
    1PC     H4A 6613   3.868   2.300   3.076 -1.4812  0.4041 -0.8518
    1PC     H4B 6614   3.781   2.271   3.234 -2.3804  1.3693 -0.4948
    1PC     H4C 6615   3.848   2.132   3.154  0.8208 -0.1612 -1.9710
    1PC     C35 6616   3.698   2.133   2.946  0.1328  0.0551 -0.1964
    1PC     H5A 6617   3.612   2.067   2.936 -0.0971  0.1223  1.1495
    1PC     H5B 6618   3.788   2.073   2.959 -1.4814 -2.0312  2.0836
    1PC     H5C 6619   3.698   2.195   2.856 -1.4625 -2.2172 -1.8516
    1PC     O33 6620   3.220   2.204   3.195  0.2333 -0.5817  0.1955
    1PC     O34 6621   3.244   2.449   3.170 -0.1065 -0.0935 -0.4980
    1PC     O21 6622   3.000   2.308   3.521 -0.1368 -0.4797 -0.4358
    1PC     C21 6623   2.881   2.315   3.471  0.2785 -0.5579  1.1371
    1PC     O22 6624   2.832   2.221   3.409  0.3149  0.0081 -0.1290
    1OL     C12 6625   2.807   2.444   3.500  0.0494  0.7844  0.5827
    1OL     H2R 6626   2.821   2.515   3.418 -1.4729 -1.3559 -1.6569
    1OL     H2S 6627   2.847   2.483   3.594  0.4763  0.7678  0.4101
    1OL     C13 6628   2.657   2.424   3.533 -0.2712  0.6730 -0.3202
    1OL     H3R 6629   2.597   2.380   3.453 -0.7665  1.3823 -0.3487
    1OL     H3S 6630   2.611   2.522   3.548 -2.4859 -0.4974  1.2176
    1OL     C14 6631   2.627   2.345   3.657 -0.4223 -0.0243  0.1193
    1OL     H4R 6632   2.682   2.401   3.733 -0.3628  1.7681 -1.1910
    1OL     H4S 6633   2.665   2.242   3.654 -1.0687 -0.2386 -0.9707
    1OL     C15 6634   2.473   2.342   3.684 -0.0854 -0.0894  0.4487
    1OL     H5R 6635   2.443   2.269   3.609 -0.1484 -1.1071  1.4311
    1OL     H5S 6636   2.426   2.439   3.665 -2.0793 -1.3195 -1.3347
    1OL     C16 6637   2.432   2.292   3.817  0.3229  0.2698 -0.4285
    1OL     H6R 6638   2.506   2.331   3.887 -0.5170 -0.4200  0.8834
    1OL     H6S 6639   2.444   2.184   3.816  0.2529  0.2645 -0.8639
    1OL     C17 6640   2.290   2.342   3.858 -0.1683  0.9427  0.2786
    1OL     H7R 6641   2.224   2.292   3.787  0.3517 -0.1947  0.5760
    1OL     H7S 6642   2.277   2.451   3.855  1.8182  1.2687  1.3733
    1OL     C18 6643   2.246   2.281   3.990 -0.3594  0.6898  0.6441
    1OL     H8R 6644   2.314   2.328   4.061 -0.2149  0.6282  0.5469
    1OL     H8S 6645   2.263   2.173   3.984 -2.0509  0.3856  0.8826
    1OL     C19 6646   2.099   2.296   4.016 -0.0377  0.4448  0.5722
    1OL     H9R 6647   2.031   2.298   3.931  0.7877  1.7211 -0.0887
    1OL    C110 6648   2.044   2.322   4.131 -0.2810 -0.3489  0.5464
    1OL    H10R 6649   1.938   2.347   4.129 -0.4696 -1.1407  0.3218
    1OL    C111 6650   2.111   2.332   4.262  0.4718  0.4247  0.2343
    1OL    H11R 6651   2.093   2.435   4.293 -0.9613  0.2820 -0.0805
    1OL    H11S 6652   2.219   2.316   4.252  0.3216 -0.1289 -0.5228
    1OL    C112 6653   2.055   2.230   4.362 -0.0201  0.0750 -0.7401
    1OL    H12R 6654   2.089   2.134   4.324 -0.7357 -0.1079 -0.9368
    1OL    H12S 6655   1.946   2.231   4.360 -0.0776 -0.3418  0.7738
    1OL    C113 6656   2.098   2.260   4.511  0.2355  0.1481  0.0115
    1OL    H13R 6657   2.203   2.292   4.512  0.1327  0.5062  1.6397
    1OL    H13S 6658   2.096   2.177   4.581 -0.6244 -1.0524 -1.3928
    1OL    C114 6659   2.010   2.378   4.558  0.0824  0.1395 -0.4178
    1OL    H14R 6660   1.904   2.353   4.544  0.2645  0.3922 -2.5378
    1OL    H14S 6661   2.032   2.469   4.503  1.3926  0.4229  0.5367
    1OL    C115 6662   2.044   2.409   4.706  0.2356  0.1666  0.2303
    1OL    H15R 6663   1.988   2.494   4.747  0.7632 -0.3785  2.2275
    1OL    H15S 6664   2.149   2.438   4.704  0.4795 -0.4236 -3.7987
    1OL    C116 6665   2.005   2.299   4.800  0.3286  0.7273  0.1714
    1OL    H16R 6666   1.955   2.215   4.751 -1.9080  0.3311  2.8691
    1OL    H16S 6667   1.940   2.343   4.876  1.6797  1.6780  0.8100
    1OL    C117 6668   2.130   2.247   4.877  0.5402 -0.0740  0.6738
    1OL    H17R 6669   2.188   2.329   4.921  0.3196  1.4523 -1.6924
    1OL    H17S 6670   2.201   2.193   4.814  0.8458  2.3699 -1.2122
    1OL    C118 6671   2.103   2.158   5.002  0.1046  0.1575  0.3949
    1OL    H18R 6672   2.193   2.123   5.054 -1.6476 -2.4248  1.9014
    1OL    H18S 6673   2.064   2.061   4.970  0.0493 -0.1053  1.2285
    1OL    H18T 6674   2.026   2.197   5.068  0.1887 -0.7423  1.0448
    1PA    C116 6675   2.589   2.391   4.913  0.4858 -0.4642 -0.1638
    1PA    H16R 6676   2.643   2.313   4.968 -0.6305 -1.0535  0.1274
    1PA    H16S 6677   2.502   2.421   4.973  1.5069  0.3210  0.9925
    1PA    H16T 6678   2.657   2.476   4.902 -1.1030  1.0607  1.0589
    1PA    C115 6679   2.537   2.338   4.779 -0.1848  0.3505  0.0400
    1PA    H15R 6680   2.610   2.282   4.720  0.9513 -0.4114  2.0848
    1PA    H15S 6681   2.460   2.262   4.795 -0.5394  0.0752 -2.5411
    1PA    C114 6682   2.476   2.452   4.691 -0.5902  0.7291  0.3459
    1PA    H14R 6683   2.408   2.396   4.626 -0.2946 -1.8942  2.1510
    1PA    H14S 6684   2.408   2.510   4.754 -1.7797 -0.5142  0.2533
    1PA    C113 6685   2.595   2.535   4.627  0.5011  0.7960 -0.3940
    1PA    H13R 6686   2.652   2.578   4.709 -0.4459 -0.7219  1.1321
    1PA    H13S 6687   2.659   2.464   4.574 -0.5171 -0.0408 -0.5460
    1PA    C112 6688   2.552   2.645   4.528  0.5307 -0.1099 -0.0940
    1PA    H12R 6689   2.523   2.729   4.593  0.1727 -0.1267 -0.2292
    1PA    H12S 6690   2.637   2.678   4.468 -0.7901  0.9474 -1.4768
    1PA    C111 6691   2.434   2.603   4.429  0.3188  0.5644  0.1809
    1PA    H11R 6692   2.349   2.568   4.488 -1.8962  3.3281 -1.1032
    1PA    H11S 6693   2.400   2.693   4.376  1.7862  2.0442  1.6038
    1PA    C110 6694   2.469   2.502   4.319  0.3095 -1.0628  0.3869
    1PA    H10R 6695   2.506   2.411   4.368  1.8690 -0.4989  0.3143
    1PA    H10S 6696   2.374   2.489   4.267  0.6718 -0.7014 -0.3703
    1PA     C19 6697   2.573   2.553   4.215 -0.8722  0.2462 -0.1175
    1PA     H9R 6698   2.669   2.534   4.263 -0.4869 -3.6715 -2.1161
    1PA     H9S 6699   2.560   2.476   4.140 -0.5193  0.2021 -0.1334
    1PA     C18 6700   2.561   2.692   4.149  0.6450 -0.0551 -0.5740
    1PA     H8R 6701   2.587   2.779   4.210  0.1037  0.3693 -0.9328
    1PA     H8S 6702   2.643   2.689   4.077  2.1300  0.5786  1.0242
    1PA     C17 6703   2.429   2.715   4.073  0.9935 -0.1621 -0.7456
    1PA     H7R 6704   2.399   2.624   4.021 -2.2904  0.4091 -0.1015
    1PA     H7S 6705   2.346   2.737   4.142  0.5390 -1.8402 -0.6893
    1PA     C16 6706   2.439   2.836   3.975 -0.3093  0.5746  0.2481
    1PA     H6R 6707   2.339   2.852   3.934 -1.2123 -1.5647  1.5012
    1PA     H6S 6708   2.464   2.922   4.038  0.7465 -1.3480  2.6190
    1PA     C15 6709   2.533   2.811   3.854 -0.5608  0.2347  0.4008
    1PA     H5R 6710   2.630   2.778   3.889 -1.6351 -1.8063  1.6418
    1PA     H5S 6711   2.503   2.728   3.789 -0.4282  0.0837  0.5342
    1PA     C14 6712   2.553   2.934   3.768  0.1333 -0.1160  0.1009
    1PA     H4R 6713   2.460   2.962   3.718  0.6396 -1.6527 -1.7855
    1PA     H4S 6714   2.584   3.018   3.831  1.0614 -0.9871  0.8477
    1PA     C13 6715   2.664   2.922   3.658 -0.6260  0.3616  0.1712
    1PA     H3R 6716   2.746   2.866   3.704 -1.1196 -0.1329  0.4664
    1PA     H3S 6717   2.623   2.851   3.586  1.0088 -0.8561  0.3853
    1PA     C12 6718   2.722   3.039   3.580 -0.0139 -0.4246  0.3163
    1PA     H2R 6719   2.747   3.121   3.648  2.0136 -0.8356  0.1267
    1PA     H2S 6720   2.816   3.018   3.529 -0.7160  2.1133 -2.2614
    1PC     C11 6721   2.616   3.105   3.490 -0.6173 -0.8972 -0.9929
    1PC     O12 6722   2.553   3.204   3.517  0.7192  0.1661  0.4783
    1PC     O11 6723   2.590   3.036   3.383  0.0930  0.5218 -0.4041
    1PC      C1 6724   2.471   3.058   3.304  0.2234  0.8356 -0.0016
    1PC      HR 6725   2.450   3.165   3.311 -0.1014  0.9749 -2.2661
    1PC      HS 6726   2.493   3.019   3.204  1.9984 -3.1380  1.7207
    1PC      C2 6727   2.344   2.982   3.361 -0.0947  0.1197  0.2733
    1PC      HX 6728   2.372   2.878   3.381 -0.3075  0.1675  0.8354
    1PC      C3 6729   2.232   2.994   3.251  0.1253  0.7995 -0.1005
    1PC      HA 6730   2.270   2.977   3.150 -0.7159 -0.6950 -0.2018
    1PC      HB 6731   2.165   2.915   3.287  0.9918 -0.0017 -0.1869
    1PC     O31 6732   2.163   3.113   3.261 -0.3516 -0.0110  0.1420
    1PC     P31 6733   2.014   3.127   3.231  0.2157 -0.5914  0.1916
    1PC     O32 6734   1.950   3.134   3.382 -0.3894 -0.6597 -0.3014
    1PC     C31 6735   1.905   3.017   3.449  0.2759  0.4410 -0.0798
    1PC     H1A 6736   1.973   2.934   3.425  3.0218  2.8946 -1.4593
    1PC     H1B 6737   1.916   3.032   3.557  0.6092  0.3355 -0.0981
    1PC     C32 6738   1.759   2.975   3.412  0.2204  0.8848 -0.7432
    1PC     H2A 6739   1.762   2.922   3.317  0.6730 -2.3883  0.9518
    1PC     H2B 6740   1.718   2.904   3.485  1.5482  1.0040  0.1488
    1PC     N31 6741   1.647   3.076   3.412 -0.1736 -0.2117 -0.2821
    1PC     C33 6742   1.527   2.999   3.428 -0.4588  0.8262 -0.3781
    1PC     H3A 6743   1.501   2.949   3.335 -1.1339  1.8049 -0.7355
    1PC     H3B 6744   1.545   2.933   3.513 -1.0159 -0.7579 -1.4390
    1PC     H3C 6745   1.439   3.064   3.436 -0.6578  0.8273 -2.1985
    1PC     C34 6746   1.656   3.176   3.516  0.5892 -0.3971 -0.7460
    1PC     H4A 6747   1.566   3.236   3.498 -0.2527 -1.2393  0.4803
    1PC     H4B 6748   1.648   3.122   3.611  0.7521  0.0956 -0.4452
    1PC     H4C 6749   1.753   3.225   3.510  0.4478 -0.3065 -2.9114
    1PC     C35 6750   1.636   3.142   3.277 -0.0657 -0.1497  0.4750
    1PC     H5A 6751   1.676   3.074   3.201  2.1242  0.8741  0.6435
    1PC     H5B 6752   1.694   3.234   3.269 -1.0887  0.3671 -2.6422
    1PC     H5C 6753   1.534   3.176   3.261  0.2633  1.2208  1.1691
    1PC     O33 6754   1.981   3.252   3.160  0.1515 -0.2963 -0.3047
    1PC     O34 6755   1.972   3.001   3.164 -0.2338 -0.0064 -0.2201
    1PC     O21 6756   2.303   3.050   3.488  0.2774  0.4130 -0.4106
    1PC     C21 6757   2.242   2.975   3.581 -0.5431 -0.5820 -0.0503
    1PC     O22 6758   2.215   2.860   3.563 -0.2754  0.1433  0.5720
    1OL     C12 6759   2.196   3.060   3.690  0.1486 -0.0584  0.1685
    1OL     H2R 6760   2.141   3.138   3.637  0.4291 -1.1479 -1.8398
    1OL     H2S 6761   2.280   3.103   3.745  0.1263 -1.1099  1.0666
    1OL     C13 6762   2.106   2.990   3.799 -0.0050 -0.6097  0.5381
    1OL     H3R 6763   2.152   2.897   3.833  0.8403 -0.3265  0.1921
    1OL     H3S 6764   2.009   2.971   3.751  0.7085 -1.9408 -0.4527
    1OL     C14 6765   2.098   3.072   3.929 -0.3064  0.1552  0.2959
    1OL     H4R 6766   2.200   3.096   3.961 -0.9161  2.1404  0.9305
    1OL     H4S 6767   2.062   3.009   4.011 -1.8152 -0.5013 -0.8197
    1OL     C15 6768   2.024   3.205   3.913  0.4319 -0.1086  0.6175
    1OL     H5R 6769   1.928   3.187   3.866  0.0073 -1.4538  1.9163
    1OL     H5S 6770   2.079   3.274   3.848 -0.1841 -0.2154 -0.0238
    1OL     C16 6771   1.998   3.271   4.053  0.2301 -0.3547 -0.1985
    1OL     H6R 6772   1.997   3.377   4.028 -0.1011 -0.0146  1.1977
    1OL     H6S 6773   2.087   3.269   4.117  1.8060  2.4690 -2.0426
    1OL     C17 6774   1.875   3.221   4.136 -0.6870  0.3741 -0.0342
    1OL     H7R 6775   1.884   3.115   4.160 -3.9243 -0.2002 -0.8572
    1OL     H7S 6776   1.788   3.237   4.071 -0.8663  0.6830  0.2808
    1OL     C18 6777   1.857   3.288   4.274 -0.2311 -0.1982 -0.1000
    1OL     H8R 6778   1.828   3.393   4.267 -0.2840 -0.3176 -2.0585
    1OL     H8S 6779   1.944   3.285   4.341  0.4559 -0.2816 -0.9801
    1OL     C19 6780   1.734   3.221   4.338 -0.4830 -0.0471 -0.5007
    1OL     H9R 6781   1.664   3.182   4.265  0.4790  0.6216 -1.8302
    1OL    C110 6782   1.711   3.205   4.470  0.2100 -0.4243  0.1623
    1OL    H10R 6783   1.627   3.142   4.497  0.1577 -1.9273 -3.0187
    1OL    C111 6784   1.782   3.267   4.584  0.2851 -0.8918  0.8492
    1OL    H11R 6785   1.711   3.337   4.628  0.7858  0.3781 -0.2923
    1OL    H11S 6786   1.867   3.335   4.569 -0.5713  1.9605  6.3559
    1OL    C112 6787   1.833   3.163   4.685  0.1768  0.0335  0.8119
    1OL    H12R 6788   1.896   3.094   4.628 -2.6852 -0.5806 -1.9065
    1OL    H12S 6789   1.749   3.101   4.716  0.0773  1.0393  2.6600
    1OL    C113 6790   1.898   3.225   4.811 -0.1084 -0.6040 -0.3148
    1OL    H13R 6791   1.982   3.283   4.774  0.2105 -1.6526 -1.3021
    1OL    H13S 6792   1.935   3.143   4.873  0.4864  1.6534  2.5079
    1OL    C114 6793   1.800   3.322   4.894 -0.4313  0.5849  0.3392
    1OL    H14R 6794   1.703   3.272   4.885  1.3364 -2.8126 -2.6729
    1OL    H14S 6795   1.791   3.416   4.839 -3.2950  0.8383  1.0705
    1OL    C115 6796   1.862   3.339   5.032 -0.5158  0.3507 -0.3259
    1OL    H15R 6797   1.956   3.393   5.016 -0.1256 -0.6753 -1.7105
    1OL    H15S 6798   1.884   3.249   5.091  0.6367 -0.0952 -1.3874
    1OL    C116 6799   1.783   3.434   5.130  0.0977  0.4522  0.3615
    1OL    H16R 6800   1.767   3.535   5.090  0.3054 -0.3783 -1.9634
    1OL    H16S 6801   1.846   3.453   5.217 -1.0357 -1.1421  1.5844
    1OL    C117 6802   1.647   3.376   5.186 -0.5152  0.7839 -0.2316
    1OL    H17R 6803   1.579   3.345   5.107 -1.6592 -0.5955  1.2210
    1OL    H17S 6804   1.590   3.454   5.237 -3.4052 -1.1248 -0.3358
    1OL    C118 6805   1.654   3.251   5.278  0.1874 -0.2416  0.3486
    1OL    H18R 6806   1.710   3.273   5.369  1.9553 -0.0182 -0.7395
    1OL    H18S 6807   1.709   3.164   5.240 -0.4373 -0.4860 -0.0087
    1OL    H18T 6808   1.551   3.218   5.294 -0.7497  2.1161 -0.4618
    1PA    C116 6809   2.604   0.797   5.245 -0.1469  0.1854  0.0149
    1PA    H16R 6810   2.651   0.762   5.337 -0.0262 -1.9195 -0.7747
    1PA    H16S 6811   2.578   0.901   5.263 -2.2958 -0.2108 -0.4892
    1PA    H16T 6812   2.676   0.774   5.165 -0.0720 -0.6530  0.3104
    1PA    C115 6813   2.481   0.712   5.235 -0.1778 -0.1797  0.6889
    1PA    H15R 6814   2.518   0.609   5.231 -1.2490 -0.5708  0.6202
    1PA    H15S 6815   2.413   0.722   5.320 -2.3274  2.2041 -1.1829
    1PA    C114 6816   2.403   0.741   5.104  0.2546  0.0322  0.2923
    1PA    H14R 6817   2.366   0.844   5.109  0.7429  0.1838  0.9482
    1PA    H14S 6818   2.478   0.741   5.025  0.8805  0.1480  0.8751
    1PA    C113 6819   2.289   0.657   5.056  0.4266 -0.1660  0.6743
    1PA    H13R 6820   2.276   0.672   4.948 -2.6454  1.4082  1.1387
    1PA    H13S 6821   2.301   0.550   5.075 -0.6225 -0.5055 -0.4264
    1PA    C112 6822   2.150   0.695   5.114  0.1307  0.7712  0.1183
    1PA    H12R 6823   2.079   0.619   5.080  2.9643 -1.6027 -0.8936
    1PA    H12S 6824   2.163   0.681   5.222  0.4151  2.0318  0.2566
    1PA    C111 6825   2.103   0.840   5.099  0.0772 -0.3831  0.0986
    1PA    H11R 6826   1.997   0.841   5.121 -0.2980 -1.3895 -1.5207
    1PA    H11S 6827   2.160   0.906   5.165 -0.0275 -0.9373  0.7543
    1PA    C110 6828   2.107   0.898   4.955  0.1785  0.5992 -0.0590
    1PA    H10R 6829   2.068   1.001   4.954  0.8564  0.8798  0.9220
    1PA    H10S 6830   2.206   0.888   4.909 -0.3239 -0.9183 -0.8661
    1PA     C19 6831   2.009   0.827   4.853 -0.0387 -0.1877 -0.1104
    1PA     H9R 6832   2.021   0.719   4.866  0.4461 -0.0523  0.6482
    1PA     H9S 6833   1.910   0.853   4.891  0.1203  0.4216 -0.0993
    1PA     C18 6834   2.024   0.868   4.707  0.4842  0.6907  0.5413
    1PA     H8R 6835   1.933   0.852   4.648  0.7072  1.6625 -0.0881
    1PA     H8S 6836   2.049   0.974   4.703 -1.8754  1.2716 -1.5008
    1PA     C17 6837   2.140   0.793   4.641  0.3600  0.2354  0.0977
    1PA     H7R 6838   2.231   0.803   4.701  0.3029  1.9100 -0.0246
    1PA     H7S 6839   2.119   0.687   4.632  0.1033  0.3757 -1.1423
    1PA     C16 6840   2.173   0.852   4.505  0.2411 -0.0849  0.4703
    1PA     H6R 6841   2.081   0.883   4.454  0.6057 -0.0482 -0.1819
    1PA     H6S 6842   2.219   0.951   4.516 -1.4193  0.5267  2.5548
    1PA     C15 6843   2.259   0.764   4.416 -0.7087 -0.3077 -0.1926
    1PA     H5R 6844   2.354   0.732   4.459 -0.4321  0.4140 -0.2368
    1PA     H5S 6845   2.197   0.675   4.404 -1.9556  0.7337 -2.0661
    1PA     C14 6846   2.289   0.817   4.277  0.8729  0.1052  0.3230
    1PA     H4R 6847   2.319   0.921   4.266  0.4624  0.0819 -1.3342
    1PA     H4S 6848   2.370   0.756   4.236  0.5078 -0.3804  0.3148
    1PA     C13 6849   2.162   0.788   4.192  0.3545 -0.2901  1.3090
    1PA     H3R 6850   2.135   0.682   4.192  0.0999 -0.2315  0.3617
    1PA     H3S 6851   2.079   0.838   4.243  2.1563  2.6094  1.6590
    1PA     C12 6852   2.176   0.843   4.047 -0.3980  0.3873  0.1631
    1PA     H2R 6853   2.189   0.951   4.057 -0.8082  0.4366  0.1899
    1PA     H2S 6854   2.264   0.804   3.996 -1.1926 -0.5121 -0.5585
    1PC     C11 6855   2.057   0.806   3.958 -1.1857  0.2305 -0.4993
    1PC     O12 6856   1.982   0.714   3.978  0.6116 -0.4857 -0.5110
    1PC     O11 6857   2.051   0.879   3.846 -0.2017  0.6915  0.4594
    1PC      C1 6858   1.969   0.833   3.742 -0.2784  0.0804 -0.1079
    1PC      HR 6859   2.013   0.734   3.724  1.8751  0.3091  3.0204
    1PC      HS 6860   1.867   0.831   3.781 -0.0081 -0.3349  0.6070
    1PC      C2 6861   1.987   0.923   3.619  0.0295  0.0270  0.2436
    1PC      HX 6862   1.909   0.893   3.549 -0.2498  0.2800  0.4395
    1PC      C3 6863   2.117   0.890   3.542 -0.3195 -0.0599  0.2200
    1PC      HA 6864   2.204   0.913   3.604 -0.7431  1.1423  0.3974
    1PC      HB 6865   2.122   0.783   3.518 -0.7162 -0.5832  2.2708
    1PC     O31 6866   2.117   0.973   3.422  0.0511  0.0922 -0.0591
    1PC     P31 6867   2.035   0.953   3.292  0.4113  0.3209 -0.0973
    1PC     O32 6868   2.159   0.958   3.188  0.2360  0.3168 -0.0133
    1PC     C31 6869   2.216   1.081   3.136 -0.6613  0.3008 -0.2540
    1PC     H1A 6870   2.217   1.167   3.203 -0.3728  1.1147 -1.2770
    1PC     H1B 6871   2.318   1.053   3.109 -0.4003 -2.7367  3.1661
    1PC     C32 6872   2.128   1.116   3.011 -0.5632  1.2136 -0.1896
    1PC     H2A 6873   2.131   1.035   2.937 -0.5938  2.1134 -1.2078
    1PC     H2B 6874   2.026   1.120   3.049  0.1370 -1.6807  2.3514
    1PC     N31 6875   2.157   1.239   2.935 -0.6403 -0.4777  0.7549
    1PC     C33 6876   2.285   1.219   2.853  0.4965 -0.3906  0.1251
    1PC     H3A 6877   2.373   1.208   2.917  0.1352 -4.0522  0.2092
    1PC     H3B 6878   2.269   1.132   2.790  0.9682 -0.7146  0.4465
    1PC     H3C 6879   2.301   1.307   2.790 -1.3665  1.1068  1.6320
    1PC     C34 6880   2.052   1.257   2.834  0.0689  0.6269 -0.4023
    1PC     H4A 6881   2.054   1.173   2.765  1.0255 -1.1747  1.6924
    1PC     H4B 6882   1.959   1.263   2.892  0.8280  1.3784  0.7824
    1PC     H4C 6883   2.057   1.355   2.786  1.5499  1.6968  1.7708
    1PC     C35 6884   2.172   1.362   3.016 -0.0310  0.3693  0.1343
    1PC     H5A 6885   2.077   1.374   3.067  0.0002  0.0313  0.2745
    1PC     H5B 6886   2.183   1.441   2.941  0.9053  0.1085 -0.0259
    1PC     H5C 6887   2.259   1.352   3.081  0.4424 -1.5896 -0.7016
    1PC     O33 6888   1.987   0.811   3.294 -0.1665 -0.0460  0.2359
    1PC     O34 6889   1.949   1.068   3.283  0.2931 -0.0528 -0.2326
    1PC     O21 6890   1.971   1.065   3.649  0.6430  0.2069  0.0687
    1PC     C21 6891   1.850   1.110   3.680  0.1496 -0.4394  0.1229
    1PC     O22 6892   1.748   1.048   3.662 -0.2123 -0.1702  0.3294
    1OL     C12 6893   1.860   1.251   3.733  0.0752 -0.1477 -0.1455
    1OL     H2R 6894   1.840   1.330   3.661 -0.7510  1.8190  2.1139
    1OL     H2S 6895   1.960   1.270   3.771 -0.5270  0.4460  1.2280
    1OL     C13 6896   1.751   1.282   3.838 -0.1652  0.6500 -0.2303
    1OL     H3R 6897   1.652   1.258   3.800  0.3386  0.2463 -1.3301
    1OL     H3S 6898   1.762   1.387   3.866  3.2562 -0.3073  2.7803
    1OL     C14 6899   1.768   1.200   3.970  0.0415 -0.3824 -0.3854
    1OL     H4R 6900   1.706   1.110   3.967 -1.7308  0.8183 -1.4703
    1OL     H4S 6901   1.717   1.256   4.048 -0.0167 -1.0382  0.0562
    1OL     C15 6902   1.915   1.158   4.006  0.4984  0.7074  0.8181
    1OL     H5R 6903   1.983   1.243   4.019  1.9773  0.0193 -1.6639
    1OL     H5S 6904   1.959   1.097   3.927 -1.2772  0.9066 -0.3520
    1OL     C16 6905   1.913   1.069   4.132  0.4644 -0.2121 -0.4405
    1OL     H6R 6906   2.019   1.057   4.152  0.5342 -0.4378 -0.9292
    1OL     H6S 6907   1.871   0.970   4.113 -0.6374  0.3662 -1.1223
    1OL     C17 6908   1.841   1.123   4.259  0.0761  0.2484 -0.8135
    1OL     H7R 6909   1.857   1.040   4.328  2.8468  0.2131 -1.3865
    1OL     H7S 6910   1.732   1.137   4.257 -0.2023 -1.4991  0.4549
    1OL     C18 6911   1.904   1.251   4.319  0.2202  0.1463 -0.3781
    1OL     H8R 6912   1.893   1.337   4.252 -0.1236  1.3931  1.1975
    1OL     H8S 6913   2.014   1.249   4.317  0.2684  1.4509 -0.2049
    1OL     C19 6914   1.843   1.284   4.458 -0.3732 -0.0905  0.3650
    1OL     H9R 6915   1.739   1.257   4.474  0.1303 -1.2686  2.0222
    1OL    C110 6916   1.910   1.314   4.571  0.3936  0.4481  0.2973
    1OL    H10R 6917   1.853   1.319   4.664  1.3814 -1.1348  1.0198
    1OL    C111 6918   2.053   1.344   4.594  0.5377 -0.1421  0.1724
    1OL    H11R 6919   2.068   1.452   4.594 -0.2798 -0.0083  1.9950
    1OL    H11S 6920   2.121   1.297   4.522  2.0612  2.0728  0.0757
    1OL    C112 6921   2.096   1.288   4.730 -0.6055 -0.4407  0.2187
    1OL    H12R 6922   2.108   1.179   4.730 -0.7083 -0.4527 -0.0672
    1OL    H12S 6923   2.007   1.301   4.791 -2.1566  2.5084 -2.4117
    1OL    C113 6924   2.222   1.335   4.812 -0.1506 -0.3285  0.6856
    1OL    H13R 6925   2.227   1.276   4.904  0.7065  0.6803  1.3036
    1OL    H13S 6926   2.217   1.439   4.844 -1.7343 -0.7644  2.0477
    1OL    C114 6927   2.356   1.312   4.727 -0.3677 -0.5039  0.3469
    1OL    H14R 6928   2.444   1.356   4.774 -0.5520 -0.9027  1.0853
    1OL    H14S 6929   2.348   1.354   4.627 -0.0740  0.2994  0.6490
    1OL    C115 6930   2.392   1.161   4.714 -0.3109  0.6481  0.2577
    1OL    H15R 6931   2.477   1.141   4.649 -0.3285  0.5201  0.2729
    1OL    H15S 6932   2.300   1.117   4.674  0.3377 -0.6647  0.1468
    1OL    C116 6933   2.418   1.092   4.852  0.0019  0.4439  0.3884
    1OL    H16R 6934   2.464   0.997   4.826 -1.7475 -0.2396 -0.3168
    1OL    H16S 6935   2.326   1.069   4.907 -0.5068 -0.1246 -0.6801
    1OL    C117 6936   2.513   1.173   4.937  0.1888  0.9444 -1.3063
    1OL    H17R 6937   2.460   1.263   4.970 -0.6041  0.3489 -0.9289
    1OL    H17S 6938   2.589   1.214   4.870  0.1048  1.2144 -1.2351
    1OL    C118 6939   2.590   1.105   5.051 -0.4187  0.3596 -0.6737
    1OL    H18R 6940   2.522   1.106   5.137  1.9102 -1.1380  1.3330
    1OL    H18S 6941   2.675   1.165   5.083 -2.0773  0.8599  3.3922
    1OL    H18T 6942   2.608   0.998   5.037 -1.0472  0.2769 -0.9221
    1PA    C116 6943   2.052   2.480   5.248  0.1857  0.0823  0.2748
    1PA    H16R 6944   2.003   2.490   5.344 -0.7172 -1.1715 -0.0326
    1PA    H16S 6945   2.136   2.413   5.267  0.1331 -0.3387 -0.8989
    1PA    H16T 6946   1.993   2.427   5.173  0.5448  2.4740 -1.8478
    1PA    C115 6947   2.099   2.618   5.183  1.3686 -0.2633 -0.5352
    1PA    H15R 6948   2.011   2.683   5.178  1.3455 -0.0110  1.8555
    1PA    H15S 6949   2.169   2.668   5.251 -0.3799  1.2594  0.2603
    1PA    C114 6950   2.158   2.599   5.047 -0.1431  0.0657  0.7338
    1PA    H14R 6951   2.242   2.529   5.053 -0.8345 -0.6806  2.0179
    1PA    H14S 6952   2.086   2.553   4.979  1.0025  0.8254 -1.0678
    1PA    C113 6953   2.197   2.733   4.980  0.6824 -0.4151  0.5891
    1PA    H13R 6954   2.109   2.795   4.998 -0.2490 -1.6728  0.5267
    1PA    H13S 6955   2.284   2.776   5.031 -0.0326  0.9020  0.7275
    1PA    C112 6956   2.212   2.738   4.821  0.3919  0.6615 -0.4196
    1PA    H12R 6957   2.314   2.725   4.786  0.0951 -2.3239 -0.3939
    1PA    H12S 6958   2.147   2.670   4.765 -0.2949 -0.6805  1.9098
    1PA    C111 6959   2.181   2.876   4.764 -0.3845  0.5329  0.9304
    1PA    H11R 6960   2.112   2.927   4.831 -0.7537 -1.2663  1.9978
    1PA    H11S 6961   2.278   2.926   4.767 -0.4274  0.5751  2.1135
    1PA    C110 6962   2.128   2.877   4.618 -0.5234 -0.3865 -0.3671
    1PA    H10R 6963   2.128   2.980   4.582  1.0443 -0.8616 -1.8888
    1PA    H10S 6964   2.203   2.828   4.555 -1.0629 -1.4447 -0.2008
    1PA     C19 6965   1.987   2.825   4.593 -0.8493 -0.7399 -0.8920
    1PA     H9R 6966   1.977   2.717   4.609 -1.2295 -0.5842 -0.0618
    1PA     H9S 6967   1.917   2.872   4.663  0.1648 -2.1328  1.1512
    1PA     C18 6968   1.934   2.850   4.456  0.1361 -0.3268  0.3665
    1PA     H8R 6969   1.828   2.822   4.462 -0.5073  1.0362 -2.7416
    1PA     H8S 6970   1.938   2.954   4.424 -1.3774 -0.6160 -0.8772
    1PA     C17 6971   1.996   2.773   4.342 -0.3518 -0.5826  0.4540
    1PA     H7R 6972   2.094   2.814   4.316 -1.0588  0.0266 -1.3484
    1PA     H7S 6973   2.011   2.668   4.369 -0.8293 -1.6754 -3.0162
    1PA     C16 6974   1.916   2.781   4.205 -0.4916  0.7893 -0.0434
    1PA     H6R 6975   1.816   2.742   4.224  0.6864 -1.2144  2.8865
    1PA     H6S 6976   1.902   2.887   4.182  1.1691  0.7034 -1.7181
    1PA     C15 6977   1.976   2.698   4.093  0.4856 -1.1491 -0.2517
    1PA     H5R 6978   2.069   2.745   4.060 -0.3828  1.8442  1.1679
    1PA     H5S 6979   1.987   2.596   4.130 -1.1068 -0.7435  1.4619
    1PA     C14 6980   1.870   2.704   3.980 -0.1804  0.4363  0.1750
    1PA     H4R 6981   1.768   2.674   4.006  0.3659 -1.6884  0.0542
    1PA     H4S 6982   1.864   2.811   3.958 -1.5947  0.8784  2.3478
    1PA     C13 6983   1.928   2.618   3.864 -0.2460  0.3162 -0.3251
    1PA     H3R 6984   1.969   2.673   3.779 -0.3240 -1.2349 -1.4085
    1PA     H3S 6985   2.019   2.572   3.903  0.2241  2.8476  1.7692
    1PA     C12 6986   1.837   2.516   3.794  0.5176 -0.1061 -0.1775
    1PA     H2R 6987   1.807   2.435   3.861 -0.3839 -0.5322 -1.0572
    1PA     H2S 6988   1.741   2.560   3.766 -0.9662 -0.0865  4.1570
    1PC     C11 6989   1.919   2.440   3.687  0.3829 -0.2140  0.3664
    1PC     O12 6990   1.996   2.498   3.609 -0.1576  0.0172 -0.1687
    1PC     O11 6991   1.900   2.311   3.691 -0.2531  0.1981  0.7451
    1PC      C1 6992   1.983   2.224   3.615 -0.3960  0.2205  0.8458
    1PC      HR 6993   1.989   2.268   3.515  1.4019 -0.1270  0.7639
    1PC      HS 6994   2.086   2.231   3.653 -1.2364  1.2926  3.1144
    1PC      C2 6995   1.930   2.080   3.608 -0.1103  0.1498  0.0922
    1PC      HX 6996   2.005   2.016   3.560  0.2492 -0.6429  1.6409
    1PC      C3 6997   1.793   2.070   3.540 -0.7516  0.8005 -0.0436
    1PC      HA 6998   1.752   1.977   3.579 -1.4244  0.1513 -2.1759
    1PC      HB 6999   1.720   2.146   3.569 -2.6364  0.6042 -3.7332
    1PC     O31 7000   1.811   2.050   3.395 -0.6407 -0.6270  0.1692
    1PC     P31 7001   1.741   2.158   3.306  0.1283 -0.2161  0.1332
    1PC     O32 7002   1.832   2.286   3.320  0.0376 -0.1454 -0.1141
    1PC     C31 7003   1.947   2.292   3.241 -1.2014  0.1274  0.1005
    1PC     H1A 7004   2.019   2.216   3.274 -1.9260 -0.7049 -0.1743
    1PC     H1B 7005   1.926   2.273   3.135 -1.0006 -2.8729  0.4943
    1PC     C32 7006   2.008   2.430   3.275 -0.2229 -0.2176 -0.2603
    1PC     H2A 7007   2.015   2.437   3.383 -1.2615 -2.0009 -0.0417
    1PC     H2B 7008   2.107   2.431   3.229 -1.1171 -0.9104 -2.3417
    1PC     N31 7009   1.936   2.554   3.227 -0.5386  0.4311 -0.2101
    1PC     C33 7010   1.931   2.552   3.078  0.2525  0.0857 -0.4455
    1PC     H3A 7011   1.855   2.483   3.042  0.0219  0.0716  0.0577
    1PC     H3B 7012   1.902   2.654   3.050  1.5271  0.2651 -1.1906
    1PC     H3C 7013   2.031   2.533   3.039  1.2780  1.4071  1.3419
    1PC     C34 7014   1.789   2.557   3.271 -0.3939 -0.4323  1.2116
    1PC     H4A 7015   1.745   2.461   3.244  1.8693 -1.7943  2.1199
    1PC     H4B 7016   1.792   2.562   3.380 -0.2754  1.0197  1.1640
    1PC     H4C 7017   1.737   2.647   3.238 -2.1925 -1.3157  1.5355
    1PC     C35 7018   2.009   2.677   3.282 -0.0304 -0.2847  0.0627
    1PC     H5A 7019   1.967   2.775   3.257 -1.4755 -1.6773 -3.5029
    1PC     H5B 7020   2.111   2.669   3.244  0.1896  0.6314  0.4380
    1PC     H5C 7021   2.001   2.673   3.391 -0.8203  1.5844  0.1104
    1PC     O33 7022   1.757   2.112   3.166  0.5412 -0.5887  1.1164
    1PC     O34 7023   1.600   2.190   3.345 -0.0770  0.2171  0.1581
    1PC     O21 7024   1.910   2.022   3.731  0.4005  0.5381 -0.1648
    1PC     C21 7025   2.011   1.972   3.806 -0.6839  0.4649  0.3301
    1PC     O22 7026   2.131   1.972   3.774  0.0772  0.5803  0.0054
    1OL     C12 7027   1.950   1.897   3.925  0.0422 -0.2166 -0.0554
    1OL     H2R 7028   2.007   1.804   3.930  0.7984  0.3225  2.0984
    1OL     H2S 7029   1.845   1.879   3.898  0.1006  0.3505 -0.6783
    1OL     C13 7030   1.953   1.987   4.049  0.0930  0.8216  0.3991
    1OL     H3R 7031   1.898   2.079   4.028 -2.3417 -0.7752 -0.6380
    1OL     H3S 7032   2.057   2.011   4.074 -0.3955  4.0871 -0.1983
    1OL     C14 7033   1.905   1.899   4.166 -0.0886 -0.3836 -0.2557
    1OL     H4R 7034   1.799   1.877   4.153  0.1924 -1.4777 -0.7333
    1OL     H4S 7035   1.914   1.960   4.257  1.9922  0.1315 -0.7518
    1OL     C15 7036   1.989   1.768   4.179 -0.0852  0.4935  0.0474
    1OL     H5R 7037   2.093   1.799   4.169 -0.0034 -0.3495 -2.2689
    1OL     H5S 7038   1.968   1.698   4.097 -1.6554  0.2357  0.6183
    1OL     C16 7039   1.961   1.675   4.305 -0.0194  0.1535 -1.2253
    1OL     H6R 7040   2.023   1.585   4.316 -0.1296  0.3406  1.6184
    1OL     H6S 7041   1.855   1.650   4.307 -0.3374  0.7181  3.9785
    1OL     C17 7042   1.981   1.751   4.441 -0.3129 -0.5687  0.1885
    1OL     H7R 7043   2.042   1.838   4.415 -0.9015 -0.6605 -1.6294
    1OL     H7S 7044   2.034   1.674   4.498 -0.4197 -0.6238  0.2134
    1OL     C18 7045   1.847   1.789   4.513 -0.0538 -0.6596  0.3560
    1OL     H8R 7046   1.784   1.699   4.510 -0.3749 -0.4955  1.6959
    1OL     H8S 7047   1.814   1.877   4.457  2.1537 -0.1718 -0.2653
    1OL     C19 7048   1.877   1.834   4.652  0.7675 -0.3004  0.2141
    1OL     H9R 7049   1.915   1.936   4.645 -1.0469  0.5183  1.4891
    1OL    C110 7050   1.840   1.785   4.766  0.2359  0.3599 -0.9238
    1OL    H10R 7051   1.856   1.826   4.865 -1.6263  0.9789 -0.8325
    1OL    C111 7052   1.773   1.654   4.779  0.4729 -0.7234 -0.1978
    1OL    H11R 7053   1.831   1.608   4.859  0.3019 -0.2344  0.2095
    1OL    H11S 7054   1.782   1.593   4.688 -1.1160 -0.2511 -0.6932
    1OL    C112 7055   1.625   1.661   4.812 -0.2867 -0.3591 -0.2750
    1OL    H12R 7056   1.569   1.719   4.739 -0.0763 -1.0107 -0.9700
    1OL    H12S 7057   1.621   1.713   4.908  0.4454  0.8514 -0.8731
    1OL    C113 7058   1.553   1.519   4.823 -0.4685  0.0958  0.4593
    1OL    H13R 7059   1.449   1.539   4.851 -1.0610 -2.1722  0.1433
    1OL    H13S 7060   1.602   1.457   4.898  1.7161 -1.9459 -2.4280
    1OL    C114 7061   1.552   1.439   4.692  0.8097  0.3480 -0.2866
    1OL    H14R 7062   1.486   1.355   4.712  1.1479  0.5108  1.7598
    1OL    H14S 7063   1.654   1.408   4.670  0.7286 -0.3111  0.2373
    1OL    C115 7064   1.493   1.513   4.575 -0.1512 -0.7247  0.0856
    1OL    H15R 7065   1.532   1.461   4.487 -1.4743 -3.7519  1.1439
    1OL    H15S 7066   1.541   1.610   4.564 -0.3259 -0.5547  0.7694
    1OL    C116 7067   1.331   1.521   4.570  0.6753 -0.5097 -0.1610
    1OL    H16R 7068   1.283   1.448   4.635 -0.4950  1.0066  0.7619
    1OL    H16S 7069   1.295   1.508   4.468  3.0834  1.6902 -1.4320
    1OL    C117 7070   1.281   1.663   4.618 -0.0765  0.1615 -0.1061
    1OL    H17R 7071   1.354   1.741   4.591 -0.0655  0.3827  0.5334
    1OL    H17S 7072   1.270   1.658   4.726 -1.1942 -0.5556 -0.2467
    1OL    C118 7073   1.145   1.714   4.574  0.2400  0.0350  0.0596
    1OL    H18R 7074   1.135   1.709   4.465 -1.1838 -1.5032  0.2207
    1OL    H18S 7075   1.131   1.816   4.610  0.7272  0.5309 -1.1037
    1OL    H18T 7076   1.067   1.647   4.611 -1.1043  2.0718  1.0297
    1PA    C116 7077   2.571   2.759   5.079  0.3729 -0.1017 -0.7210
    1PA    H16R 7078   2.555   2.670   5.018 -3.8394 -1.1257  1.4807
    1PA    H16S 7079   2.485   2.777   5.144  0.5993 -2.0625  0.2019
    1PA    H16T 7080   2.643   2.731   5.156 -0.7084 -1.0752 -0.0275
    1PA    C115 7081   2.590   2.892   5.004  0.3935  0.2273 -0.5995
    1PA    H15R 7082   2.517   2.889   4.922  1.5203 -2.2527 -1.6341
    1PA    H15S 7083   2.578   2.968   5.081 -2.6461  0.2156 -0.9243
    1PA    C114 7084   2.729   2.887   4.944 -0.4307 -0.3638 -0.1714
    1PA    H14R 7085   2.808   2.878   5.019  0.0318 -1.0296 -0.7202
    1PA    H14S 7086   2.731   2.790   4.895 -1.7834 -0.9748  0.9154
    1PA    C113 7087   2.753   3.004   4.839 -0.8694 -0.7684  0.2293
    1PA    H13R 7088   2.718   3.101   4.877  0.9686  0.0138  0.0298
    1PA    H13S 7089   2.852   3.009   4.795 -1.2123 -1.2631 -0.6324
    1PA    C112 7090   2.661   2.962   4.717 -0.3874 -0.2927  0.5099
    1PA    H12R 7091   2.688   2.862   4.682  1.6222 -0.3396  2.0276
    1PA    H12S 7092   2.556   2.976   4.741 -0.6643  1.1993 -1.3267
    1PA    C111 7093   2.691   3.076   4.611 -0.0737  0.2802 -0.1876
    1PA    H11R 7094   2.657   3.169   4.655 -3.5626 -1.3963  1.0078
    1PA    H11S 7095   2.798   3.086   4.592 -0.5230  2.3045 -2.0237
    1PA    C110 7096   2.609   3.056   4.486  0.1555 -0.5926  0.2277
    1PA    H10R 7097   2.620   2.953   4.450 -1.7522 -1.3230  1.5718
    1PA    H10S 7098   2.503   3.075   4.506  0.4424 -0.0052  1.2394
    1PA     C19 7099   2.636   3.140   4.362  0.0902 -0.0386  0.3216
    1PA     H9R 7100   2.660   3.243   4.387  1.6912 -0.6634  1.4776
    1PA     H9S 7101   2.724   3.095   4.315  0.7224  0.1856  1.2597
    1PA     C18 7102   2.527   3.131   4.249  0.1572  0.6436  0.1698
    1PA     H8R 7103   2.516   3.031   4.206  0.8157  1.2035 -1.3689
    1PA     H8S 7104   2.438   3.165   4.302 -2.0365  0.1057 -2.9344
    1PA     C17 7105   2.558   3.215   4.127  0.1081  0.4336 -0.0224
    1PA     H7R 7106   2.593   3.315   4.151  0.4672  0.2774  0.1091
    1PA     H7S 7107   2.643   3.170   4.076  1.3873  0.6576  1.8468
    1PA     C16 7108   2.438   3.217   4.032 -0.8386  0.3588 -0.8222
    1PA     H6R 7109   2.432   3.119   3.984  0.5547 -0.4566  0.6023
    1PA     H6S 7110   2.352   3.236   4.097 -0.7148  3.3946 -1.3991
    1PA     C15 7111   2.445   3.320   3.919 -0.2400  0.1471 -0.4425
    1PA     H5R 7112   2.550   3.332   3.894  0.3144 -0.9024  1.2624
    1PA     H5S 7113   2.395   3.283   3.829 -1.2087 -0.6343  0.3957
    1PA     C14 7114   2.384   3.459   3.945 -0.2594 -0.3661 -0.0694
    1PA     H4R 7115   2.275   3.454   3.938 -0.4598  2.0855  0.3618
    1PA     H4S 7116   2.402   3.487   4.049  0.1908  0.1378 -0.2767
    1PA     C13 7117   2.434   3.564   3.844 -0.2668 -0.0859  0.2608
    1PA     H3R 7118   2.382   3.655   3.876 -1.6784 -1.1541  1.0949
    1PA     H3S 7119   2.540   3.586   3.861 -0.8488  1.6812  2.1338
    1PA     C12 7120   2.395   3.546   3.695  0.5998 -0.1971 -0.3424
    1PA     H2R 7121   2.431   3.451   3.655  2.6408  1.0511 -1.6669
    1PA     H2S 7122   2.287   3.546   3.679  0.6508  2.1841 -1.1018
    1PC     C11 7123   2.444   3.661   3.613  0.1848 -0.0709 -0.6303
    1PC     O12 7124   2.371   3.764   3.598  0.2489  0.8143  0.1156
    1PC     O11 7125   2.574   3.650   3.580 -1.5457  0.1113 -0.4964
    1PC      C1 7126   2.633   3.778   3.531  0.3342  0.3296 -0.8062
    1PC      HR 7127   2.578   3.805   3.441 -1.7441  0.0012  0.3064
    1PC      HS 7128   2.614   3.852   3.609  0.3840 -0.1768 -0.3039
    1PC      C2 7129   2.781   3.764   3.499  0.6500  0.2804 -0.0066
    1PC      HX 7130   2.814   3.866   3.477  1.7074  1.0101  4.0041
    1PC      C3 7131   2.802   3.667   3.378 -0.9308 -0.1175 -0.1003
    1PC      HA 7132   2.824   3.567   3.415 -0.4334  0.4528  1.2207
    1PC      HB 7133   2.714   3.656   3.314 -0.6109 -0.1747 -0.5334
    1PC     O31 7134   2.913   3.714   3.298 -0.9813  0.0436 -0.5937
    1PC     P31 7135   2.902   3.840   3.197 -0.0452 -0.0022 -0.3967
    1PC     O32 7136   2.903   3.770   3.053 -0.3294  0.4444 -0.2690
    1PC     C31 7137   3.027   3.722   2.992 -0.1403  0.3926  0.3573
    1PC     H1A 7138   3.065   3.799   2.925 -4.0277  2.9548  0.7563
    1PC     H1B 7139   3.102   3.713   3.071  0.0178  0.4174  0.2094
    1PC     C32 7140   3.003   3.591   2.912  0.6177  0.0606 -0.1018
    1PC     H2A 7141   2.943   3.609   2.823  0.9506  3.2330  0.1895
    1PC     H2B 7142   3.103   3.558   2.883 -0.2915 -0.8326 -2.4462
    1PC     N31 7143   2.940   3.471   2.979 -0.6343 -0.4627  0.0304
    1PC     C33 7144   2.791   3.489   2.987  0.2228  0.0535 -0.4389
    1PC     H3A 7145   2.757   3.529   2.891  1.6763 -0.2910 -1.1214
    1PC     H3B 7146   2.741   3.395   3.009  2.5175 -0.9332  0.8498
    1PC     H3C 7147   2.776   3.565   3.064  1.9842 -0.3406  0.3575
    1PC     C34 7148   2.967   3.358   2.895 -0.4346  0.8270 -0.4155
    1PC     H4A 7149   2.959   3.392   2.792 -1.0341 -0.6956 -0.9009
    1PC     H4B 7150   3.070   3.331   2.918  0.2618  1.0335 -3.0657
    1PC     H4C 7151   2.898   3.280   2.927 -1.5413  1.0434 -2.1515
    1PC     C35 7152   2.994   3.450   3.123 -0.3799 -0.0125  0.4618
    1PC     H5A 7153   2.928   3.377   3.169 -1.8589  0.3957 -0.8979
    1PC     H5B 7154   2.979   3.550   3.164 -2.0500  0.0885 -0.3033
    1PC     H5C 7155   3.098   3.418   3.122 -0.3423  0.1099  0.5121
    1PC     O33 7156   2.768   3.902   3.219  0.0643 -0.2592 -0.2225
    1PC     O34 7157   3.026   3.921   3.216  0.1031  0.1576 -0.0312
    1PC     O21 7158   2.868   3.711   3.607 -0.4975 -0.1108 -0.1209
    1PC     C21 7159   2.861   3.757   3.729 -0.1374  0.5425  0.3719
    1PC     O22 7160   2.793   3.848   3.761  0.5237 -0.1175  0.2550
    1OL     C12 7161   2.916   3.655   3.827  0.0020  0.0452 -0.3753
    1OL     H2R 7162   3.012   3.612   3.795  0.5765  0.6692  0.4649
    1OL     H2S 7163   2.853   3.566   3.829 -1.0686  0.7676  2.8657
    1OL     C13 7164   2.927   3.709   3.968 -0.8830 -0.4873 -0.5642
    1OL     H3R 7165   2.957   3.631   4.039 -0.2258  0.8962  0.7285
    1OL     H3S 7166   2.829   3.742   4.002 -0.7328 -1.5568  1.0306
    1OL     C14 7167   3.022   3.824   3.978  0.4150 -0.2641 -0.3660
    1OL     H4R 7168   2.979   3.900   3.913  0.7645 -1.5184 -2.1155
    1OL     H4S 7169   3.121   3.800   3.941  1.4323  0.3357  1.8030
    1OL     C15 7170   3.041   3.901   4.114 -0.2096 -0.5078 -0.6324
    1OL     H5R 7171   3.082   3.838   4.193 -0.8862  1.0822  1.0772
    1OL     H5S 7172   2.941   3.936   4.140 -0.2592 -0.0870 -1.3537
    1OL     C16 7173   3.124   4.029   4.107 -0.2570 -0.1435  0.1772
    1OL     H6R 7174   3.111   4.082   4.012  1.0996  0.7279  0.4430
    1OL     H6S 7175   3.229   3.997   4.105 -0.6691 -1.6743  1.2774
    1OL     C17 7176   3.124   4.130   4.224  0.4392  0.2275 -0.2866
    1OL     H7R 7177   3.035   4.192   4.223 -0.4266 -0.9458  0.4357
    1OL     H7S 7178   3.209   4.198   4.214  1.4743 -0.9589  0.0873
    1OL     C18 7179   3.136   4.060   4.361 -0.4640  0.0522  0.3065
    1OL     H8R 7180   3.220   3.989   4.363 -0.1714  0.3587 -0.6809
    1OL     H8S 7181   3.058   3.984   4.374  0.1315 -0.6315 -0.0214
    1OL     C19 7182   3.136   4.158   4.472  0.2220 -0.5508 -0.3447
    1OL     H9R 7183   3.191   4.248   4.446  0.1345 -0.3214  0.2332
    1OL    C110 7184   3.075   4.148   4.590 -0.2109 -0.0468 -0.0896
    1OL    H10R 7185   3.087   4.232   4.659  3.1762 -0.7128  0.3160
    1OL    C111 7186   3.000   4.033   4.642  0.1394 -0.8891  0.0398
    1OL    H11R 7187   3.056   3.946   4.607  2.8585  0.2820  1.1865
    1OL    H11S 7188   2.898   4.024   4.603  0.5274 -1.5980 -0.8567
    1OL    C112 7189   2.993   4.035   4.794 -0.0451 -0.1213  0.6273
    1OL    H12R 7190   2.947   4.130   4.825 -0.2175  0.5561 -1.5165
    1OL    H12S 7191   3.096   4.035   4.829  0.3805  1.1097 -0.5124
    1OL    C113 7192   2.907   3.922   4.860  0.3446 -0.7542  0.2019
    1OL    H13R 7193   2.945   3.825   4.827  0.3233  0.0537 -2.4579
    1OL    H13S 7194   2.811   3.930   4.808  1.4379 -0.0404 -1.8390
    1OL    C114 7195   2.880   3.922   5.013  0.1122 -0.0498  0.0454
    1OL    H14R 7196   2.787   3.868   5.029 -0.2508  0.6821  0.4667
    1OL    H14S 7197   2.863   4.020   5.058  2.3437  1.3877 -2.0283
    1OL    C115 7198   2.983   3.838   5.096  0.1038  0.6327 -0.3529
    1OL    H15R 7199   2.992   3.743   5.044 -2.7141  1.8923 -3.4900
    1OL    H15S 7200   2.935   3.816   5.192 -0.9853  3.4454 -0.1589
    1OL    C116 7201   3.117   3.912   5.109  0.7514  0.2221  0.1876
    1OL    H16R 7202   3.168   3.906   5.013  1.7677 -2.0649  0.8094
    1OL    H16S 7203   3.186   3.857   5.173  0.2142 -0.6690  0.0123
    1OL    C117 7204   3.104   4.052   5.166  0.2261 -0.8607 -0.0432
    1OL    H17R 7205   3.027   4.037   5.243 -0.8660 -2.2109 -1.3247
    1OL    H17S 7206   3.079   4.130   5.094 -1.0434  0.2579  1.5268
    1OL    C118 7207   3.234   4.097   5.226 -0.5775 -0.2914 -0.0133
    1OL    H18R 7208   3.218   4.179   5.297  0.4017  0.2177 -0.3551
    1OL    H18S 7209   3.310   4.128   5.154  1.4402 -2.2063  1.1502
    1OL    H18T 7210   3.280   4.011   5.275 -1.0346 -0.8183 -0.5007
    1PA    C116 7211   3.205   1.864   4.723  0.4362 -0.3424  0.0614
    1PA    H16R 7212   3.213   1.971   4.704  0.7303 -0.2702  0.5665
    1PA    H16S 7213   3.119   1.838   4.785  0.9240  1.2147  1.4723
    1PA    H16T 7214   3.188   1.804   4.633 -1.3549  0.9846 -0.5301
    1PA    C115 7215   3.329   1.824   4.798  0.1549  0.2755 -0.4528
    1PA    H15R 7216   3.350   1.891   4.882  1.7632 -1.0514  0.2825
    1PA    H15S 7217   3.324   1.723   4.839  0.6979 -0.7269 -2.7110
    1PA    C114 7218   3.453   1.827   4.702  0.0213  0.0950 -0.5989
    1PA    H14R 7219   3.538   1.809   4.768 -0.3046  2.7332  0.6513
    1PA    H14S 7220   3.440   1.743   4.633 -3.0224 -0.0390  0.0015
    1PA    C113 7221   3.485   1.955   4.623  0.1135  0.4813 -0.2317
    1PA    H13R 7222   3.399   1.990   4.566  0.0226  0.0667 -0.3544
    1PA    H13S 7223   3.500   2.034   4.697  0.1786  2.9550 -2.7156
    1PA    C112 7224   3.603   1.919   4.528 -0.3879 -0.0413  0.5877
    1PA    H12R 7225   3.697   1.919   4.583 -0.5805 -1.0056  0.9371
    1PA    H12S 7226   3.582   1.817   4.496  0.6437 -0.7747  2.1197
    1PA    C111 7227   3.621   2.027   4.416 -0.0785 -0.3624  0.4681
    1PA    H11R 7228   3.694   1.998   4.339  0.6172 -1.4739  1.5029
    1PA    H11S 7229   3.530   2.042   4.358  0.8226 -2.1662 -1.5741
    1PA    C110 7230   3.663   2.164   4.465 -0.3773  0.3015 -0.4663
    1PA    H10R 7231   3.588   2.199   4.536  0.3259 -1.2013  1.0747
    1PA    H10S 7232   3.753   2.145   4.524 -1.3840 -1.2975  0.6295
    1PA     C19 7233   3.683   2.273   4.362  0.7898  0.2812  0.0036
    1PA     H9R 7234   3.587   2.292   4.313  1.3885 -0.6713 -1.5991
    1PA     H9S 7235   3.719   2.366   4.406  2.2597  0.3798 -1.3160
    1PA     C18 7236   3.781   2.234   4.256  0.6137 -0.0790  0.2939
    1PA     H8R 7237   3.858   2.170   4.299  0.2952 -0.5900  0.1102
    1PA     H8S 7238   3.721   2.170   4.191 -1.6902  1.9258  0.2944
    1PA     C17 7239   3.853   2.347   4.179 -0.0676 -0.2737 -0.3038
    1PA     H7R 7240   3.778   2.407   4.127  1.0539  1.2969 -0.1458
    1PA     H7S 7241   3.902   2.415   4.248 -2.4645  0.4822  0.7702
    1PA     C16 7242   3.954   2.284   4.081  0.8078 -0.0974 -0.7577
    1PA     H6R 7243   4.038   2.237   4.132  2.0286 -0.3041 -2.8348
    1PA     H6S 7244   3.900   2.206   4.029  1.7044 -0.4028 -1.2556
    1PA     C15 7245   4.003   2.381   3.972 -0.1670 -0.2686  0.2435
    1PA     H5R 7246   4.027   2.480   4.010  0.4189  0.2524 -1.3914
    1PA     H5S 7247   4.090   2.338   3.921  1.6520  1.5035  1.7129
    1PA     C14 7248   3.894   2.418   3.877  0.5487 -0.1930  0.6020
    1PA     H4R 7249   3.871   2.323   3.827  0.3518  0.0871  0.1520
    1PA     H4S 7250   3.804   2.448   3.931  0.2247  1.2860 -0.6839
    1PA     C13 7251   3.928   2.518   3.766 -0.2845 -0.4047 -0.2556
    1PA     H3R 7252   3.848   2.520   3.691  0.4004 -0.8090 -1.0054
    1PA     H3S 7253   3.937   2.619   3.806  1.6401  0.8415 -3.4326
    1PA     C12 7254   4.060   2.488   3.696 -0.8183 -0.0637  0.1442
    1PA     H2R 7255   4.138   2.502   3.772 -1.1067  0.8544  0.2906
    1PA     H2S 7256   4.066   2.387   3.656 -0.4583 -0.5479  1.3657
    1PC     C11 7257   4.077   2.583   3.578 -0.6087  0.2745  0.2049
    1PC     O12 7258   4.181   2.644   3.562 -0.3528 -0.1307  0.5035
    1PC     O11 7259   3.972   2.600   3.492  0.7115 -0.8644  0.1567
    1PC      C1 7260   3.980   2.677   3.371 -0.6443 -0.2172  0.2698
    1PC      HR 7261   4.001   2.784   3.384  2.6828 -0.4237 -2.0946
    1PC      HS 7262   4.062   2.629   3.316  0.5048  0.2162  1.5309
    1PC      C2 7263   3.851   2.650   3.286 -0.4828 -0.3228  0.0836
    1PC      HX 7264   3.874   2.555   3.236 -0.4734 -1.2668  1.7737
    1PC      C3 7265   3.831   2.753   3.177 -0.6235  0.3955  0.4322
    1PC      HA 7266   3.773   2.832   3.225 -0.8629 -0.9473  2.4917
    1PC      HB 7267   3.925   2.800   3.147 -1.6200  1.3052 -1.4294
    1PC     O31 7268   3.764   2.695   3.063  0.5593  0.8591  0.6595
    1PC     P31 7269   3.849   2.632   2.942 -0.4038 -0.6895 -0.0187
    1PC     O32 7270   3.927   2.759   2.889 -0.1551  0.2403 -0.4465
    1PC     C31 7271   4.067   2.756   2.841 -0.4130 -0.2349 -0.6659
    1PC     H1A 7272   4.124   2.704   2.919 -1.9037  0.8211  1.2419
    1PC     H1B 7273   4.065   2.692   2.753  0.0580 -1.0770 -0.0828
    1PC     C32 7274   4.118   2.899   2.818  0.3600 -0.3290 -0.2448
    1PC     H2A 7275   4.047   2.963   2.763  0.4737  0.1270  0.1340
    1PC     H2B 7276   4.130   2.939   2.918 -0.8285 -1.3441  0.3299
    1PC     N31 7277   4.248   2.916   2.743  0.4446  0.0910 -0.2180
    1PC     C33 7278   4.310   3.052   2.780 -0.1818  0.2013 -0.7023
    1PC     H3A 7279   4.386   3.076   2.705 -0.3609  0.3569 -0.8380
    1PC     H3B 7280   4.223   3.118   2.768  0.7524  1.1376 -2.9975
    1PC     H3C 7281   4.340   3.044   2.884 -2.0441  1.5081 -0.0193
    1PC     C34 7282   4.349   2.818   2.793  0.9759 -0.4009 -0.3492
    1PC     H4A 7283   4.451   2.853   2.776  1.3187  0.0046  2.1344
    1PC     H4B 7284   4.335   2.808   2.901  0.9556  1.9103 -0.0917
    1PC     H4C 7285   4.317   2.731   2.736 -1.8961  0.6097 -0.4638
    1PC     C35 7286   4.228   2.917   2.597 -0.0559 -0.0917  0.5427
    1PC     H5A 7287   4.330   2.919   2.559 -0.6712  2.2129 -1.2420
    1PC     H5B 7288   4.164   2.999   2.565 -1.5029 -1.3263  0.1529
    1PC     H5C 7289   4.182   2.824   2.563  1.7650 -0.9967  0.4392
    1PC     O33 7290   3.950   2.530   2.971 -0.1156 -0.3512 -0.4733
    1PC     O34 7291   3.753   2.597   2.833  0.6639 -0.9765  0.0994
    1PC     O21 7292   3.737   2.657   3.367 -0.2526  0.2936  0.4267
    1PC     C21 7293   3.683   2.545   3.412  0.3515 -0.2014  0.2625
    1PC     O22 7294   3.732   2.434   3.388  0.2133 -0.5863 -0.1335
    1OL     C12 7295   3.569   2.569   3.510 -0.3001  0.1128 -0.9393
    1OL     H2R 7296   3.474   2.607   3.471 -0.7759  0.9448  0.9026
    1OL     H2S 7297   3.594   2.656   3.572 -3.1912 -0.0364  0.5935
    1OL     C13 7298   3.551   2.444   3.597  0.7349  0.7526 -0.8294
    1OL     H3R 7299   3.636   2.437   3.666 -0.9221  0.2732  1.2536
    1OL     H3S 7300   3.539   2.357   3.533 -0.1340 -0.8732  1.4002
    1OL     C14 7301   3.438   2.465   3.702  0.0806 -0.2236  0.7114
    1OL     H4R 7302   3.350   2.446   3.639  0.1545  0.3310  0.4246
    1OL     H4S 7303   3.454   2.570   3.730  0.4195 -0.4847  1.5090
    1OL     C15 7304   3.421   2.370   3.822  0.0539  0.4469  0.2604
    1OL     H5R 7305   3.439   2.265   3.798  0.7985  0.5271  0.4329
    1OL     H5S 7306   3.321   2.361   3.864 -0.2920  1.8418 -0.2206
    1OL     C16 7307   3.516   2.388   3.938 -0.1277  0.9496  0.2008
    1OL     H6R 7308   3.618   2.368   3.902  0.3639  0.5236  1.7441
    1OL     H6S 7309   3.494   2.319   4.020  1.2211  0.8232  0.4893
    1OL     C17 7310   3.535   2.535   3.998 -0.3229  0.4851 -0.8569
    1OL     H7R 7311   3.587   2.596   3.924 -0.3018  0.3958 -0.9163
    1OL     H7S 7312   3.602   2.544   4.084 -0.9771  0.7943 -0.3711
    1OL     C18 7313   3.394   2.593   4.035  0.6445 -0.3631  0.1943
    1OL     H8R 7314   3.342   2.527   4.105 -1.2944 -0.0523 -0.8825
    1OL     H8S 7315   3.326   2.598   3.950  0.3149 -3.3939  0.1457
    1OL     C19 7316   3.416   2.731   4.095  1.0540  0.4010  0.2604
    1OL     H9R 7317   3.444   2.813   4.029  0.8196 -0.7293 -1.3233
    1OL    C110 7318   3.400   2.761   4.223 -0.3709 -0.0880 -0.2207
    1OL    H10R 7319   3.422   2.863   4.254 -1.0745  0.2766 -0.8866
    1OL    C111 7320   3.349   2.674   4.332 -0.3821  0.7740  0.9541
    1OL    H11R 7321   3.272   2.604   4.300  0.2175 -0.6055  2.3491
    1OL    H11S 7322   3.294   2.734   4.405 -1.6922 -0.4603  1.0183
    1OL    C112 7323   3.453   2.587   4.403 -0.5501 -0.3885  0.1060
    1OL    H12R 7324   3.530   2.656   4.436 -0.3398 -0.5388 -0.0708
    1OL    H12S 7325   3.490   2.514   4.331  0.5579  1.2694 -1.0555
    1OL    C113 7326   3.411   2.499   4.524  0.4439 -0.7001  0.7819
    1OL    H13R 7327   3.373   2.569   4.599 -0.6199 -0.7393  0.2824
    1OL    H13S 7328   3.500   2.451   4.566  1.9678  0.1774 -1.2764
    1OL    C114 7329   3.314   2.386   4.485 -0.8704 -0.4425 -0.0110
    1OL    H14R 7330   3.360   2.337   4.399  2.4758  1.6926  0.3633
    1OL    H14S 7331   3.224   2.439   4.453 -0.8406  1.7286  3.0647
    1OL    C115 7332   3.275   2.298   4.599 -0.8293 -0.3408 -0.1858
    1OL    H15R 7333   3.362   2.257   4.649 -0.5871 -0.3146 -0.5809
    1OL    H15S 7334   3.222   2.209   4.564  2.0972 -2.3908  0.1991
    1OL    C116 7335   3.188   2.364   4.705  0.4882  0.3148  0.6341
    1OL    H16R 7336   3.121   2.427   4.647  1.7940  1.4739  0.3219
    1OL    H16S 7337   3.253   2.433   4.758  0.2216  0.5017  0.7188
    1OL    C117 7338   3.117   2.265   4.800 -0.6684 -0.3644  0.4737
    1OL    H17R 7339   3.081   2.177   4.745 -0.6406 -0.4884  0.6548
    1OL    H17S 7340   3.034   2.307   4.857 -0.6467 -1.5665  1.4470
    1OL    C118 7341   3.218   2.233   4.905 -0.2402  0.1751 -0.3058
    1OL    H18R 7342   3.182   2.175   4.990  1.5376 -0.2533  0.1945
    1OL    H18S 7343   3.256   2.328   4.943  0.2172  0.0488 -0.4380
    1OL    H18T 7344   3.305   2.182   4.865  0.7572  0.5559  1.2893
    1PA    C116 7345   3.415   3.051   5.309  0.0194  0.3342 -0.9207
    1PA    H16R 7346   3.396   3.158   5.309 -2.0490  0.1019  2.4964
    1PA    H16S 7347   3.398   3.021   5.412  1.6304  0.0620 -0.7035
    1PA    H16T 7348   3.347   3.005   5.237 -0.5443  0.9770 -0.8121
    1PA    C115 7349   3.559   3.022   5.267 -0.4094  0.3600 -0.4215
    1PA    H15R 7350   3.624   3.067   5.342 -1.0358  0.7003 -0.0732
    1PA    H15S 7351   3.559   2.913   5.271 -0.5752  0.3829  0.2968
    1PA    C114 7352   3.577   3.069   5.117 -0.4679 -0.3499  0.2147
    1PA    H14R 7353   3.529   3.163   5.089  0.3698 -0.2196 -0.8592
    1PA    H14S 7354   3.685   3.075   5.098 -0.3280 -0.3112  0.9848
    1PA    C113 7355   3.532   2.971   5.010  0.2072 -0.1460 -0.1420
    1PA    H13R 7356   3.583   2.875   5.021  0.6081  0.1654  0.9081
    1PA    H13S 7357   3.426   2.948   5.027  0.3454  0.8604  2.8351
    1PA    C112 7358   3.542   3.039   4.864 -0.1665 -0.0589 -0.4412
    1PA    H12R 7359   3.494   3.137   4.860 -1.6881 -0.7590 -0.2353
    1PA    H12S 7360   3.649   3.059   4.852  0.6824  0.4904  5.3427
    1PA    C111 7361   3.495   2.947   4.744  1.0067 -0.4833  0.4775
    1PA    H11R 7362   3.533   2.846   4.758  1.3997 -0.0854  2.5081
    1PA    H11S 7363   3.386   2.945   4.736  1.0234  0.4752 -0.2082
    1PA    C110 7364   3.535   3.004   4.607  0.9163  0.3097 -0.4173
    1PA    H10R 7365   3.642   2.980   4.609  0.4301 -2.0293  0.1303
    1PA    H10S 7366   3.487   2.941   4.533  1.4059 -0.5528 -0.0193
    1PA     C19 7367   3.517   3.151   4.564 -0.3776 -0.2825  0.2216
    1PA     H9R 7368   3.415   3.192   4.569 -0.1908  0.1676  0.4269
    1PA     H9S 7369   3.569   3.208   4.641 -0.8820 -0.6709  0.8622
    1PA     C18 7370   3.567   3.189   4.420  0.1010  0.6283  0.2601
    1PA     H8R 7371   3.553   3.296   4.402  1.6715  0.8649  0.3016
    1PA     H8S 7372   3.676   3.184   4.425  0.0608 -2.2806 -0.0623
    1PA     C17 7373   3.504   3.099   4.298 -0.0423 -0.2048 -0.1371
    1PA     H7R 7374   3.549   3.000   4.295 -3.0541 -1.7063  0.1990
    1PA     H7S 7375   3.399   3.082   4.323  0.4320  1.0864  3.1789
    1PA     C16 7376   3.511   3.166   4.159  0.0898 -0.0724 -0.2681
    1PA     H6R 7377   3.444   3.252   4.151  1.4928  1.1832  0.7403
    1PA     H6S 7378   3.617   3.188   4.144  1.1933 -4.8953 -1.3018
    1PA     C15 7379   3.477   3.069   4.044 -0.0065 -0.3093  0.3622
    1PA     H5R 7380   3.542   2.984   4.064  0.3938  0.2128  1.3568
    1PA     H5S 7381   3.376   3.029   4.058 -0.4750  1.1851  1.6230
    1PA     C14 7382   3.476   3.117   3.897  0.0697  0.0180 -0.1394
    1PA     H4R 7383   3.393   3.187   3.883 -1.0611 -1.2113  0.1281
    1PA     H4S 7384   3.573   3.162   3.878  0.2547 -0.7802 -1.1835
    1PA     C13 7385   3.449   3.000   3.793  0.6232 -1.3632 -0.9929
    1PA     H3R 7386   3.534   2.932   3.790  2.0363 -0.0349  2.8442
    1PA     H3S 7387   3.357   2.948   3.821  0.0243  0.8545  1.6149
    1PA     C12 7388   3.412   3.052   3.654  0.2604 -0.0749 -0.4247
    1PA     H2R 7389   3.413   2.969   3.582  0.7372  1.6945 -2.5602
    1PA     H2S 7390   3.311   3.094   3.651 -0.3358 -1.3527  0.4648
    1PC     C11 7391   3.507   3.159   3.602  0.4566  0.6291 -0.2757
    1PC     O12 7392   3.602   3.141   3.527  0.5324  0.6893 -0.7841
    1PC     O11 7393   3.453   3.281   3.626  0.0143 -0.1194  0.2638
    1PC      C1 7394   3.505   3.392   3.548 -0.2724  0.4116  0.3099
    1PC      HR 7395   3.614   3.390   3.547 -0.2365 -1.7250 -1.8687
    1PC      HS 7396   3.479   3.373   3.443  1.3077 -0.1107 -0.0169
    1PC      C2 7397   3.448   3.528   3.599 -0.5141  0.3991 -0.5638
    1PC      HX 7398   3.339   3.523   3.596 -0.4661 -0.9908 -0.6858
    1PC      C3 7399   3.500   3.660   3.533 -0.1349  0.0663  0.4502
    1PC      HA 7400   3.426   3.702   3.464 -0.0287  2.3337  1.6184
    1PC      HB 7401   3.517   3.727   3.617  2.9755 -0.5665  0.4518
    1PC     O31 7402   3.625   3.637   3.468 -0.5242 -0.3504  0.2974
    1PC     P31 7403   3.636   3.628   3.305  0.0603 -0.1653 -0.2867
    1PC     O32 7404   3.625   3.776   3.252 -0.2347 -0.3327 -0.6003
    1PC     C31 7405   3.736   3.856   3.214 -0.0193 -0.4272 -0.1912
    1PC     H1A 7406   3.791   3.785   3.151  0.2451 -0.6283  0.2643
    1PC     H1B 7407   3.705   3.941   3.152  1.4493  1.1599  1.1350
    1PC     C32 7408   3.818   3.903   3.336  0.4406 -0.1017  0.2647
    1PC     H2A 7409   3.829   3.816   3.401 -1.4666 -0.8758 -0.3559
    1PC     H2B 7410   3.920   3.926   3.306  0.0674  0.0066 -0.9777
    1PC     N31 7411   3.750   4.028   3.395 -0.1127 -0.0934  0.0699
    1PC     C33 7412   3.611   4.018   3.444 -0.5064  0.3568  0.1221
    1PC     H3A 7413   3.575   4.117   3.470  1.5157  1.2812 -0.3580
    1PC     H3B 7414   3.554   3.970   3.364  0.7049  0.6383 -0.9465
    1PC     H3C 7415   3.598   3.955   3.532 -1.9998  1.1399  0.4999
    1PC     C34 7416   3.833   4.072   3.514  0.1696 -0.4751 -0.0635
    1PC     H4A 7417   3.936   4.056   3.483  0.6185 -1.7213  1.9141
    1PC     H4B 7418   3.809   4.173   3.548 -0.2206 -0.8271  0.7190
    1PC     H4C 7419   3.817   4.000   3.594  1.1360 -1.8368 -1.0616
    1PC     C35 7420   3.754   4.140   3.295  0.7674 -0.7670  0.1078
    1PC     H5A 7421   3.851   4.186   3.276  0.3045  0.2663  0.1739
    1PC     H5B 7422   3.688   4.223   3.321  0.8403 -0.0961 -1.7432
    1PC     H5C 7423   3.724   4.109   3.195 -1.6912  1.9305 -0.1195
    1PC     O33 7424   3.768   3.565   3.268  0.7443 -0.0040 -0.2508
    1PC     O34 7425   3.511   3.555   3.262  0.2697  0.0747  0.7889
    1PC     O21 7426   3.479   3.543   3.741  0.4486 -0.1947 -0.1435
    1PC     C21 7427   3.418   3.643   3.814 -0.5212  0.0679 -0.2283
    1PC     O22 7428   3.320   3.701   3.778  0.2649  0.1851 -0.6445
    1OL     C12 7429   3.468   3.645   3.958 -0.3141 -0.1981  0.0219
    1OL     H2R 7430   3.458   3.746   4.000  2.4590  0.1360  0.0890
    1OL     H2S 7431   3.574   3.617   3.957 -0.3806 -0.4425 -0.4994
    1OL     C13 7432   3.378   3.550   4.043 -0.0006 -0.0014  0.1260
    1OL     H3R 7433   3.359   3.453   3.996  2.4577 -0.2934 -0.4364
    1OL     H3S 7434   3.279   3.594   4.050  0.0822  0.2127 -0.0294
    1OL     C14 7435   3.431   3.513   4.186  0.4315  0.2120  0.6316
    1OL     H4R 7436   3.524   3.455   4.175 -0.8490 -1.6565 -1.3889
    1OL     H4S 7437   3.365   3.442   4.236  1.1686 -0.5979  0.5054
    1OL     C15 7438   3.476   3.636   4.263 -0.1188 -0.3556 -0.1745
    1OL     H5R 7439   3.548   3.695   4.206 -0.9619  2.2793  1.3376
    1OL     H5S 7440   3.526   3.612   4.357  0.1382 -0.3731 -0.3137
    1OL     C16 7441   3.359   3.729   4.315  0.1816  0.1786  0.7235
    1OL     H6R 7442   3.313   3.777   4.228 -1.6428  0.2659  1.6878
    1OL     H6S 7443   3.385   3.814   4.378  0.0878  0.5383  0.2801
    1OL     C17 7444   3.242   3.663   4.382 -0.3312 -0.5298  0.2005
    1OL     H7R 7445   3.207   3.574   4.329  1.0396 -2.3769  2.2095
    1OL     H7S 7446   3.158   3.732   4.387 -0.3314 -0.1370 -2.9882
    1OL     C18 7447   3.256   3.617   4.527  0.2229  0.1296  0.4661
    1OL     H8R 7448   3.354   3.572   4.542 -0.2551 -1.8122 -1.7536
    1OL     H8S 7449   3.177   3.548   4.556 -0.0325 -0.0485 -0.6184
    1OL     C19 7450   3.247   3.732   4.616 -0.0400 -0.2426 -0.6641
    1OL     H9R 7451   3.257   3.827   4.563  0.3917 -0.7222 -1.4582
    1OL    C110 7452   3.248   3.721   4.748 -0.5829 -0.1112  0.1767
    1OL    H10R 7453   3.241   3.813   4.805  0.1982  0.8347 -1.1933
    1OL    C111 7454   3.230   3.588   4.832 -0.0429 -0.0552 -0.6391
    1OL    H11R 7455   3.192   3.507   4.770  0.1056  1.0117 -2.1679
    1OL    H11S 7456   3.148   3.611   4.901  0.9878  1.9845  0.0055
    1OL    C112 7457   3.346   3.555   4.926 -0.2213 -0.2585 -0.5118
    1OL    H12R 7458   3.307   3.492   5.006  0.5754  0.0112  0.1044
    1OL    H12S 7459   3.380   3.648   4.973  3.7394 -1.6798 -0.1612
    1OL    C113 7460   3.460   3.484   4.854  0.4045  1.0790 -0.2237
    1OL    H13R 7461   3.493   3.547   4.771  2.1138  1.0618  0.3994
    1OL    H13S 7462   3.419   3.398   4.801  1.7747 -0.1726  0.6713
    1OL    C114 7463   3.581   3.441   4.946 -0.2890 -0.2439  0.0168
    1OL    H14R 7464   3.533   3.377   5.020 -0.1260 -0.0471  0.2939
    1OL    H14S 7465   3.620   3.533   4.989  0.7610  1.0726 -3.3872
    1OL    C115 7466   3.698   3.364   4.886 -0.5306  0.0061 -0.5549
    1OL    H15R 7467   3.726   3.409   4.791 -2.0731 -0.5985 -1.3191
    1OL    H15S 7468   3.652   3.268   4.862  0.5605 -1.2737  1.9962
    1OL    C116 7469   3.819   3.337   4.986 -0.1946  0.0094 -0.2911
    1OL    H16R 7470   3.794   3.289   5.081  1.8010  2.4934  1.6126
    1OL    H16S 7471   3.864   3.434   5.006  0.8623 -0.6949  0.8042
    1OL    C117 7472   3.930   3.257   4.923  0.4643  0.4984 -0.2554
    1OL    H17R 7473   3.882   3.166   4.887 -0.4990  1.5959 -1.9345
    1OL    H17S 7474   4.013   3.241   4.991  1.1770  3.1436 -0.3663
    1OL    C118 7475   3.988   3.333   4.804 -0.7765  0.5589  0.1302
    1OL    H18R 7476   3.922   3.346   4.718  1.9705  3.2180 -1.7663
    1OL    H18S 7477   4.081   3.292   4.763  0.6585  3.0536  0.6896
    1OL    H18T 7478   4.008   3.435   4.837  0.2219  0.6610 -0.7215
    1PA    C116 7479   4.402   0.702   5.034  0.0972  0.8169  0.0947
    1PA    H16R 7480   4.337   0.734   5.116  1.5165  1.1438  1.1227
    1PA    H16S 7481   4.498   0.754   5.041  1.3657 -1.4921  0.5390
    1PA    H16T 7482   4.425   0.596   5.045  2.0304  1.1505 -0.4415
    1PA    C115 7483   4.340   0.734   4.901  0.1222 -0.1746  0.2590
    1PA    H15R 7484   4.286   0.829   4.899  0.9901  0.4016  2.0605
    1PA    H15S 7485   4.427   0.750   4.837 -0.8130 -3.0312 -1.9390
    1PA    C114 7486   4.252   0.621   4.846 -0.2565 -0.5479 -0.4340
    1PA    H14R 7487   4.305   0.526   4.850  1.2697  0.3025  0.2370
    1PA    H14S 7488   4.171   0.600   4.916 -1.6418  0.1615 -1.7629
    1PA    C113 7489   4.182   0.657   4.716  0.2363 -0.0224 -0.3245
    1PA    H13R 7490   4.110   0.584   4.679  1.3312 -0.8575 -0.8556
    1PA    H13S 7491   4.129   0.752   4.727  0.8151  0.4190 -1.2165
    1PA    C112 7492   4.282   0.688   4.598  0.2057 -0.1044 -0.0664
    1PA    H12R 7493   4.354   0.768   4.615 -0.8497  1.2314 -1.6598
    1PA    H12S 7494   4.336   0.598   4.568 -0.5778 -0.5186 -0.2833
    1PA    C111 7495   4.192   0.726   4.482  0.1475 -0.1627  0.3649
    1PA    H11R 7496   4.112   0.655   4.461 -2.0416  1.7290  1.7044
    1PA    H11S 7497   4.130   0.813   4.506  1.5691  1.1206 -0.4980
    1PA    C110 7498   4.269   0.761   4.349 -0.4448  0.3857 -0.1284
    1PA    H10R 7499   4.338   0.844   4.367 -2.1333  2.3968 -2.3900
    1PA    H10S 7500   4.321   0.670   4.321  2.0656  1.8474 -0.5301
    1PA     C19 7501   4.184   0.807   4.228 -0.2226  0.6669  0.0852
    1PA     H9R 7502   4.094   0.745   4.224  0.4564 -0.4097  0.8429
    1PA     H9S 7503   4.143   0.907   4.245 -3.8127 -0.8338  1.2397
    1PA     C18 7504   4.257   0.810   4.095 -0.1421 -0.4512  0.3472
    1PA     H8R 7505   4.333   0.887   4.115 -0.0525 -0.9138  1.9628
    1PA     H8S 7506   4.306   0.714   4.079  1.8675  0.7673 -1.3487
    1PA     C17 7507   4.162   0.849   3.978 -0.8964 -0.0312  0.3949
    1PA     H7R 7508   4.074   0.785   3.969  1.2321 -3.1908  0.2490
    1PA     H7S 7509   4.126   0.951   3.995  1.8377  1.1536 -0.3335
    1PA     C16 7510   4.248   0.839   3.842  0.4376 -0.2300  0.3352
    1PA     H6R 7511   4.339   0.899   3.838  0.9692 -1.0566 -0.3323
    1PA     H6S 7512   4.289   0.738   3.835 -0.8451 -0.7930  0.5457
    1PA     C15 7513   4.170   0.870   3.715  0.0167 -1.0177  0.4219
    1PA     H5R 7514   4.226   0.848   3.624 -1.8718  1.7571 -1.5529
    1PA     H5S 7515   4.085   0.802   3.708  1.0597 -2.2166 -4.0409
    1PA     C14 7516   4.133   1.020   3.717  0.8635  0.0811  0.5721
    1PA     H4R 7517   4.086   1.055   3.810 -0.0767  0.4973 -0.0456
    1PA     H4S 7518   4.226   1.076   3.708  1.0265 -0.0720  1.2530
    1PA     C13 7519   4.036   1.049   3.596 -0.4278  0.1179  0.2164
    1PA     H3R 7520   4.080   1.000   3.509  0.4494  0.6566  0.3481
    1PA     H3S 7521   3.940   1.001   3.614  0.6102 -2.4909 -0.8187
    1PA     C12 7522   4.011   1.195   3.554  0.4828 -0.3410  0.4158
    1PA     H2R 7523   3.946   1.241   3.629 -0.2746  0.2314 -0.5799
    1PA     H2S 7524   4.110   1.243   3.554 -0.8697  2.6724  0.3720
    1PC     C11 7525   3.944   1.209   3.415  0.1763  0.6510 -0.6500
    1PC     O12 7526   3.898   1.124   3.341 -0.7969  0.3484  0.1127
    1PC     O11 7527   3.934   1.338   3.391  0.0902 -0.0397  0.4602
    1PC      C1 7528   3.863   1.390   3.270  0.2607  0.6388  0.6947
    1PC      HR 7529   3.891   1.492   3.245  0.2808  0.1471 -1.5069
    1PC      HS 7530   3.891   1.320   3.191  1.3117  0.8169  0.8935
    1PC      C2 7531   3.716   1.370   3.283  0.1609 -0.3155 -0.2075
    1PC      HX 7532   3.673   1.273   3.310 -1.0322  0.2578  0.0395
    1PC      C3 7533   3.646   1.397   3.147 -0.9343  0.8736  0.0064
    1PC      HA 7534   3.671   1.318   3.076 -1.2833  1.1072 -0.3902
    1PC      HB 7535   3.539   1.413   3.166 -0.9405  0.0682  0.6692
    1PC     O31 7536   3.696   1.520   3.078  0.2138 -0.4164 -0.0815
    1PC     P31 7537   3.751   1.524   2.922 -0.5184  0.1809 -0.0158
    1PC     O32 7538   3.630   1.511   2.829  0.0417  0.2086 -0.3030
    1PC     C31 7539   3.580   1.392   2.778  0.0003  0.1311  0.0199
    1PC     H1A 7540   3.665   1.325   2.758 -0.6782 -0.2930 -1.6640
    1PC     H1B 7541   3.517   1.342   2.852 -0.6968  1.5376  0.3914
    1PC     C32 7542   3.495   1.419   2.653 -0.0830  0.3381 -0.0240
    1PC     H2A 7543   3.468   1.322   2.610 -0.2757  1.2772 -2.1326
    1PC     H2B 7544   3.403   1.459   2.697  0.3129  0.0009  1.1270
    1PC     N31 7545   3.541   1.521   2.545 -0.0788 -0.5885 -0.1866
    1PC     C33 7546   3.687   1.518   2.531 -0.0305 -0.0157  0.4056
    1PC     H3A 7547   3.730   1.541   2.628  0.5540 -0.5060  0.2711
    1PC     H3B 7548   3.707   1.414   2.503  1.8757  0.3446  0.3497
    1PC     H3C 7549   3.706   1.588   2.450  0.4299  0.6809  1.1013
    1PC     C34 7550   3.488   1.483   2.413 -0.6104  0.2820 -0.1624
    1PC     H4A 7551   3.380   1.500   2.410 -0.7433 -0.4397  0.3357
    1PC     H4B 7552   3.532   1.552   2.341  1.6334  0.3378  1.1917
    1PC     H4C 7553   3.516   1.381   2.387 -1.5297  0.3865 -1.7074
    1PC     C35 7554   3.498   1.663   2.572 -0.4365 -0.1320 -0.4768
    1PC     H5A 7555   3.541   1.719   2.488 -0.6537 -1.8783 -1.8266
    1PC     H5B 7556   3.527   1.709   2.666 -1.1590  1.0581 -0.8075
    1PC     H5C 7557   3.389   1.658   2.563 -0.9414  2.4843  2.6322
    1PC     O33 7558   3.820   1.657   2.892  0.2152 -0.1343 -0.3077
    1PC     O34 7559   3.832   1.405   2.904 -0.0577  0.3142  0.5266
    1PC     O21 7560   3.686   1.475   3.385  0.6524  0.7963  0.4223
    1PC     C21 7561   3.647   1.437   3.510  0.4348 -0.5516  0.4388
    1PC     O22 7562   3.622   1.324   3.547  0.1270 -0.4642  0.2477
    1OL     C12 7563   3.623   1.555   3.597 -0.3295 -0.1695  0.2152
    1OL     H2R 7564   3.548   1.623   3.557  0.9273  0.9591 -0.2668
    1OL     H2S 7565   3.715   1.614   3.598  0.0899 -0.8154  0.6521
    1OL     C13 7566   3.582   1.519   3.738  0.2682 -0.1337 -0.3945
    1OL     H3R 7567   3.503   1.444   3.730  0.9116 -1.4221  3.2997
    1OL     H3S 7568   3.553   1.608   3.794 -0.2262 -1.4945  1.6079
    1OL     C14 7569   3.693   1.452   3.821  0.1299  0.0446 -0.6492
    1OL     H4R 7570   3.770   1.525   3.848  0.1370  0.3294 -1.4345
    1OL     H4S 7571   3.737   1.369   3.765  1.7863  1.9007 -2.2284
    1OL     C15 7572   3.652   1.405   3.963  0.0173 -0.1004  0.4831
    1OL     H5R 7573   3.566   1.339   3.952  0.3304 -0.4815  0.2539
    1OL     H5S 7574   3.613   1.488   4.022 -0.5637 -0.1111  0.1144
    1OL     C16 7575   3.769   1.332   4.039 -0.4466 -0.0472  0.7449
    1OL     H6R 7576   3.773   1.360   4.145 -0.7305 -1.2015  1.0745
    1OL     H6S 7577   3.862   1.361   3.989 -0.8537 -0.1373 -0.0876
    1OL     C17 7578   3.771   1.178   4.044 -0.8908 -1.0624  0.4587
    1OL     H7R 7579   3.871   1.158   4.084  0.4123 -1.2200 -2.6103
    1OL     H7S 7580   3.772   1.133   3.944  2.4386  0.3510 -0.2735
    1OL     C18 7581   3.672   1.107   4.143  0.2564  0.2884 -0.3336
    1OL     H8R 7582   3.568   1.125   4.115 -0.2659  0.3400  1.5471
    1OL     H8S 7583   3.693   1.147   4.242  1.0778 -0.7038 -0.0881
    1OL     C19 7584   3.693   0.958   4.128 -0.0879  0.1487 -0.3785
    1OL     H9R 7585   3.653   0.922   4.033 -0.5859 -0.6899  0.1349
    1OL    C110 7586   3.763   0.880   4.205  0.6592 -0.2605 -0.2681
    1OL    H10R 7587   3.789   0.784   4.160  3.3871  0.4466 -0.3790
    1OL    C111 7588   3.825   0.908   4.343  0.1976 -0.2056 -0.1535
    1OL    H11R 7589   3.814   1.014   4.363 -3.6699 -0.3431 -0.6761
    1OL    H11S 7590   3.931   0.883   4.340 -0.0944 -1.5317 -0.2442
    1OL    C112 7591   3.747   0.817   4.441  0.1705  0.3444 -0.4293
    1OL    H12R 7592   3.742   0.714   4.406 -2.1083  0.6012 -0.9974
    1OL    H12S 7593   3.642   0.846   4.440 -0.0519 -0.4460 -0.2791
    1OL    C113 7594   3.819   0.835   4.578  0.7243  0.7836 -0.1216
    1OL    H13R 7595   3.854   0.936   4.602 -1.6600  1.8802 -0.9233
    1OL    H13S 7596   3.902   0.765   4.586 -0.0366 -0.0678  0.6390
    1OL    C114 7597   3.726   0.803   4.693 -0.8039 -0.7889  0.3930
    1OL    H14R 7598   3.660   0.889   4.705  2.1114  1.5954  0.4706
    1OL    H14S 7599   3.789   0.799   4.782 -0.2912  0.8686  0.1344
    1OL    C115 7600   3.643   0.669   4.687 -0.2172 -0.7403  0.3133
    1OL    H15R 7601   3.705   0.585   4.655 -0.7380 -1.1264  0.2982
    1OL    H15S 7602   3.570   0.675   4.606 -0.5249 -1.8777  0.4905
    1OL    C116 7603   3.570   0.628   4.816  0.4521  0.0266 -0.1658
    1OL    H16R 7604   3.499   0.551   4.784  0.6335 -0.2464  0.0963
    1OL    H16S 7605   3.507   0.707   4.858 -0.5043 -0.6826 -0.2386
    1OL    C117 7606   3.633   0.546   4.931 -0.2769 -0.4891 -0.1122
    1OL    H17R 7607   3.546   0.521   4.991 -1.8333  1.6695 -1.3347
    1OL    H17S 7608   3.699   0.621   4.976  0.8392  0.5641 -3.2524
    1OL    C118 7609   3.714   0.421   4.883  0.0747 -0.1227  0.0453
    1OL    H18R 7610   3.789   0.453   4.811 -0.7673  1.2436 -0.2461
    1OL    H18S 7611   3.646   0.350   4.835  3.1588 -3.6479  0.4003
    1OL    H18T 7612   3.769   0.366   4.961  0.8296  0.2273 -0.2298
    1PA    C116 7613   0.230   2.624   4.675 -0.2288  0.1960 -0.9135
    1PA    H16R 7614   0.214   2.723   4.719  0.9504  0.5447 -1.2272
    1PA    H16S 7615   0.187   2.545   4.735  1.6305 -0.4600 -0.3755
    1PA    H16T 7616   0.177   2.622   4.580 -0.2463 -0.7166 -0.8880
    1PA    C115 7617   0.388   2.618   4.672  0.4041 -0.5678  0.6221
    1PA    H15R 7618   0.429   2.619   4.773 -2.6501  1.4736  1.9816
    1PA    H15S 7619   0.409   2.522   4.625 -2.0308 -0.4318 -0.9480
    1PA    C114 7620   0.456   2.728   4.589 -0.2428 -1.0369 -0.5667
    1PA    H14R 7621   0.410   2.741   4.491 -1.3278  1.9921  0.2226
    1PA    H14S 7622   0.445   2.820   4.646  2.0387  0.1825 -1.9378
    1PA    C113 7623   0.606   2.698   4.565  0.8848  0.3556  0.4266
    1PA    H13R 7624   0.650   2.689   4.665  1.9782 -0.0495 -0.0772
    1PA    H13S 7625   0.623   2.608   4.505 -0.4272  0.7057 -0.4956
    1PA    C112 7626   0.685   2.800   4.486  0.4125  0.6722  0.2070
    1PA    H12R 7627   0.684   2.771   4.380  1.0437  0.4376  0.2630
    1PA    H12S 7628   0.636   2.896   4.504 -1.1680 -0.2224  0.8609
    1PA    C111 7629   0.825   2.801   4.535  0.2367  0.1617 -0.4466
    1PA    H11R 7630   0.826   2.853   4.631  1.2757 -1.0200  0.2075
    1PA    H11S 7631   0.867   2.702   4.552  0.4254  0.2968 -0.1004
    1PA    C110 7632   0.900   2.886   4.429 -0.0124  0.4455  0.2833
    1PA    H10R 7633   0.922   2.836   4.334  0.6365  4.4522 -1.8905
    1PA    H10S 7634   0.840   2.972   4.401 -0.6889 -0.1911 -0.2589
    1PA     C19 7635   1.042   2.935   4.474 -0.5526 -0.6561  0.2527
    1PA     H9R 7636   1.040   3.019   4.544  0.3023  0.1181 -0.6129
    1PA     H9S 7637   1.088   2.853   4.529  0.5135  0.5074  1.1451
    1PA     C18 7638   1.144   2.977   4.362 -0.8343  0.3161 -0.0936
    1PA     H8R 7639   1.157   2.888   4.301 -0.8887  0.0276  0.3138
    1PA     H8S 7640   1.100   3.059   4.305 -0.0396  0.5975 -0.3193
    1PA     C17 7641   1.288   3.029   4.391  0.8712 -0.1852 -0.3067
    1PA     H7R 7642   1.269   3.113   4.457 -3.3289  0.8016 -2.4362
    1PA     H7S 7643   1.342   2.951   4.445 -0.2022 -1.4737 -1.0334
    1PA     C16 7644   1.368   3.079   4.265 -0.2016  0.2133  0.3161
    1PA     H6R 7645   1.316   3.151   4.201  1.3478  1.6950  0.6407
    1PA     H6S 7646   1.454   3.129   4.309 -0.6025  0.2756  1.0385
    1PA     C15 7647   1.424   2.961   4.182 -0.0125  0.2432  0.5444
    1PA     H5R 7648   1.459   2.875   4.239 -0.4800 -1.0275 -0.9855
    1PA     H5S 7649   1.342   2.920   4.121 -0.4856  1.6815  0.1765
    1PA     C14 7650   1.543   3.004   4.087  0.4163  0.3139 -0.3193
    1PA     H4R 7651   1.633   3.017   4.147  1.2135 -0.3269 -1.3403
    1PA     H4S 7652   1.572   2.914   4.032 -0.4532 -0.6622  0.7632
    1PA     C13 7653   1.522   3.129   4.007  0.6759  0.2226 -0.3377
    1PA     H3R 7654   1.517   3.214   4.074  1.2314  0.0315 -0.0417
    1PA     H3S 7655   1.611   3.134   3.943  0.4321 -1.6233 -0.8873
    1PA     C12 7656   1.395   3.135   3.915 -0.7763  0.0029 -0.1404
    1PA     H2R 7657   1.300   3.139   3.968 -1.2520  1.2636 -1.0449
    1PA     H2S 7658   1.399   3.228   3.859 -0.2767 -0.1658 -0.3899
    1PC     C11 7659   1.399   3.024   3.810 -0.2140  0.9668 -0.2454
    1PC     O12 7660   1.495   2.992   3.744 -0.6321 -0.1641  0.0089
    1PC     O11 7661   1.277   2.969   3.804  0.4320  0.3870 -0.1075
    1PC      C1 7662   1.252   2.882   3.691 -0.3232 -0.3934  0.1093
    1PC      HR 7663   1.276   2.929   3.595 -1.4058 -0.3182 -0.1410
    1PC      HS 7664   1.328   2.806   3.710  1.1872  0.9014 -0.5610
    1PC      C2 7665   1.113   2.813   3.693 -0.0085 -0.2177  0.2896
    1PC      HX 7666   1.122   2.721   3.635  3.9578 -0.4006  0.9583
    1PC      C3 7667   1.005   2.895   3.625  0.2059 -0.2092 -0.1856
    1PC      HA 7668   0.917   2.868   3.685 -0.7401  0.2519 -1.3103
    1PC      HB 7669   1.028   2.999   3.647  0.6374 -0.7789  2.3388
    1PC     O31 7670   0.983   2.860   3.488 -0.4170 -0.3296 -0.0694
    1PC     P31 7671   1.068   2.923   3.359 -0.7168 -0.4894 -0.6499
    1PC     O32 7672   1.203   2.843   3.362 -0.2635 -0.3631 -0.0229
    1PC     C31 7673   1.203   2.703   3.316 -0.9612  0.7573 -0.7600
    1PC     H1A 7674   1.290   2.645   3.349 -0.7631  1.9874  1.0451
    1PC     H1B 7675   1.119   2.657   3.368  1.1566 -1.2880  1.1181
    1PC     C32 7676   1.198   2.690   3.161 -0.2496  0.4803 -0.0993
    1PC     H2A 7677   1.170   2.586   3.144  0.4419  0.3924 -0.7059
    1PC     H2B 7678   1.115   2.753   3.128 -0.3318  1.3283  1.5898
    1PC     N31 7679   1.317   2.734   3.080 -0.2837 -0.3366 -0.6737
    1PC     C33 7680   1.357   2.875   3.113  0.1430  0.2480  0.4792
    1PC     H3A 7681   1.377   2.889   3.219  1.9356  1.2511  0.0667
    1PC     H3B 7682   1.451   2.889   3.058 -0.4922  0.4388 -0.5910
    1PC     H3C 7683   1.272   2.936   3.084 -0.1577 -1.9078 -4.1125
    1PC     C34 7684   1.432   2.649   3.123  0.2451 -0.3896  0.1858
    1PC     H4A 7685   1.516   2.681   3.061  0.8398  1.8083  1.9929
    1PC     H4B 7686   1.446   2.686   3.224 -2.0432 -0.4680  0.5878
    1PC     H4C 7687   1.409   2.543   3.120 -0.6646 -0.2318  1.0438
    1PC     C35 7688   1.270   2.718   2.950  0.4016  0.0490 -0.2407
    1PC     H5A 7689   1.226   2.618   2.943 -2.1575  0.8915  1.9194
    1PC     H5B 7690   1.358   2.715   2.886  0.9192 -0.2483  0.4673
    1PC     H5C 7691   1.200   2.800   2.929 -0.1804 -0.2833  0.3502
    1PC     O33 7692   0.997   2.892   3.236 -0.5439 -0.5200  0.7871
    1PC     O34 7693   1.107   3.063   3.391 -0.5731  0.2868 -0.4895
    1PC     O21 7694   1.064   2.779   3.831  0.0731 -0.0124 -0.6211
    1PC     C21 7695   1.116   2.675   3.892 -0.4895 -0.1473  0.2805
    1PC     O22 7696   1.210   2.606   3.852 -0.0429  0.2796 -0.1294
    1OL     C12 7697   1.056   2.654   4.026  0.1915 -0.7675 -0.3780
    1OL     H2R 7698   0.956   2.698   4.025 -0.2539 -1.6318 -3.4410
    1OL     H2S 7699   1.119   2.706   4.098  0.7211 -0.4029 -1.0989
    1OL     C13 7700   1.036   2.511   4.066  0.1884  0.3205  0.1405
    1OL     H3R 7701   1.124   2.451   4.043  0.3838  0.8008 -0.3972
    1OL     H3S 7702   0.962   2.469   3.997  0.3118  2.9286 -1.7253
    1OL     C14 7703   0.998   2.492   4.219  0.1680 -0.1470 -0.5706
    1OL     H4R 7704   0.905   2.536   4.254 -0.1861 -0.0065 -1.6848
    1OL     H4S 7705   1.072   2.545   4.280 -0.5484  0.7156 -0.4414
    1OL     C15 7706   1.006   2.345   4.254 -0.1366  0.4247  0.2200
    1OL     H5R 7707   1.100   2.297   4.226 -1.1517 -1.9574  0.6301
    1OL     H5S 7708   0.939   2.290   4.188  0.5379  1.9741 -1.8397
    1OL     C16 7709   0.965   2.288   4.393  0.2951 -0.5985  0.5985
    1OL     H6R 7710   0.857   2.280   4.396  0.2465  0.2209  1.8020
    1OL     H6S 7711   0.981   2.356   4.477 -3.2537  1.5854 -0.2773
    1OL     C17 7712   1.015   2.146   4.418 -0.1416  0.3964 -0.2308
    1OL     H7R 7713   1.120   2.144   4.449  0.3229 -0.4591 -1.7649
    1OL     H7S 7714   1.007   2.080   4.331  1.5286 -1.9374  1.2633
    1OL     C18 7715   0.938   2.075   4.539  0.3448 -0.5283  0.4140
    1OL     H8R 7716   0.970   1.971   4.548 -0.6524 -0.7759  1.2580
    1OL     H8S 7717   0.830   2.078   4.523  0.3764 -1.2599  0.0622
    1OL     C19 7718   0.974   2.140   4.673  0.5068 -0.6798 -0.4830
    1OL     H9R 7719   1.071   2.103   4.706  0.4758 -1.0847 -0.8358
    1OL    C110 7720   0.903   2.233   4.748 -0.5649  0.8631 -0.2189
    1OL    H10R 7721   0.941   2.254   4.848 -0.0203 -1.3034  0.0779
    1OL    C111 7722   0.773   2.291   4.706  0.1901  0.6241 -0.0861
    1OL    H11R 7723   0.700   2.249   4.775  0.1200 -0.2122 -0.6481
    1OL    H11S 7724   0.742   2.240   4.615 -2.4015  1.2204  0.3809
    1OL    C112 7725   0.774   2.442   4.725  0.1144  0.6415  0.6519
    1OL    H12R 7726   0.677   2.484   4.698 -0.6094  0.6293  2.9900
    1OL    H12S 7727   0.845   2.487   4.655 -0.4862  1.6761  0.6763
    1OL    C113 7728   0.806   2.491   4.857 -0.6021  0.1449 -0.5002
    1OL    H13R 7729   0.796   2.600   4.860 -2.5985 -0.0040  2.1175
    1OL    H13S 7730   0.908   2.470   4.888 -1.3292  0.5786  2.4538
    1OL    C114 7731   0.724   2.422   4.966  0.2231  0.0592 -0.6471
    1OL    H14R 7732   0.751   2.472   5.059  1.0641 -0.1179 -0.7892
    1OL    H14S 7733   0.752   2.317   4.976 -3.7057 -1.1439 -0.7092
    1OL    C115 7734   0.572   2.440   4.948 -0.7059 -0.0313  0.6867
    1OL    H15R 7735   0.536   2.385   4.861 -1.9320 -1.3544  1.9698
    1OL    H15S 7736   0.546   2.545   4.941 -1.8880 -0.4369 -2.2551
    1OL    C116 7737   0.505   2.384   5.077 -0.0925  0.5797  0.5256
    1OL    H16R 7738   0.535   2.441   5.166  0.7936  0.8707  0.0553
    1OL    H16S 7739   0.529   2.278   5.087 -0.0299  0.6408  1.0692
    1OL    C117 7740   0.349   2.409   5.077  0.0140  0.4853  0.4719
    1OL    H17R 7741   0.314   2.376   4.979  0.8593 -3.5102  1.3382
    1OL    H17S 7742   0.339   2.514   5.107 -1.1238  0.6409 -0.3918
    1OL    C118 7743   0.288   2.308   5.179 -0.1375 -0.4398 -0.1365
    1OL    H18R 7744   0.324   2.327   5.281 -0.3723  0.8660 -0.2688
    1OL    H18S 7745   0.311   2.205   5.152  1.4629  0.3168 -1.8861
    1OL    H18T 7746   0.180   2.323   5.168  0.0152  0.7679 -0.2060
    1PA    C116 7747   1.419   0.275   4.973  0.6390 -0.0264  0.1262
    1PA    H16R 7748   1.464   0.309   4.879  0.4494 -0.4368 -0.1156
    1PA    H16S 7749   1.311   0.274   4.956  1.0553 -2.0018 -3.4620
    1PA    H16T 7750   1.457   0.175   4.993 -2.3241 -1.1154  0.8070
    1PA    C115 7751   1.457   0.367   5.086 -0.1733 -0.3036 -0.3357
    1PA    H15R 7752   1.418   0.333   5.182  0.3433  1.7048  0.6191
    1PA    H15S 7753   1.563   0.384   5.103 -0.4507  0.4850  0.6776
    1PA    C114 7754   1.404   0.511   5.053 -0.5932  0.2715 -0.1193
    1PA    H14R 7755   1.299   0.496   5.028 -0.7289  2.1150 -0.8298
    1PA    H14S 7756   1.415   0.567   5.147 -0.3704 -0.6516  0.4196
    1PA    C113 7757   1.476   0.586   4.938 -0.7115 -0.0997  0.1942
    1PA    H13R 7758   1.582   0.585   4.964 -0.9471 -0.9653  1.1735
    1PA    H13S 7759   1.452   0.520   4.855 -4.3706  1.1309  0.1102
    1PA    C112 7760   1.428   0.730   4.900 -0.1063 -0.4069  0.2147
    1PA    H12R 7761   1.323   0.734   4.869  0.1150 -0.8377 -0.5949
    1PA    H12S 7762   1.436   0.793   4.989  1.6662  0.6307 -0.6293
    1PA    C111 7763   1.519   0.788   4.798  0.0918  0.0849 -0.1336
    1PA    H11R 7764   1.621   0.785   4.837  0.3430 -1.6945 -0.8171
    1PA    H11S 7765   1.524   0.719   4.713 -0.9866 -1.4072  0.9627
    1PA    C110 7766   1.492   0.924   4.732  0.4453 -0.1543 -0.7530
    1PA    H10R 7767   1.394   0.922   4.684  0.1171  0.6951 -0.1562
    1PA    H10S 7768   1.501   1.002   4.808 -0.9995 -1.9923  1.4102
    1PA     C19 7769   1.594   0.953   4.613  0.2691 -0.1174  0.2884
    1PA     H9R 7770   1.682   0.986   4.667 -0.5435  2.2568  0.2789
    1PA     H9S 7771   1.617   0.867   4.550  0.1835 -2.2359  2.9565
    1PA     C18 7772   1.565   1.075   4.527 -0.4698 -0.6262 -0.7617
    1PA     H8R 7773   1.534   1.156   4.593  0.5684 -1.4127  0.7362
    1PA     H8S 7774   1.657   1.103   4.475 -1.0455 -1.1636 -2.1218
    1PA     C17 7775   1.443   1.047   4.429  1.3916 -0.0963 -0.1078
    1PA     H7R 7776   1.468   0.967   4.359  0.8783 -1.7927  1.5326
    1PA     H7S 7777   1.355   1.019   4.487 -0.2321  3.0801 -0.7936
    1PA     C16 7778   1.401   1.179   4.368  0.1890  0.1158  0.6334
    1PA     H6R 7779   1.370   1.249   4.446  0.1677 -0.4322  1.1331
    1PA     H6S 7780   1.486   1.221   4.314 -0.3519  1.0999  0.5208
    1PA     C15 7781   1.282   1.172   4.266  0.9629  0.4950 -0.0773
    1PA     H5R 7782   1.192   1.136   4.317  0.9997 -0.3635 -0.6154
    1PA     H5S 7783   1.263   1.276   4.238  0.3583  0.4718  0.2218
    1PA     C14 7784   1.293   1.089   4.139 -0.1891  0.4924 -0.4046
    1PA     H4R 7785   1.297   0.983   4.164  0.1166  0.3454 -1.0687
    1PA     H4S 7786   1.206   1.103   4.074  0.5350 -0.5791 -1.6520
    1PA     C13 7787   1.418   1.128   4.051  0.5427 -0.0233 -0.2367
    1PA     H3R 7788   1.445   1.233   4.061 -1.3901  0.4335  0.7154
    1PA     H3S 7789   1.488   1.049   4.077 -0.2520 -0.4847  0.5491
    1PA     C12 7790   1.375   1.106   3.909  0.2856 -0.3662 -0.4375
    1PA     H2R 7791   1.465   1.071   3.858  0.1906  0.6054 -1.3156
    1PA     H2S 7792   1.302   1.027   3.894  0.0157  0.3086 -3.4027
    1PC     C11 7793   1.327   1.229   3.840 -0.4356  0.4563 -0.0096
    1PC     O12 7794   1.271   1.317   3.898  1.1403  0.1425  0.7234
    1PC     O11 7795   1.363   1.226   3.710 -0.5607 -0.2552 -0.2198
    1PC      C1 7796   1.311   1.336   3.633  0.1831  0.3735  0.3493
    1PC      HR 7797   1.220   1.298   3.585  0.0405  0.6044  0.4351
    1PC      HS 7798   1.288   1.426   3.691  0.3672 -1.2647  3.1432
    1PC      C2 7799   1.415   1.382   3.516  0.5605  0.1938 -0.1061
    1PC      HX 7800   1.364   1.447   3.444  1.1725  0.0417 -0.6789
    1PC      C3 7801   1.475   1.254   3.457 -0.4147 -0.4444 -0.0316
    1PC      HA 7802   1.541   1.204   3.527 -1.3774 -1.6759  0.0243
    1PC      HB 7803   1.382   1.198   3.441 -0.2054 -0.5879 -0.7737
    1PC     O31 7804   1.550   1.277   3.336 -0.3237  0.8023 -0.3337
    1PC     P31 7805   1.476   1.295   3.192 -0.1591 -0.2148 -0.1089
    1PC     O32 7806   1.444   1.451   3.190 -0.1384 -0.1726 -0.5000
    1PC     C31 7807   1.549   1.542   3.198  0.1264 -0.2878 -0.2754
    1PC     H1A 7808   1.622   1.516   3.275  1.4556  1.0724 -1.0083
    1PC     H1B 7809   1.606   1.537   3.104 -0.8652 -0.0291 -0.9066
    1PC     C32 7810   1.487   1.678   3.210 -0.4437 -0.7730 -0.6157
    1PC     H2A 7811   1.405   1.689   3.139 -2.2308  0.0141  1.4583
    1PC     H2B 7812   1.440   1.686   3.308  0.3547 -0.6280 -0.2341
    1PC     N31 7813   1.579   1.801   3.202 -0.6184 -0.1141 -0.9642
    1PC     C33 7814   1.699   1.782   3.297  0.3789  0.5135 -0.0027
    1PC     H3A 7815   1.657   1.784   3.398 -2.9674  0.0397 -1.2380
    1PC     H3B 7816   1.743   1.686   3.270 -0.5865 -0.0741  0.4422
    1PC     H3C 7817   1.767   1.866   3.287  1.6380 -0.4771 -0.0002
    1PC     C34 7818   1.629   1.815   3.065 -0.3061 -0.0115 -0.0628
    1PC     H4A 7819   1.678   1.912   3.063  0.2145 -0.2758 -0.0643
    1PC     H4B 7820   1.695   1.734   3.033 -0.4848 -0.4873  0.7545
    1PC     H4C 7821   1.536   1.820   3.007 -2.6600 -0.3388  3.3836
    1PC     C35 7822   1.496   1.918   3.250 -0.5397 -0.3160  0.4698
    1PC     H5A 7823   1.463   1.905   3.353 -1.7122 -0.2950  0.1090
    1PC     H5B 7824   1.415   1.932   3.178  1.6333  3.7976 -1.5305
    1PC     H5C 7825   1.563   2.004   3.242  0.1424 -0.9625 -1.3935
    1PC     O33 7826   1.566   1.266   3.081 -0.1204  0.2847 -0.1813
    1PC     O34 7827   1.352   1.218   3.201 -0.4645  0.1071  0.6564
    1PC     O21 7828   1.535   1.452   3.577 -0.6141 -0.2293 -0.2599
    1PC     C21 7829   1.513   1.582   3.597  0.2286  0.3632  0.3246
    1PC     O22 7830   1.415   1.642   3.571  0.3025 -0.4251  0.6025
    1OL     C12 7831   1.639   1.652   3.660  0.2200 -0.0738 -0.3016
    1OL     H2R 7832   1.696   1.695   3.577 -1.2642  2.0405 -0.2974
    1OL     H2S 7833   1.717   1.589   3.703  0.3480  0.3176  0.0512
    1OL     C13 7834   1.597   1.753   3.766 -0.5346 -0.0639 -1.0320
    1OL     H3R 7835   1.510   1.812   3.738 -1.9298 -2.6824 -2.6326
    1OL     H3S 7836   1.673   1.824   3.799 -0.4541  0.2277 -1.8349
    1OL     C14 7837   1.560   1.690   3.906  0.4730  0.3154  0.8557
    1OL     H4R 7838   1.476   1.621   3.894 -0.0793  1.0872  0.1026
    1OL     H4S 7839   1.518   1.773   3.962  0.4565  1.7171 -1.1375
    1OL     C15 7840   1.685   1.642   3.987 -0.4717  0.0830  0.6175
    1OL     H5R 7841   1.746   1.723   4.028  0.2829 -1.8939  3.7191
    1OL     H5S 7842   1.748   1.578   3.925 -1.7118 -1.5519  0.9674
    1OL     C16 7843   1.644   1.567   4.116  0.2335  0.3374  0.5633
    1OL     H6R 7844   1.729   1.547   4.182  0.4266  0.2006  0.2757
    1OL     H6S 7845   1.597   1.474   4.083  0.0712  1.2678 -2.0321
    1OL     C17 7846   1.533   1.623   4.210  0.2097  0.2657  0.0406
    1OL     H7R 7847   1.530   1.551   4.292 -0.7936  0.2626  0.0188
    1OL     H7S 7848   1.437   1.612   4.158  0.5841 -0.2325 -0.5629
    1OL     C18 7849   1.556   1.762   4.261 -0.1278 -0.7764 -0.1979
    1OL     H8R 7850   1.582   1.825   4.175 -2.5919 -1.5580 -1.6150
    1OL     H8S 7851   1.643   1.767   4.328 -0.6068  1.7988  0.3606
    1OL     C19 7852   1.421   1.800   4.328 -0.3152 -0.1302 -0.0419
    1OL     H9R 7853   1.338   1.752   4.277  1.6653 -2.9640 -0.8208
    1OL    C110 7854   1.411   1.900   4.424  0.2808  0.8227  0.2227
    1OL    H10R 7855   1.307   1.923   4.448 -0.1703 -1.2937  0.5126
    1OL    C111 7856   1.521   1.964   4.499 -0.3575 -0.3382  0.0492
    1OL    H11R 7857   1.607   1.975   4.433 -0.5624 -1.0258 -0.3378
    1OL    H11S 7858   1.562   1.902   4.579  0.5417  0.0784 -0.0795
    1OL    C112 7859   1.487   2.103   4.558 -0.3020  0.4293 -0.2887
    1OL    H12R 7860   1.387   2.094   4.599  0.1286  0.7411  0.8647
    1OL    H12S 7861   1.485   2.186   4.487 -0.6802 -0.1862 -1.0089
    1OL    C113 7862   1.582   2.146   4.671  0.0512 -0.0266 -0.3201
    1OL    H13R 7863   1.558   2.249   4.696 -1.1644 -0.4140  0.2062
    1OL    H13S 7864   1.684   2.149   4.633  0.5334 -1.8035  0.7042
    1OL    C114 7865   1.578   2.054   4.803  0.0807  0.3942  0.6984
    1OL    H14R 7866   1.567   1.947   4.782  1.1019  0.1626  1.2964
    1OL    H14S 7867   1.482   2.072   4.852 -0.1037  0.7229  0.2246
    1OL    C115 7868   1.695   2.076   4.901 -0.3035  0.4151 -0.8333
    1OL    H15R 7869   1.722   2.182   4.910 -2.1835  0.8703  0.1250
    1OL    H15S 7870   1.778   2.015   4.865 -0.3431 -0.1120 -0.0493
    1OL    C116 7871   1.649   2.020   5.035 -0.2954 -0.1797 -1.3212
    1OL    H16R 7872   1.617   1.916   5.025  2.0531 -1.3024  1.4902
    1OL    H16S 7873   1.566   2.085   5.064  0.1585  0.2189 -0.9147
    1OL    C117 7874   1.760   2.022   5.144  0.0558  0.1358 -0.4431
    1OL    H17R 7875   1.788   2.125   5.169  0.0185  0.1891 -0.6176
    1OL    H17S 7876   1.851   1.974   5.106  0.3582  0.8890 -0.6928
    1OL    C118 7877   1.719   1.962   5.281 -0.4228 -0.0581 -0.2866
    1OL    H18R 7878   1.801   1.967   5.352  0.9818 -1.8708 -1.6746
    1OL    H18S 7879   1.674   1.864   5.263 -1.2147  0.7808 -3.7564
    1OL    H18T 7880   1.645   2.032   5.320  1.8316  0.7623  2.9282
    1PA    C116 7881   2.721   0.653   4.856 -0.0615  0.5702  0.2259
    1PA    H16R 7882   2.753   0.551   4.831  1.0552  1.3339 -1.7285
    1PA    H16S 7883   2.646   0.634   4.933  0.4072 -1.3208  0.2857
    1PA    H16T 7884   2.810   0.708   4.887  0.2279  0.0218  0.3929
    1PA    C115 7885   2.657   0.713   4.729 -0.1111  0.0899 -0.5163
    1PA    H15R 7886   2.575   0.653   4.690 -1.6895  2.5477 -1.2191
    1PA    H15S 7887   2.606   0.806   4.753 -0.5242 -0.9475  3.1713
    1PA    C114 7888   2.745   0.768   4.619 -0.1961 -0.1076 -0.3496
    1PA    H14R 7889   2.825   0.837   4.647 -0.9111  0.7785 -0.4037
    1PA    H14S 7890   2.801   0.688   4.571  1.8646  0.9404  0.1690
    1PA    C113 7891   2.654   0.847   4.512 -0.7094  0.1050 -0.1210
    1PA    H13R 7892   2.570   0.787   4.475 -0.4908  0.5295 -1.3584
    1PA    H13S 7893   2.615   0.938   4.558  0.5049 -0.8154  2.9415
    1PA    C112 7894   2.758   0.896   4.401 -0.3512  0.6468  0.3273
    1PA    H12R 7895   2.841   0.945   4.454 -1.0731  2.5672 -0.2317
    1PA    H12S 7896   2.790   0.809   4.342 -1.8013 -0.7375  1.4990
    1PA    C111 7897   2.682   1.001   4.314 -1.2220 -0.3864 -0.3072
    1PA    H11R 7898   2.620   0.948   4.241 -1.2203 -1.7199  0.6282
    1PA    H11S 7899   2.616   1.061   4.376 -0.6075  0.3826 -0.3739
    1PA    C110 7900   2.774   1.094   4.240  0.0882 -0.2110  0.7790
    1PA    H10R 7901   2.712   1.180   4.211  2.8853  0.3075 -5.2986
    1PA    H10S 7902   2.841   1.137   4.314 -1.2569  0.2971  1.7617
    1PA     C19 7903   2.841   1.028   4.113 -0.6609 -0.0659  0.1518
    1PA     H9R 7904   2.915   1.094   4.068  3.0777 -3.2642  0.9738
    1PA     H9S 7905   2.906   0.941   4.127  0.5197  0.5490 -1.2129
    1PA     C18 7906   2.745   1.001   3.998  0.6188  0.1287  0.5211
    1PA     H8R 7907   2.672   0.929   4.035  0.8147 -0.7841 -0.7928
    1PA     H8S 7908   2.686   1.091   3.981  3.3147  1.7135 -1.1317
    1PA     C17 7909   2.817   0.951   3.873  0.2292  0.0296 -0.0574
    1PA     H7R 7910   2.870   1.030   3.819  1.3422  0.4168  1.5466
    1PA     H7S 7911   2.892   0.877   3.900  1.2258  1.2550  0.6017
    1PA     C16 7912   2.719   0.878   3.779 -0.3624 -0.0172  0.2721
    1PA     H6R 7913   2.615   0.897   3.807  0.5073  1.3229  2.9421
    1PA     H6S 7914   2.718   0.931   3.684  3.2378  0.0840  0.1437
    1PA     C15 7915   2.748   0.724   3.757  0.2467  0.0412  0.1387
    1PA     H5R 7916   2.694   0.687   3.670  1.7716  2.4855 -1.9901
    1PA     H5S 7917   2.851   0.703   3.728 -0.0011  1.4116 -1.9391
    1PA     C14 7918   2.720   0.636   3.883  0.3358 -0.3910  0.0162
    1PA     H4R 7919   2.670   0.695   3.960  1.0849  1.5900 -0.9258
    1PA     H4S 7920   2.648   0.563   3.846  0.6870 -0.0029 -1.5406
    1PA     C13 7921   2.838   0.558   3.947  0.7278  0.4702  0.2945
    1PA     H3R 7922   2.902   0.641   3.977  0.1643  0.4388  1.6343
    1PA     H3S 7923   2.792   0.515   4.036 -1.2869  0.6998 -0.5689
    1PA     C12 7924   2.912   0.461   3.857 -0.5660 -0.4346  0.2207
    1PA     H2R 7925   2.940   0.510   3.763  0.8158 -1.5061  0.0429
    1PA     H2S 7926   2.997   0.429   3.917 -1.6688  1.4023  2.9803
    1PC     C11 7927   2.820   0.344   3.838 -0.2711  0.3260 -0.0140
    1PC     O12 7928   2.795   0.254   3.922 -0.1916  0.3524  0.1939
    1PC     O11 7929   2.760   0.347   3.715  0.2173  0.8737  0.0200
    1PC      C1 7930   2.658   0.248   3.683  0.4756  0.3798 -0.5274
    1PC      HR 7931   2.692   0.200   3.591 -0.0916 -0.2902 -0.3951
    1PC      HS 7932   2.647   0.174   3.763 -0.0186  0.2149 -0.7443
    1PC      C2 7933   2.513   0.315   3.655 -0.0506 -0.3117 -0.3846
    1PC      HX 7934   2.433   0.246   3.627 -0.4658 -0.2463  0.5990
    1PC      C3 7935   2.525   0.429   3.549 -0.3506  0.2004  0.9945
    1PC      HA 7936   2.614   0.492   3.560 -0.6462  0.4687  1.9200
    1PC      HB 7937   2.531   0.386   3.448  1.4149  3.3056 -0.3644
    1PC     O31 7938   2.403   0.506   3.552 -0.3143  0.4578  0.5015
    1PC     P31 7939   2.268   0.465   3.466  0.0347 -0.2664  0.1898
    1PC     O32 7940   2.292   0.513   3.311  0.3831 -0.2578 -0.9150
    1PC     C31 7941   2.242   0.635   3.260 -0.1485  0.5781  0.3965
    1PC     H1A 7942   2.133   0.634   3.260 -0.1488  0.5792  0.5280
    1PC     H1B 7943   2.276   0.722   3.317  1.4024 -0.1413  0.6212
    1PC     C32 7944   2.289   0.645   3.117 -0.5216  0.2949 -0.5516
    1PC     H2A 7945   2.243   0.733   3.073  0.5575 -0.4969 -3.5821
    1PC     H2B 7946   2.397   0.660   3.120 -0.7463  2.1496 -0.9231
    1PC     N31 7947   2.258   0.539   3.018  0.5865  0.2753  0.2853
    1PC     C33 7948   2.280   0.594   2.881 -0.5351 -0.0248 -0.4738
    1PC     H3A 7949   2.382   0.631   2.872 -0.7599  0.2385 -2.5001
    1PC     H3B 7950   2.262   0.512   2.810 -0.0538 -0.8028  0.2847
    1PC     H3C 7951   2.204   0.670   2.863  0.0519  0.5839 -0.3773
    1PC     C34 7952   2.353   0.429   3.033 -0.2566 -0.2918  0.6532
    1PC     H4A 7953   2.444   0.464   2.983 -0.5615 -1.2501 -0.6112
    1PC     H4B 7954   2.352   0.393   3.136 -0.1285 -2.0074  0.0770
    1PC     H4C 7955   2.310   0.348   2.975 -2.1437 -0.0639  1.6538
    1PC     C35 7956   2.123   0.485   3.027 -0.2883  0.0092  0.1002
    1PC     H5A 7957   2.055   0.571   3.022 -0.9038 -0.3407  1.8717
    1PC     H5B 7958   2.103   0.424   3.114 -0.9184  0.6212  0.3981
    1PC     H5C 7959   2.107   0.414   2.946 -0.4880  0.2095 -0.0378
    1PC     O33 7960   2.255   0.315   3.469  0.8442  0.1418  0.0067
    1PC     O34 7961   2.163   0.551   3.523 -0.0897  0.0897  0.0575
    1PC     O21 7962   2.474   0.374   3.781  0.0348  0.3161 -0.6104
    1PC     C21 7963   2.408   0.293   3.870 -0.1576  0.0603  0.1865
    1PC     O22 7964   2.373   0.176   3.857  0.5480 -0.4595  0.4600
    1OL     C12 7965   2.360   0.379   3.985 -0.2010  1.0004  0.1190
    1OL     H2R 7966   2.289   0.320   4.044 -0.3378  1.8846  0.8672
    1OL     H2S 7967   2.312   0.472   3.953 -2.3060 -0.4149 -1.0338
    1OL     C13 7968   2.470   0.409   4.088 -1.0402 -0.2019  0.0145
    1OL     H3R 7969   2.441   0.488   4.157  2.7888  0.6484  0.8776
    1OL     H3S 7970   2.552   0.458   4.036  0.1920 -3.2405 -1.1525
    1OL     C14 7971   2.506   0.283   4.175 -0.1294  0.1289 -0.3290
    1OL     H4R 7972   2.546   0.206   4.109  2.3186  0.5183  0.5683
    1OL     H4S 7973   2.412   0.248   4.218 -1.1803  4.2271  1.2642
    1OL     C15 7974   2.607   0.325   4.288  0.6009 -0.1601  0.4163
    1OL     H5R 7975   2.559   0.393   4.359  0.4575 -0.3671  0.5202
    1OL     H5S 7976   2.692   0.376   4.243  0.2552 -0.7396 -0.9440
    1OL     C16 7977   2.642   0.187   4.353 -0.2915  0.3352 -0.2191
    1OL     H6R 7978   2.667   0.110   4.279 -1.9104 -0.8949  0.4557
    1OL     H6S 7979   2.559   0.163   4.419  1.0420  0.8934  1.7641
    1OL     C17 7980   2.770   0.200   4.445  0.0412 -0.5218 -0.1591
    1OL     H7R 7981   2.759   0.126   4.524 -0.4519 -0.7811 -0.4656
    1OL     H7S 7982   2.776   0.294   4.500 -4.5118 -0.2571  0.2839
    1OL     C18 7983   2.905   0.174   4.360  0.2897  0.8321 -0.2635
    1OL     H8R 7984   2.910   0.073   4.318  0.4486  0.5555  0.4090
    1OL     H8S 7985   2.988   0.175   4.432  1.2747  1.8786 -1.3653
    1OL     C19 7986   2.926   0.272   4.247  0.3061  0.3698  0.4042
    1OL     H9R 7987   2.865   0.260   4.158 -0.1050  2.1694  0.3968
    1OL    C110 7988   3.027   0.357   4.243  0.2049  0.2366 -0.2621
    1OL    H10R 7989   3.039   0.421   4.156  0.0271 -0.1122 -0.5454
    1OL    C111 7990   3.117   0.399   4.359  0.1258 -0.9141 -0.2594
    1OL    H11R 7991   3.224   0.393   4.336 -0.2703 -1.1171 -2.1547
    1OL    H11S 7992   3.109   0.327   4.441 -2.9284  0.5947  0.9245
    1OL    C112 7993   3.082   0.543   4.408 -0.5730  0.2450  0.2319
    1OL    H12R 7994   2.974   0.549   4.420 -0.5290  0.6718  0.4407
    1OL    H12S 7995   3.100   0.604   4.319  0.5474 -0.6152 -0.1512
    1OL    C113 7996   3.157   0.604   4.526  0.5054 -0.3507 -1.1046
    1OL    H13R 7997   3.120   0.706   4.534  0.8406 -0.2975 -0.2001
    1OL    H13S 7998   3.258   0.612   4.486  0.1134 -1.6767 -2.4769
    1OL    C114 7999   3.148   0.532   4.665 -0.5430 -0.1331 -0.7370
    1OL    H14R 8000   3.201   0.437   4.676  1.1335  1.0305  2.6636
    1OL    H14S 8001   3.043   0.516   4.690  0.0423 -0.6187  1.6242
    1OL    C115 8002   3.204   0.621   4.778  0.1632 -0.4450 -0.2060
    1OL    H15R 8003   3.139   0.708   4.786  2.4610  1.3660  0.0502
    1OL    H15S 8004   3.301   0.665   4.753 -0.0026 -0.2311 -0.4702
    1OL    C116 8005   3.195   0.556   4.915  0.0781 -0.2991 -0.1763
    1OL    H16R 8006   3.244   0.619   4.990  0.3787  1.1076 -1.5033
    1OL    H16S 8007   3.242   0.458   4.911 -2.3837 -1.5245 -1.2424
    1OL    C117 8008   3.052   0.528   4.957  0.6965  0.6332 -0.4889
    1OL    H17R 8009   3.012   0.442   4.902  0.3111  1.4649 -1.5427
    1OL    H17S 8010   2.987   0.614   4.946  2.2679  1.7382 -1.5778
    1OL    C118 8011   3.062   0.491   5.106  0.1101  0.2866 -0.2643
    1OL    H18R 8012   2.963   0.462   5.143  1.5917 -3.1471  1.4319
    1OL    H18S 8013   3.086   0.578   5.166  0.6367 -2.1019  3.2695
    1OL    H18T 8014   3.144   0.424   5.131  0.3552  0.5305 -0.4185
    1PA    C116 8015   2.385   3.214   5.140  0.2470 -0.7285  0.1733
    1PA    H16R 8016   2.341   3.180   5.233 -2.2507 -0.8162 -0.9586
    1PA    H16S 8017   2.377   3.322   5.153 -2.4453 -0.8288 -0.1372
    1PA    H16T 8018   2.493   3.202   5.143  0.2870 -0.4336 -0.0743
    1PA    C115 8019   2.312   3.179   5.006 -0.0763  0.1098  1.3169
    1PA    H15R 8020   2.319   3.071   4.988 -1.3370 -0.1324  2.1838
    1PA    H15S 8021   2.207   3.206   5.013  0.2949  2.4393 -0.5154
    1PA    C114 8022   2.373   3.259   4.882 -0.1288  0.9863 -0.9826
    1PA    H14R 8023   2.363   3.367   4.896 -2.2440  0.5554  1.7431
    1PA    H14S 8024   2.480   3.241   4.879  0.0708  2.1821 -2.1531
    1PA    C113 8025   2.304   3.226   4.745 -0.5870  0.3134 -0.5950
    1PA    H13R 8026   2.344   3.127   4.723  2.4134  1.4352 -0.5235
    1PA    H13S 8027   2.195   3.217   4.742 -0.4499 -1.5373 -1.6285
    1PA    C112 8028   2.339   3.312   4.625  0.1573 -0.2341 -0.1610
    1PA    H12R 8029   2.303   3.413   4.645  0.3202  0.6455 -3.7176
    1PA    H12S 8030   2.447   3.323   4.611 -0.1272  0.6072 -2.0435
    1PA    C111 8031   2.269   3.269   4.497  0.6088 -0.0339 -0.1296
    1PA    H11R 8032   2.299   3.166   4.477  2.1684  0.3844 -0.0613
    1PA    H11S 8033   2.162   3.257   4.518  0.4317 -0.7309 -1.3396
    1PA    C110 8034   2.280   3.355   4.364  0.1280 -0.0779 -0.0343
    1PA    H10R 8035   2.382   3.379   4.333  0.6053  2.0091  2.7717
    1PA    H10S 8036   2.238   3.288   4.288  0.2408 -0.1745 -0.0133
    1PA     C19 8037   2.201   3.483   4.376 -0.0682 -0.6792  0.7795
    1PA     H9R 8038   2.101   3.452   4.406 -0.8102  1.1414  0.3259
    1PA     H9S 8039   2.245   3.553   4.448  0.3781 -1.5522  1.3665
    1PA     C18 8040   2.190   3.567   4.250 -0.6963  0.1573  0.1293
    1PA     H8R 8041   2.287   3.614   4.232 -1.4125  1.0841 -1.6039
    1PA     H8S 8042   2.185   3.500   4.164 -1.3605 -2.5977  2.1837
    1PA     C17 8043   2.079   3.666   4.256 -0.8858  0.4382  0.8800
    1PA     H7R 8044   1.995   3.614   4.301  0.5380 -1.7059  1.1923
    1PA     H7S 8045   2.105   3.748   4.323 -1.4925  1.1527  0.2682
    1PA     C16 8046   2.044   3.746   4.127  0.6306  0.3115  0.9833
    1PA     H6R 8047   2.000   3.675   4.057  0.5047  2.4590 -1.2311
    1PA     H6S 8048   1.968   3.824   4.129  0.1305  0.0801 -2.4939
    1PA     C15 8049   2.171   3.811   4.070  0.1675 -0.1365 -0.2053
    1PA     H5R 8050   2.218   3.876   4.144 -0.4411  1.5664 -1.2727
    1PA     H5S 8051   2.240   3.731   4.040  0.0391 -0.4536  0.3265
    1PA     C14 8052   2.151   3.892   3.941  0.1087  0.1075  0.5829
    1PA     H4R 8053   2.084   3.976   3.959  0.9471  0.7812  0.6047
    1PA     H4S 8054   2.249   3.932   3.915 -0.9848  2.8934  0.4904
    1PA     C13 8055   2.103   3.790   3.837  0.3713  0.0276  0.0479
    1PA     H3R 8056   2.181   3.715   3.823 -1.0639 -1.7744  1.2114
    1PA     H3S 8057   2.015   3.737   3.874  1.3873  0.0078  2.6023
    1PA     C12 8058   2.069   3.854   3.702 -0.4206 -0.4102 -0.5837
    1PA     H2R 8059   1.986   3.923   3.713  1.0689  1.3898 -0.0682
    1PA     H2S 8060   2.153   3.909   3.659 -0.4400 -0.5444 -0.7936
    1PC     C11 8061   2.020   3.753   3.606  0.1857  0.2917  0.2654
    1PC     O12 8062   2.085   3.654   3.573  0.1119  0.6414 -0.1005
    1PC     O11 8063   1.903   3.793   3.552  0.9322 -0.5641 -0.2372
    1PC      C1 8064   1.836   3.732   3.437  0.7675  0.1475  0.1446
    1PC      HR 8065   1.738   3.780   3.425 -0.3309 -2.1196 -0.6979
    1PC      HS 8066   1.900   3.741   3.349  1.0156 -0.0768  0.3020
    1PC      C2 8067   1.792   3.580   3.454  0.2577 -0.2309  0.4544
    1PC      HX 8068   1.880   3.515   3.447  0.2003 -0.2483 -0.2057
    1PC      C3 8069   1.696   3.544   3.336 -0.6255  0.2320  0.0652
    1PC      HA 8070   1.708   3.608   3.249  2.1804  0.5162  0.5810
    1PC      HB 8071   1.734   3.448   3.301 -0.6439  0.7933 -1.5759
    1PC     O31 8072   1.560   3.508   3.374  0.0140  0.4712 -0.3752
    1PC     P31 8073   1.447   3.447   3.285  0.1538  0.3292  0.0541
    1PC     O32 8074   1.380   3.579   3.235 -0.1820 -0.5239 -0.0470
    1PC     C31 8075   1.437   3.665   3.128 -0.6706  0.3077 -0.8978
    1PC     H1A 8076   1.476   3.756   3.174  0.0528  0.2465 -1.3747
    1PC     H1B 8077   1.527   3.625   3.079  0.1115  1.4657 -0.4643
    1PC     C32 8078   1.329   3.698   3.029  0.4025 -0.1436 -0.0067
    1PC     H2A 8079   1.247   3.746   3.084 -1.0052 -2.6151  0.1819
    1PC     H2B 8080   1.360   3.782   2.967  0.3598 -0.4731 -0.4715
    1PC     N31 8081   1.264   3.592   2.946  0.1720 -1.2123  0.1502
    1PC     C33 8082   1.359   3.502   2.885 -0.1497 -0.5935 -0.7972
    1PC     H3A 8083   1.418   3.456   2.964 -0.6470  1.1053  0.6053
    1PC     H3B 8084   1.301   3.430   2.827  0.0585 -0.4854 -1.1412
    1PC     H3C 8085   1.413   3.566   2.815 -0.9278  0.1683 -0.7132
    1PC     C34 8086   1.168   3.517   3.025  0.3889 -0.3240 -0.7847
    1PC     H4A 8087   1.106   3.584   3.084  3.7143  0.5808  1.9949
    1PC     H4B 8088   1.113   3.440   2.970 -2.6389 -1.0271  2.7910
    1PC     H4C 8089   1.222   3.468   3.105 -0.8303 -1.2315 -0.4827
    1PC     C35 8090   1.188   3.655   2.839 -0.1615  0.3152 -0.0823
    1PC     H5A 8091   1.262   3.709   2.780  2.0673 -1.2233  1.1412
    1PC     H5B 8092   1.111   3.724   2.875 -0.7678 -0.0362 -0.6719
    1PC     H5C 8093   1.147   3.568   2.787  1.2708  0.0820 -0.8726
    1PC     O33 8094   1.514   3.388   3.168  0.1412 -0.3257  0.4801
    1PC     O34 8095   1.353   3.371   3.365 -0.3848  0.6908  0.4393
    1PC     O21 8096   1.733   3.557   3.583  0.7645  0.5897 -0.1408
    1PC     C21 8097   1.768   3.453   3.666  0.2851 -0.0522 -0.7463
    1PC     O22 8098   1.856   3.374   3.647 -0.2020 -0.5030  0.7315
    1OL     C12 8099   1.684   3.443   3.791  0.6693  0.8457  0.3968
    1OL     H2R 8100   1.680   3.339   3.824 -2.8988  0.3252 -1.1590
    1OL     H2S 8101   1.580   3.459   3.759  0.2054 -2.0034  0.2798
    1OL     C13 8102   1.726   3.534   3.909  0.1193 -0.4400 -0.0029
    1OL     H3R 8103   1.728   3.632   3.860 -0.3344 -0.8978 -0.9664
    1OL     H3S 8104   1.830   3.524   3.940  0.0819 -1.7964 -0.2420
    1OL     C14 8105   1.636   3.517   4.031 -0.5014 -0.7480 -0.4870
    1OL     H4R 8106   1.665   3.423   4.078 -1.5378 -0.3383  1.0547
    1OL     H4S 8107   1.535   3.501   3.994 -1.1550 -0.4721  1.0768
    1OL     C15 8108   1.653   3.630   4.138  0.1548  0.7894 -0.0052
    1OL     H5R 8109   1.733   3.701   4.116  0.8933  0.8012  2.4414
    1OL     H5S 8110   1.706   3.589   4.224 -0.8352  2.3248  1.3993
    1OL     C16 8111   1.517   3.697   4.179  0.1840  0.0589 -0.0481
    1OL     H6R 8112   1.460   3.733   4.093 -1.0078  2.5575  1.6728
    1OL     H6S 8113   1.533   3.788   4.236 -0.3437  0.4520 -0.5169
    1OL     C17 8114   1.424   3.609   4.267 -0.3708 -0.1512  0.2361
    1OL     H7R 8115   1.402   3.513   4.220 -0.9786 -0.9574  2.0688
    1OL     H7S 8116   1.331   3.659   4.294 -1.7899 -2.1041 -0.7288
    1OL     C18 8117   1.490   3.569   4.404 -0.0807 -0.1082  0.0601
    1OL     H8R 8118   1.583   3.520   4.373  0.9429  1.1565  0.9719
    1OL     H8S 8119   1.422   3.494   4.444 -0.5202 -0.4635 -1.3219
    1OL     C19 8120   1.515   3.687   4.497 -0.3463 -0.1461  0.5141
    1OL     H9R 8121   1.417   3.730   4.517 -1.8017 -0.3549 -4.6664
    1OL    C110 8122   1.631   3.724   4.548 -0.3198 -0.0066 -0.3920
    1OL    H10R 8123   1.630   3.816   4.606  0.2411 -0.1704 -0.1129
    1OL    C111 8124   1.761   3.648   4.535 -0.2991  0.0826 -0.8170
    1OL    H11R 8125   1.801   3.661   4.435 -2.9888 -0.2509 -2.0127
    1OL    H11S 8126   1.727   3.544   4.542  0.1028  0.0724  2.7514
    1OL    C112 8127   1.867   3.678   4.645  0.2412 -0.2681 -0.2306
    1OL    H12R 8128   1.825   3.661   4.744 -2.6033  1.9038 -0.8971
    1OL    H12S 8129   1.868   3.786   4.629  0.2686 -0.3680 -0.9705
    1OL    C113 8130   2.001   3.618   4.633 -0.4703 -0.0466 -0.7659
    1OL    H13R 8131   2.037   3.628   4.530 -0.5320 -0.7265 -0.8579
    1OL    H13S 8132   1.997   3.514   4.665 -1.5236  0.4200  0.6579
    1OL    C114 8133   2.102   3.691   4.731 -0.5202 -0.2968  0.0321
    1OL    H14R 8134   2.110   3.798   4.714  1.1198 -0.0617  1.8418
    1OL    H14S 8135   2.205   3.661   4.707  0.3552  1.1347  1.7571
    1OL    C115 8136   2.088   3.661   4.877 -0.2254  0.5522  0.3261
    1OL    H15R 8137   2.104   3.554   4.890 -1.5350  0.3943  0.7941
    1OL    H15S 8138   1.984   3.684   4.900 -0.6847  0.5750 -1.5840
    1OL    C116 8139   2.187   3.745   4.971  0.3662  0.3192 -0.1898
    1OL    H16R 8140   2.181   3.850   4.944  0.6964 -0.0759 -1.9147
    1OL    H16S 8141   2.285   3.700   4.952  0.0754 -0.6147  0.4015
    1OL    C117 8142   2.155   3.727   5.120  0.0842  0.0680 -0.5502
    1OL    H17R 8143   2.148   3.623   5.151 -0.3189 -0.3890 -2.0654
    1OL    H17S 8144   2.060   3.781   5.128 -0.3614 -0.5756 -1.3444
    1OL    C118 8145   2.248   3.794   5.215  0.0493 -0.1955 -0.0474
    1OL    H18R 8146   2.336   3.729   5.218 -1.5697 -2.6293 -1.4226
    1OL    H18S 8147   2.203   3.798   5.314  1.4311  0.7659  0.5603
    1OL    H18T 8148   2.286   3.890   5.179 -0.6497  0.2415  0.3550
    1PA    C116 8149   3.892   1.039   4.964  0.1529 -0.1501  0.7230
    1PA    H16R 8150   3.858   1.113   5.036 -1.7688 -1.3906  1.1710
    1PA    H16S 8151   3.824   0.956   4.985  1.2303 -2.0268 -2.4124
    1PA    H16T 8152   3.874   1.072   4.861  1.2390  0.3381  0.6740
    1PA    C115 8153   4.040   1.004   4.995 -0.4417  0.5047  0.6065
    1PA    H15R 8154   4.043   0.968   5.098  0.5340 -1.8397 -0.1658
    1PA    H15S 8155   4.071   0.919   4.934 -1.7254  0.8194 -0.5332
    1PA    C114 8156   4.132   1.133   4.975  0.4318  0.7292 -0.1090
    1PA    H14R 8157   4.115   1.216   5.044  2.2625  2.0145 -1.0864
    1PA    H14S 8158   4.236   1.099   4.981  0.3337  0.4359 -0.0756
    1PA    C113 8159   4.123   1.203   4.835 -0.0248 -0.6610 -0.0216
    1PA    H13R 8160   4.035   1.268   4.827  2.1390  2.2901 -2.2916
    1PA    H13S 8161   4.205   1.274   4.833  0.9174 -1.7132  0.3291
    1PA    C112 8162   4.141   1.107   4.717 -0.0824 -0.2302 -1.0984
    1PA    H12R 8163   4.230   1.047   4.736  0.0843  0.6384  1.0681
    1PA    H12S 8164   4.059   1.036   4.707  0.0437 -0.4373 -0.6679
    1PA    C111 8165   4.159   1.197   4.587 -0.4459  0.2868  0.5744
    1PA    H11R 8166   4.063   1.249   4.581 -0.5126  0.0667 -0.6560
    1PA    H11S 8167   4.247   1.262   4.592 -0.8158  0.9212 -0.6867
    1PA    C110 8168   4.167   1.103   4.467  0.9170  0.3105 -0.0793
    1PA    H10R 8169   4.247   1.030   4.484 -1.4170 -2.1503  1.1257
    1PA    H10S 8170   4.073   1.049   4.460  0.7728  0.5568 -0.0578
    1PA     C19 8171   4.204   1.188   4.339 -0.2687 -0.7048  0.4624
    1PA     H9R 8172   4.305   1.229   4.350 -0.0847 -1.0318 -0.0017
    1PA     H9S 8173   4.199   1.119   4.255 -2.1185  1.8795 -1.7147
    1PA     C18 8174   4.109   1.307   4.311 -0.4248  0.3220 -0.7685
    1PA     H8R 8175   4.013   1.263   4.287 -0.0794 -0.6400 -0.4247
    1PA     H8S 8176   4.098   1.365   4.403 -0.2218 -0.5244 -0.1982
    1PA     C17 8177   4.140   1.405   4.196  1.1544 -0.0553  0.3570
    1PA     H7R 8178   4.056   1.475   4.190 -0.1546 -1.6060 -0.2279
    1PA     H7S 8179   4.224   1.470   4.221  0.4144  1.1793 -0.2668
    1PA     C16 8180   4.146   1.338   4.056  0.1494  0.3077  0.6342
    1PA     H6R 8181   4.205   1.248   4.072 -1.6769 -0.8115  1.4803
    1PA     H6S 8182   4.049   1.296   4.028  0.7126 -0.8568  0.3994
    1PA     C15 8183   4.195   1.434   3.949 -1.0441 -0.1814 -0.1260
    1PA     H5R 8184   4.153   1.535   3.947 -1.0190 -0.1537 -2.3538
    1PA     H5S 8185   4.302   1.456   3.951 -0.8594 -1.0736  0.1640
    1PA     C14 8186   4.159   1.394   3.810 -0.0243 -0.0080  0.7431
    1PA     H4R 8187   4.216   1.302   3.794  1.5023  0.4903  2.9195
    1PA     H4S 8188   4.053   1.368   3.801  0.5616 -1.9636 -1.4105
    1PA     C13 8189   4.182   1.503   3.696  0.0066  0.1649 -1.3189
    1PA     H3R 8190   4.258   1.572   3.731  0.7974 -1.5624  0.6041
    1PA     H3S 8191   4.216   1.444   3.610 -0.5576 -3.5838  0.8045
    1PA     C12 8192   4.049   1.574   3.650  0.0067  0.1124 -0.6254
    1PA     H2R 8193   3.978   1.493   3.632  1.3518 -0.9904 -1.1967
    1PA     H2S 8194   4.001   1.640   3.722 -2.4897 -1.8728 -0.3232
    1PC     C11 8195   4.068   1.654   3.531 -0.1861  0.6944 -0.7174
    1PC     O12 8196   4.170   1.665   3.461 -0.3693 -0.4399 -0.5334
    1PC     O11 8197   3.948   1.707   3.499  0.0260  0.2999  0.0748
    1PC      C1 8198   3.933   1.763   3.362 -0.1660  0.3943 -0.2259
    1PC      HR 8199   3.974   1.702   3.281  1.0306  0.8966 -0.0135
    1PC      HS 8200   3.824   1.766   3.352 -0.2019 -0.3240 -0.0703
    1PC      C2 8201   3.981   1.909   3.346  0.1978  0.4680 -0.4182
    1PC      HX 8202   3.929   1.953   3.261 -1.5229  0.1730  0.4375
    1PC      C3 8203   4.133   1.916   3.316 -1.0139 -0.2443  0.2319
    1PC      HA 8204   4.194   1.925   3.406  0.7417 -1.3120 -0.7933
    1PC      HB 8205   4.157   1.827   3.258 -0.3575 -1.3161  2.0862
    1PC     O31 8206   4.150   2.042   3.240  0.5541  0.0807 -0.2337
    1PC     P31 8207   4.142   2.049   3.081  0.1425 -0.2887  0.4443
    1PC     O32 8208   4.266   1.957   3.043 -0.7226  0.2246  0.3447
    1PC     C31 8209   4.401   2.013   3.064  0.4451  0.3151 -0.5601
    1PC     H1A 8210   4.416   2.097   2.996  0.3938 -0.1121 -1.1055
    1PC     H1B 8211   4.402   2.038   3.170 -0.4887  2.1032 -0.9318
    1PC     C32 8212   4.508   1.912   3.016 -0.4106  0.4492 -0.2378
    1PC     H2A 8213   4.493   1.811   3.054  0.8758 -0.3430 -1.7142
    1PC     H2B 8214   4.516   1.914   2.907  0.2753 -0.5414 -0.2238
    1PC     N31 8215   4.651   1.946   3.066 -0.0164  0.6323 -0.3543
    1PC     C33 8216   4.657   1.940   3.211  0.9009  0.0105 -0.1240
    1PC     H3A 8217   4.642   1.837   3.242 -0.5249  0.6633  1.5663
    1PC     H3B 8218   4.749   1.985   3.249  1.2387 -1.0156  0.3072
    1PC     H3C 8219   4.573   2.002   3.246  0.2623 -0.5316 -0.6672
    1PC     C34 8220   4.744   1.851   3.005  0.1920 -0.3072 -0.0968
    1PC     H4A 8221   4.763   1.884   2.903  0.2408 -1.7446 -0.5640
    1PC     H4B 8222   4.840   1.848   3.056  0.5632 -0.4876 -0.7901
    1PC     H4C 8223   4.701   1.752   2.993  2.4893 -1.4328  0.4890
    1PC     C35 8224   4.685   2.082   3.021  0.1299  0.8265 -0.4039
    1PC     H5A 8225   4.680   2.083   2.912  0.4227  3.5675 -0.4499
    1PC     H5B 8226   4.787   2.110   3.047  0.7439  0.3739 -2.1792
    1PC     H5C 8227   4.617   2.156   3.063 -0.2160 -0.5472  1.5720
    1PC     O33 8228   4.025   1.965   3.039  0.2349  0.2075  0.2201
    1PC     O34 8229   4.157   2.183   3.030 -0.2369 -0.4156 -0.0320
    1PC     O21 8230   3.943   1.991   3.468 -0.2898  0.7764  0.4625
    1PC     C21 8231   3.809   2.021   3.479 -0.6837  0.4698 -0.2377
    1PC     O22 8232   3.715   1.969   3.414 -0.6382 -0.0196 -0.1771
    1OL     C12 8233   3.787   2.142   3.564  0.2275 -0.4938  0.1211
    1OL     H2R 8234   3.715   2.208   3.514 -1.2910 -0.1677  2.5580
    1OL     H2S 8235   3.878   2.202   3.574 -0.4488  1.0527 -2.0144
    1OL     C13 8236   3.727   2.110   3.703 -0.5869 -0.3968 -0.0673
    1OL     H3R 8237   3.635   2.055   3.682 -0.9977  0.7187 -1.3098
    1OL     H3S 8238   3.708   2.208   3.749 -2.3710 -1.0162  0.6151
    1OL     C14 8239   3.816   2.024   3.795  0.0383  0.4518 -0.1211
    1OL     H4R 8240   3.902   2.084   3.824  0.0247  0.8769 -0.9577
    1OL     H4S 8241   3.851   1.937   3.739  2.2870  0.3989  1.2444
    1OL     C15 8242   3.739   1.985   3.926  0.5556 -0.3194  0.0689
    1OL     H5R 8243   3.643   1.938   3.903  0.3293  0.5452 -0.8251
    1OL     H5S 8244   3.701   2.079   3.968 -0.6520 -0.0508 -1.5462
    1OL     C16 8245   3.822   1.913   4.032  0.0573 -0.3480 -0.3367
    1OL     H6R 8246   3.786   1.941   4.131 -0.7076  2.2732 -1.2929
    1OL     H6S 8247   3.927   1.943   4.027  0.1679 -0.8499 -1.4743
    1OL     C17 8248   3.823   1.762   4.027 -0.7720 -0.1996 -0.5239
    1OL     H7R 8249   3.875   1.731   3.937  1.3353  1.6609 -0.0312
    1OL     H7S 8250   3.720   1.726   4.022 -0.2320 -1.7107 -1.3669
    1OL     C18 8251   3.895   1.686   4.143  0.4928 -0.4379 -0.1604
    1OL     H8R 8252   3.885   1.579   4.122 -0.6262 -0.3109 -0.3281
    1OL     H8S 8253   3.839   1.713   4.233 -0.3789  1.0387 -1.1042
    1OL     C19 8254   4.044   1.722   4.148 -0.7947 -0.4874 -0.7515
    1OL     H9R 8255   4.097   1.713   4.054  1.4276  1.9383  0.1378
    1OL    C110 8256   4.116   1.762   4.256  0.3903  0.3188  0.3871
    1OL    H10R 8257   4.217   1.794   4.234  0.6144  0.2014  1.2257
    1OL    C111 8258   4.063   1.784   4.396  0.2978  0.0613 -0.3399
    1OL    H11R 8259   3.956   1.803   4.401  0.3361 -0.0254  1.2895
    1OL    H11S 8260   4.116   1.869   4.439 -0.1984  0.1820  0.0320
    1OL    C112 8261   4.086   1.667   4.493  0.5862  0.6290  0.5979
    1OL    H12R 8262   4.186   1.628   4.472 -0.1368 -0.0474 -1.8884
    1OL    H12S 8263   4.012   1.590   4.473  0.2297  1.0916  0.1176
    1OL    C113 8264   4.074   1.696   4.639  0.5121 -0.0671 -0.7743
    1OL    H13R 8265   4.039   1.608   4.694  0.9759 -0.2768 -0.8149
    1OL    H13S 8266   3.994   1.769   4.654 -0.9014 -1.5760 -0.6966
    1OL    C114 8267   4.213   1.724   4.685 -0.2633  0.0943  0.9505
    1OL    H14R 8268   4.259   1.801   4.623  1.5209 -2.1238 -0.6260
    1OL    H14S 8269   4.274   1.635   4.673 -1.0126 -0.3238  0.1117
    1OL    C115 8270   4.230   1.783   4.826 -0.2914  0.3693  0.6002
    1OL    H15R 8271   4.152   1.858   4.844 -0.7118  0.2417 -0.5542
    1OL    H15S 8272   4.330   1.824   4.839  0.2999 -0.3706 -1.2692
    1OL    C116 8273   4.202   1.686   4.939  0.8489 -0.2419  0.1125
    1OL    H16R 8274   4.096   1.660   4.934  0.6666  0.4762  0.1636
    1OL    H16S 8275   4.210   1.741   5.032  1.5769 -0.5516  0.2412
    1OL    C117 8276   4.286   1.555   4.938  0.1580 -0.1727  0.1083
    1OL    H17R 8277   4.387   1.594   4.945 -0.0050  0.2023  0.3854
    1OL    H17S 8278   4.264   1.500   4.846 -0.6039 -0.0664  0.2184
    1OL    C118 8279   4.259   1.472   5.062  0.3890 -0.7429  0.3556
    1OL    H18R 8280   4.152   1.454   5.064  0.3416 -0.7241 -1.1201
    1OL    H18S 8281   4.277   1.532   5.152 -0.5823 -0.4791  0.3832
    1OL    H18T 8282   4.312   1.377   5.064 -1.3789 -1.7671  2.0385
    1PA    C116 8283   3.593   0.168   5.266 -0.1004 -0.5849 -0.1041
    1PA    H16R 8284   3.624   0.087   5.333 -1.7902 -1.6827 -0.5787
    1PA    H16S 8285   3.503   0.213   5.310 -0.9013  0.2253 -2.4144
    1PA    H16T 8286   3.671   0.243   5.257  1.2856 -1.7678  1.4737
    1PA    C115 8287   3.552   0.118   5.126 -0.2760 -0.1221  0.3416
    1PA    H15R 8288   3.470   0.046   5.134 -0.3114 -0.8400 -3.8921
    1PA    H15S 8289   3.522   0.206   5.070 -1.3887  0.1309  1.3057
    1PA    C114 8290   3.675   0.044   5.071  0.6020 -0.3233  1.1752
    1PA    H14R 8291   3.763   0.109   5.064  0.2882  0.0130  0.2094
    1PA    H14S 8292   3.699  -0.033   5.144 -0.1662  0.5861  2.4409
    1PA    C113 8293   3.643  -0.019   4.928  0.8887 -0.2922 -0.8912
    1PA    H13R 8294   3.566  -0.096   4.943  1.0688 -0.3389 -0.1986
    1PA    H13S 8295   3.616   0.060   4.857  1.8783  0.7899 -0.0944
    1PA    C112 8296   3.763  -0.092   4.869  0.1603  0.1136  0.1878
    1PA    H12R 8297   3.852  -0.030   4.880 -0.5107  0.7339  2.7960
    1PA    H12S 8298   3.788  -0.177   4.933  2.1748  1.0134  0.7017
    1PA    C111 8299   3.757  -0.144   4.723 -0.0193  0.2090 -0.3019
    1PA    H11R 8300   3.747  -0.060   4.655 -2.2707  0.1288 -0.1395
    1PA    H11S 8301   3.851  -0.198   4.710 -0.2843 -0.7131  1.3193
    1PA    C110 8302   3.644  -0.241   4.703  0.5437 -0.2757 -0.2784
    1PA    H10R 8303   3.673  -0.328   4.762  0.5334  0.4225  0.7908
    1PA    H10S 8304   3.556  -0.206   4.757 -0.0016 -2.8782  0.6732
    1PA     C19 8305   3.622  -0.275   4.555 -0.4405 -0.3125  0.1197
    1PA     H9R 8306   3.709  -0.309   4.499 -0.9954 -1.4879 -0.0640
    1PA     H9S 8307   3.559  -0.365   4.558  1.3510 -1.6166  0.2093
    1PA     C18 8308   3.551  -0.164   4.471  0.1535  0.1634 -0.3434
    1PA     H8R 8309   3.458  -0.141   4.524 -1.6001 -1.3063 -2.5698
    1PA     H8S 8310   3.610  -0.072   4.470  0.5556 -0.0722  0.7835
    1PA     C17 8311   3.509  -0.212   4.333  0.1934  0.6548 -0.1639
    1PA     H7R 8312   3.594  -0.230   4.267 -0.0173  0.1627 -0.3055
    1PA     H7S 8313   3.453  -0.306   4.334 -0.1338  0.7639 -2.4366
    1PA     C16 8314   3.426  -0.115   4.251 -0.1018  0.4838  0.9930
    1PA     H6R 8315   3.466  -0.013   4.260  0.7558  0.0129  3.1847
    1PA     H6S 8316   3.428  -0.138   4.144 -0.9068 -1.3098  1.3437
    1PA     C15 8317   3.276  -0.114   4.290 -0.1686  0.4803 -0.1098
    1PA     H5R 8318   3.217  -0.202   4.266 -0.8548  1.0332 -0.4941
    1PA     H5S 8319   3.264  -0.099   4.398  0.7345  0.2729  0.0249
    1PA     C14 8320   3.199  -0.000   4.215  0.4479  0.1666 -0.1790
    1PA     H4R 8321   3.095   0.000   4.250  0.2173 -1.6549 -0.7396
    1PA     H4S 8322   3.232   0.100   4.242 -1.9513  1.1063 -0.5015
    1PA     C13 8323   3.200  -0.018   4.060 -0.8406  0.0789 -0.3405
    1PA     H3R 8324   3.301  -0.021   4.020 -0.7302  1.7839 -0.2711
    1PA     H3S 8325   3.160  -0.117   4.041  0.6777 -0.6505  0.1106
    1PA     C12 8326   3.113   0.086   3.987 -0.4003  0.4779  0.5171
    1PA     H2R 8327   3.005   0.083   4.004 -0.6413  0.3797 -0.8964
    1PA     H2S 8328   3.143   0.190   4.005 -1.2267  0.6253  1.1122
    1PC     C11 8329   3.122   0.063   3.840  0.1057 -0.0359 -0.0685
    1PC     O12 8330   3.151  -0.042   3.785  0.3428  0.0574 -0.2280
    1PC     O11 8331   3.104   0.185   3.778  0.1147  0.0772  0.1208
    1PC      C1 8332   3.141   0.189   3.633  0.2862  0.5212 -0.4795
    1PC      HR 8333   3.226   0.124   3.609 -0.9413 -0.6981 -1.7628
    1PC      HS 8334   3.055   0.160   3.573 -1.0960  0.5151  1.3991
    1PC      C2 8335   3.166   0.332   3.583 -0.0269  0.0853 -0.0100
    1PC      HX 8336   3.067   0.377   3.583  0.5675  1.5034  1.4530
    1PC      C3 8337   3.242   0.319   3.446  0.1340  0.1996 -0.5341
    1PC      HA 8338   3.172   0.286   3.369  0.0731  0.1226 -0.4460
    1PC      HB 8339   3.261   0.418   3.404 -0.1085  1.3905  1.9893
    1PC     O31 8340   3.357   0.240   3.440 -0.6103  0.1603 -0.2650
    1PC     P31 8341   3.438   0.216   3.310 -0.2970 -0.4683  0.7123
    1PC     O32 8342   3.358   0.095   3.242  0.3164 -0.8143 -0.1649
    1PC     C31 8343   3.360  -0.039   3.306 -0.1922  0.0802  0.3540
    1PC     H1A 8344   3.369  -0.035   3.415 -0.8576  0.0377  0.4135
    1PC     H1B 8345   3.267  -0.089   3.279 -0.0325  0.2325 -0.5035
    1PC     C32 8346   3.482  -0.116   3.242  0.2405  0.2598 -0.6112
    1PC     H2A 8347   3.576  -0.061   3.246 -0.1844  1.0104 -0.7366
    1PC     H2B 8348   3.495  -0.208   3.299  0.2320 -0.2433 -1.4066
    1PC     N31 8349   3.471  -0.148   3.095  0.1843  0.0353  0.3751
    1PC     C33 8350   3.347  -0.229   3.072  0.0347  0.1518  0.8356
    1PC     H3A 8351   3.360  -0.322   3.128 -1.0682  0.2465  1.2856
    1PC     H3B 8352   3.261  -0.170   3.106 -1.8498 -0.4608 -2.4369
    1PC     H3C 8353   3.332  -0.248   2.966 -0.1608  0.0629  0.8773
    1PC     C34 8354   3.477  -0.029   2.998 -0.5265  0.0145 -0.6214
    1PC     H4A 8355   3.401   0.046   3.021  0.0079  0.2090  0.5679
    1PC     H4B 8356   3.564   0.035   3.013 -1.6723  3.1370 -5.2383
    1PC     H4C 8357   3.475  -0.059   2.893  0.4370  1.8690 -1.2016
    1PC     C35 8358   3.584  -0.237   3.065 -1.3019  0.3673  0.1643
    1PC     H5A 8359   3.548  -0.282   2.972 -1.2666  2.3048 -0.8544
    1PC     H5B 8360   3.605  -0.314   3.139 -0.1076 -0.2078 -0.7376
    1PC     H5C 8361   3.674  -0.182   3.038 -0.5702 -0.8646  0.0339
    1PC     O33 8362   3.421   0.335   3.220 -0.0549 -0.1626 -0.0508
    1PC     O34 8363   3.572   0.171   3.336  0.0228  0.1611 -0.6008
    1PC     O21 8364   3.253   0.394   3.684  0.8045  0.2906  0.4305
    1PC     C21 8365   3.262   0.530   3.685 -0.5249  0.0569 -0.1913
    1PC     O22 8366   3.210   0.597   3.604  0.3774  0.0610 -0.2906
    1OL     C12 8367   3.345   0.589   3.787 -0.1397 -0.7154 -0.4855
    1OL     H2R 8368   3.420   0.653   3.740  0.3530 -1.3314 -0.5458
    1OL     H2S 8369   3.403   0.512   3.838 -1.4233  0.5235  3.2291
    1OL     C13 8370   3.260   0.655   3.891 -0.4450 -0.8101 -0.0657
    1OL     H3R 8371   3.182   0.589   3.928  0.0753 -0.9787  0.7775
    1OL     H3S 8372   3.197   0.731   3.845 -1.1525 -1.2803  0.1169
    1OL     C14 8373   3.341   0.710   4.006 -0.0965  0.1265 -0.1306
    1OL     H4R 8374   3.424   0.773   3.973  1.9189 -0.8544  2.6476
    1OL     H4S 8375   3.395   0.629   4.055  4.3563  3.7597  1.7631
    1OL     C15 8376   3.259   0.780   4.117 -0.4370  0.1422  0.2452
    1OL     H5R 8377   3.198   0.699   4.157 -0.5197 -0.8195 -1.7400
    1OL     H5S 8378   3.197   0.850   4.060 -1.2163  0.3409  1.3087
    1OL     C16 8379   3.340   0.850   4.230 -0.0083  0.2850 -0.1814
    1OL     H6R 8380   3.427   0.899   4.184  1.2332 -1.3043  0.3960
    1OL     H6S 8381   3.372   0.767   4.293 -0.3687  1.0052  0.9758
    1OL     C17 8382   3.247   0.937   4.313 -0.1087 -0.0450  0.0699
    1OL     H7R 8383   3.162   0.875   4.343 -0.0181 -0.9451 -1.3853
    1OL     H7S 8384   3.209   1.011   4.242 -0.9770 -1.3007 -0.8278
    1OL     C18 8385   3.307   1.004   4.440 -0.1286  0.7094 -0.1354
    1OL     H8R 8386   3.382   1.080   4.416  1.7654 -1.6109 -2.1362
    1OL     H8S 8387   3.356   0.928   4.500  0.2575 -0.9624 -2.4356
    1OL     C19 8388   3.196   1.075   4.523 -0.0829  0.1008 -0.4917
    1OL     H9R 8389   3.097   1.071   4.481 -1.5814 -1.9765  2.7988
    1OL    C110 8390   3.227   1.122   4.645 -0.7129 -0.5701  0.1026
    1OL    H10R 8391   3.150   1.167   4.707  0.3807  0.3483  0.8431
    1OL    C111 8392   3.365   1.150   4.699 -0.2641  0.3271 -0.1050
    1OL    H11R 8393   3.375   1.256   4.721 -1.9760  0.2201  1.4325
    1OL    H11S 8394   3.440   1.116   4.627 -1.1352  1.5580 -1.6512
    1OL    C112 8395   3.374   1.074   4.841  0.8347 -0.4160 -0.1771
    1OL    H12R 8396   3.380   0.967   4.819  2.5878 -0.2538 -0.6642
    1OL    H12S 8397   3.287   1.098   4.902  1.8932  0.2853  1.0963
    1OL    C113 8398   3.498   1.109   4.922 -0.1246 -0.1205  0.6420
    1OL    H13R 8399   3.514   1.217   4.920  0.2827 -0.1507  1.6008
    1OL    H13S 8400   3.577   1.059   4.866 -2.0885 -4.2812  1.1721
    1OL    C114 8401   3.500   1.067   5.069  0.1081 -0.6334  0.5930
    1OL    H14R 8402   3.427   1.133   5.117 -0.1322 -0.3044 -0.2204
    1OL    H14S 8403   3.598   1.093   5.109 -0.3800 -0.2220  1.5842
    1OL    C115 8404   3.464   0.914   5.096 -0.2925 -0.2103 -0.1483
    1OL    H15R 8405   3.528   0.857   5.030  1.3060  0.5577  0.6816
    1OL    H15S 8406   3.359   0.890   5.077 -0.2087 -0.5675 -0.1601
    1OL    C116 8407   3.520   0.872   5.233 -0.0667  0.4320 -0.5512
    1OL    H16R 8408   3.485   0.938   5.313  0.7804 -0.0575  0.2440
    1OL    H16S 8409   3.628   0.879   5.217 -0.3879 -0.4001 -3.8150
    1OL    C117 8410   3.479   0.726   5.263  0.9569 -0.5642 -0.4268
    1OL    H17R 8411   3.538   0.695   5.350  0.4680 -0.3600 -0.0139
    1OL    H17S 8412   3.501   0.660   5.179 -1.5786  0.9026 -2.3590
    1OL    C118 8413   3.329   0.702   5.299 -0.3825  0.5723 -0.0159
    1OL    H18R 8414   3.291   0.757   5.385 -0.2356  2.4452 -1.0995
    1OL    H18S 8415   3.311   0.596   5.317  0.5086  0.5968  1.0489
    1OL    H18T 8416   3.263   0.715   5.212 -1.4480  1.6522  0.9137
    1PA    C116 8417   4.046   3.640   5.176 -0.3181  0.5057 -0.1394
    1PA    H16R 8418   4.055   3.586   5.081  0.0782  0.5669 -0.1390
    1PA    H16S 8419   3.973   3.586   5.235  1.2226 -1.8714 -0.2606
    1PA    H16T 8420   4.144   3.639   5.225 -0.2893  1.5148 -0.1594
    1PA    C115 8421   4.015   3.781   5.148  0.2379 -0.1593 -0.5773
    1PA    H15R 8422   4.009   3.831   5.245 -0.2662 -0.7280 -0.3102
    1PA    H15S 8423   4.103   3.824   5.099  0.4908  0.0260  0.0242
    1PA    C114 8424   3.892   3.804   5.058 -0.7946  0.2256  0.2084
    1PA    H14R 8425   3.803   3.749   5.090 -1.2502  0.7566 -0.1191
    1PA    H14S 8426   3.870   3.911   5.058  0.0626  0.4182 -0.7123
    1PA    C113 8427   3.921   3.759   4.910 -0.2983  0.0735 -0.1284
    1PA    H13R 8428   4.019   3.793   4.876 -0.7898  1.7046  0.0303
    1PA    H13S 8429   3.927   3.650   4.904  1.6413  0.2063 -1.4373
    1PA    C112 8430   3.808   3.807   4.820  0.3864 -0.3440  0.5032
    1PA    H12R 8431   3.710   3.780   4.860 -0.5885 -0.0199 -1.5071
    1PA    H12S 8432   3.811   3.915   4.836  1.9690 -0.1975 -0.5970
    1PA    C111 8433   3.828   3.782   4.669 -0.1364  0.3022 -0.2892
    1PA    H11R 8434   3.784   3.868   4.619 -0.0569 -0.4600 -1.7231
    1PA    H11S 8435   3.934   3.782   4.643 -0.5248  0.3137 -1.9928
    1PA    C110 8436   3.778   3.647   4.625 -0.0042  1.5307 -0.3612
    1PA    H10R 8437   3.835   3.568   4.675 -2.1743 -0.8976 -1.4426
    1PA    H10S 8438   3.676   3.625   4.655  0.1357  0.7077 -0.4442
    1PA     C19 8439   3.791   3.626   4.472  0.4764  0.6156  0.4245
    1PA     H9R 8440   3.750   3.527   4.450  3.0996 -0.6561  0.8804
    1PA     H9S 8441   3.738   3.705   4.418  0.5609  1.1325  1.0819
    1PA     C18 8442   3.930   3.630   4.403  0.1305 -0.0697 -0.3101
    1PA     H8R 8443   3.970   3.731   4.413 -0.5881  0.0626  1.9544
    1PA     H8S 8444   4.005   3.572   4.458  0.2194  1.0221  0.7664
    1PA     C17 8445   3.922   3.585   4.256  0.4883  0.0102  0.2963
    1PA     H7R 8446   3.851   3.656   4.213  0.1358 -0.0532  0.7679
    1PA     H7S 8447   4.019   3.594   4.207 -0.3142  0.8372 -1.2223
    1PA     C16 8448   3.875   3.436   4.239 -0.0495 -0.9733 -0.2711
    1PA     H6R 8449   3.933   3.372   4.306  1.3428  1.5493  1.0951
    1PA     H6S 8450   3.773   3.418   4.274 -1.0322  1.2380 -1.7338
    1PA     C15 8451   3.891   3.382   4.093  0.4150 -0.2723 -0.7721
    1PA     H5R 8452   3.991   3.412   4.061 -0.0371 -0.2409 -2.2491
    1PA     H5S 8453   3.871   3.275   4.086 -0.8111 -0.1547  0.3803
    1PA     C14 8454   3.796   3.454   3.999  0.3138 -0.7646  0.0920
    1PA     H4R 8455   3.694   3.440   4.037 -0.5590  0.1427 -1.7597
    1PA     H4S 8456   3.813   3.562   3.993 -2.9764 -0.1993 -0.9542
    1PA     C13 8457   3.808   3.426   3.845 -0.2280  0.3708 -0.0224
    1PA     H3R 8458   3.788   3.320   3.832  1.1878  0.1357 -0.4230
    1PA     H3S 8459   3.739   3.495   3.795 -1.4668 -1.0373 -0.3238
    1PA     C12 8460   3.949   3.444   3.784  0.4879  0.1062 -0.2583
    1PA     H2R 8461   4.020   3.397   3.852  0.0209  0.6452  0.6135
    1PA     H2S 8462   3.954   3.388   3.690  2.2739  2.7948 -1.9322
    1PC     C11 8463   3.989   3.581   3.762 -0.4707  0.0119 -0.3589
    1PC     O12 8464   3.924   3.680   3.796  0.2901 -0.2027  0.3132
    1PC     O11 8465   4.107   3.587   3.694  0.0286 -0.0395  0.3703
    1PC      C1 8466   4.182   3.711   3.661 -0.3735  0.3651 -0.0242
    1PC      HR 8467   4.138   3.741   3.566 -0.4160 -1.4567 -0.6074
    1PC      HS 8468   4.147   3.785   3.734 -1.8016  1.3435 -1.6319
    1PC      C2 8469   4.336   3.685   3.656 -0.2911  0.2183  0.4369
    1PC      HX 8470   4.373   3.785   3.631 -1.2131  0.1221 -1.5129
    1PC      C3 8471   4.382   3.581   3.549  0.1864 -0.1259  0.1752
    1PC      HA 8472   4.443   3.506   3.600 -0.7797 -1.4246 -0.5183
    1PC      HB 8473   4.304   3.541   3.484  0.4943  2.0348 -1.6198
    1PC     O31 8474   4.461   3.653   3.455 -0.0651  0.5141  0.1712
    1PC     P31 8475   4.397   3.741   3.340 -0.0142 -0.0140 -0.0082
    1PC     O32 8476   4.388   3.635   3.220  0.1960 -0.0749 -0.1575
    1PC     C31 8477   4.514   3.588   3.169 -0.1662  0.1090  0.7073
    1PC     H1A 8478   4.598   3.589   3.239  0.0473  0.7267  0.4436
    1PC     H1B 8479   4.494   3.483   3.146 -1.5852  0.2233  1.3086
    1PC     C32 8480   4.561   3.676   3.056 -0.2892 -0.2716 -0.5386
    1PC     H2A 8481   4.562   3.781   3.087 -1.9281  0.0876 -1.6200
    1PC     H2B 8482   4.666   3.649   3.042 -0.1385 -0.9849  1.6022
    1PC     N31 8483   4.498   3.660   2.920  0.2938  0.2578  0.5017
    1PC     C33 8484   4.588   3.727   2.814 -0.2913 -0.0173 -0.2481
    1PC     H3A 8485   4.615   3.827   2.849 -2.4658  1.1626 -1.7301
    1PC     H3B 8486   4.673   3.660   2.801  0.2661 -0.0989  2.8881
    1PC     H3C 8487   4.541   3.748   2.718 -0.7103  0.6066  0.0880
    1PC     C34 8488   4.469   3.526   2.873  0.5797  0.0068 -1.1208
    1PC     H4A 8489   4.395   3.485   2.943  2.2680 -0.1500  0.6402
    1PC     H4B 8490   4.436   3.524   2.769  1.2891 -1.7642 -1.3497
    1PC     H4C 8491   4.563   3.474   2.886  0.1317 -0.4839  0.3648
    1PC     C35 8492   4.356   3.719   2.929  0.2054  0.4977  0.1631
    1PC     H5A 8493   4.368   3.824   2.954  0.5844  0.3360  0.6887
    1PC     H5B 8494   4.319   3.671   3.019  1.5223 -1.2354 -0.1499
    1PC     H5C 8495   4.300   3.700   2.837  3.1051 -0.6471 -1.5034
    1PC     O33 8496   4.259   3.786   3.381 -0.5284  0.1305 -0.2282
    1PC     O34 8497   4.506   3.839   3.316 -0.3553  0.0010  0.1190
    1PC     O21 8498   4.385   3.633   3.783  0.2964  0.0465  0.4813
    1PC     C21 8499   4.375   3.710   3.895  0.0913 -0.8702 -1.1709
    1PC     O22 8500   4.341   3.829   3.895  0.1283  0.0746 -0.0375
    1OL     C12 8501   4.400   3.636   4.024 -0.9591  0.2197  0.0399
    1OL     H2R 8502   4.507   3.640   4.044 -1.1824  0.6932  1.2181
    1OL     H2S 8503   4.377   3.530   4.009  0.7032 -0.0160 -1.2061
    1OL     C13 8504   4.330   3.706   4.148 -0.2010 -0.2863 -0.2870
    1OL     H3R 8505   4.231   3.737   4.114  0.5271  1.1520 -1.1784
    1OL     H3S 8506   4.391   3.791   4.179  1.5736 -2.5424  3.1459
    1OL     C14 8507   4.313   3.604   4.263 -0.5166 -0.1353 -0.4002
    1OL     H4R 8508   4.409   3.552   4.263 -0.2169  0.4013 -1.4302
    1OL     H4S 8509   4.230   3.538   4.238  1.3592 -2.1258 -1.7714
    1OL     C15 8510   4.310   3.667   4.401  0.5943  0.3251 -0.2055
    1OL     H5R 8511   4.223   3.733   4.407  0.1526  0.1718 -3.2489
    1OL     H5S 8512   4.402   3.724   4.411  1.3442 -0.6083 -1.4352
    1OL     C16 8513   4.309   3.572   4.519  0.4059  0.6105 -0.0023
    1OL     H6R 8514   4.391   3.501   4.505 -1.3874 -1.7123  0.6857
    1OL     H6S 8515   4.222   3.506   4.517 -0.1030  1.2206  1.3167
    1OL     C17 8516   4.333   3.649   4.648  0.5605  0.6534  0.1753
    1OL     H7R 8517   4.259   3.724   4.677 -1.7788 -1.0872 -0.9750
    1OL     H7S 8518   4.432   3.695   4.643  2.1464 -2.5172 -0.2810
    1OL     C18 8519   4.350   3.549   4.766  0.2249 -0.4192 -0.4333
    1OL     H8R 8520   4.262   3.488   4.789  0.1580 -0.4243 -0.6990
    1OL     H8S 8521   4.356   3.618   4.850 -1.4685  1.5766 -1.8588
    1OL     C19 8522   4.474   3.462   4.737 -0.0274  0.3204  0.2090
    1OL     H9R 8523   4.459   3.364   4.692 -0.6483  1.7400 -2.9140
    1OL    C110 8524   4.596   3.493   4.774 -0.2237 -0.2854 -0.5904
    1OL    H10R 8525   4.678   3.422   4.761  0.4207  0.5456 -1.1601
    1OL    C111 8526   4.641   3.630   4.817  0.1123 -0.2051 -0.6158
    1OL    H11R 8527   4.552   3.683   4.850  0.3581 -0.7607  1.0354
    1OL    H11S 8528   4.688   3.686   4.736 -0.2181  1.2517  0.1596
    1OL    C112 8529   4.739   3.624   4.934  0.2043 -0.0444  0.5350
    1OL    H12R 8530   4.772   3.727   4.953  2.2934  0.0539 -2.7646
    1OL    H12S 8531   4.829   3.570   4.904  0.5604 -0.6663  2.6173
    1OL    C113 8532   4.682   3.559   5.063 -0.4032 -0.0487 -0.3475
    1OL    H13R 8533   4.636   3.466   5.028  2.8897 -2.5044  1.1780
    1OL    H13S 8534   4.607   3.619   5.114 -2.5748 -3.0346  0.2519
    1OL    C114 8535   4.796   3.507   5.164  0.6307  0.2314 -0.6128
    1OL    H14R 8536   4.802   3.588   5.238  2.8895 -0.5824  0.1801
    1OL    H14S 8537   4.890   3.483   5.113 -0.0517 -1.3935 -1.1757
    1OL    C115 8538   4.765   3.381   5.244 -0.6939 -0.6258  0.1746
    1OL    H15R 8539   4.731   3.308   5.171  0.6835 -0.4214 -0.6978
    1OL    H15S 8540   4.688   3.402   5.319  0.5343 -0.9454  1.5609
    1OL    C116 8541   4.884   3.321   5.320 -0.0602 -0.2064 -0.0861
    1OL    H16R 8542   4.949   3.401   5.356 -1.7889  1.3641 -0.3168
    1OL    H16S 8543   4.944   3.261   5.250  1.5699  1.6735 -0.3723
    1OL    C117 8544   4.853   3.236   5.447  0.2623 -0.0957 -0.2320
    1OL    H17R 8545   4.806   3.140   5.426  0.0552 -0.6988  2.5349
    1OL    H17S 8546   4.804   3.292   5.528  0.2535 -3.1249  2.0220
    1OL    C118 8547   4.985   3.192   5.514  0.2093 -0.2417 -0.5039
    1OL    H18R 8548   5.055   3.160   5.437 -0.4690  0.5335 -1.4660
    1OL    H18S 8549   4.970   3.106   5.581  1.5017  0.9935  1.4493
    1OL    H18T 8550   5.035   3.271   5.570  0.5976  0.0547 -1.2588
    1PA    C116 8551   3.072   4.815   5.308 -0.3561  0.1681  0.3191
    1PA    H16R 8552   3.001   4.737   5.336 -0.5285  0.2099  0.0133
    1PA    H16S 8553   3.053   4.907   5.363 -0.0795 -0.2861  1.1857
    1PA    H16T 8554   3.170   4.778   5.337 -0.4279 -1.8163 -1.6739
    1PA    C115 8555   3.070   4.856   5.164 -0.2069  0.2891  0.6847
    1PA    H15R 8556   2.966   4.863   5.130  0.3706  0.9087 -1.0451
    1PA    H15S 8557   3.114   4.956   5.156 -0.2382  0.1481 -2.1960
    1PA    C114 8558   3.134   4.769   5.061  0.4183  0.1341 -0.4564
    1PA    H14R 8559   3.240   4.779   5.087  0.0697 -0.0962  1.1979
    1PA    H14S 8560   3.116   4.663   5.082  0.9239  0.1639  0.1563
    1PA    C113 8561   3.107   4.792   4.910  0.0459  0.0906  0.7876
    1PA    H13R 8562   3.000   4.771   4.896 -0.0515  1.2939 -0.3968
    1PA    H13S 8563   3.122   4.896   4.882  4.3746 -0.4399  0.4825
    1PA    C112 8564   3.180   4.696   4.808  0.3130  0.4074  0.0932
    1PA    H12R 8565   3.171   4.590   4.830  0.2798 -0.4366 -3.3688
    1PA    H12S 8566   3.124   4.698   4.714 -2.6576  3.2308  1.6941
    1PA    C111 8567   3.325   4.736   4.792  0.3752 -0.0952 -0.4821
    1PA    H11R 8568   3.343   4.810   4.713 -2.7986  0.5582 -0.7359
    1PA    H11S 8569   3.361   4.762   4.891  0.0300  1.7406 -0.8002
    1PA    C110 8570   3.413   4.610   4.762 -0.1950 -0.2726 -0.4832
    1PA    H10R 8571   3.520   4.631   4.768 -0.1725 -0.7461  1.3056
    1PA    H10S 8572   3.398   4.527   4.830  0.2483 -1.4378 -1.7499
    1PA     C19 8573   3.393   4.535   4.628 -0.5946  0.5147 -0.0261
    1PA     H9R 8574   3.473   4.464   4.608  1.0043  1.7912  1.4806
    1PA     H9S 8575   3.295   4.487   4.634 -1.5679  2.1663 -1.6287
    1PA     C18 8576   3.397   4.623   4.505  0.1908 -0.2286 -0.7022
    1PA     H8R 8577   3.306   4.683   4.501  0.7660  0.6404 -1.2782
    1PA     H8S 8578   3.480   4.693   4.504 -1.0888  1.3471 -0.0985
    1PA     C17 8579   3.390   4.536   4.383  0.3582 -0.1791  0.0797
    1PA     H7R 8580   3.462   4.454   4.392 -0.4455 -0.9082  0.0349
    1PA     H7S 8581   3.295   4.482   4.390 -0.4263  0.9295 -1.3352
    1PA     C16 8582   3.386   4.619   4.257 -0.5649 -0.0295  0.7307
    1PA     H6R 8583   3.308   4.693   4.273 -0.7598  0.0438 -0.4825
    1PA     H6S 8584   3.486   4.665   4.253 -0.1536 -0.8898  0.9717
    1PA     C15 8585   3.367   4.533   4.128  1.4513  0.0072  0.5174
    1PA     H5R 8586   3.462   4.483   4.108  1.0983 -0.8253  0.9024
    1PA     H5S 8587   3.299   4.449   4.136  4.5584 -2.8327 -0.5564
    1PA     C14 8588   3.326   4.611   4.003 -0.1940  0.0257 -0.1581
    1PA     H4R 8589   3.319   4.539   3.922  0.7513  1.0462 -1.1823
    1PA     H4S 8590   3.228   4.657   4.014 -0.8411 -1.4640  0.5644
    1PA     C13 8591   3.428   4.717   3.955  0.6867  0.6804  0.4615
    1PA     H3R 8592   3.464   4.793   4.025  2.1706 -0.3367  0.8538
    1PA     H3S 8593   3.523   4.678   3.916  0.9857 -0.6359  2.3414
    1PA     C12 8594   3.364   4.792   3.836 -0.6321 -0.7554  0.8245
    1PA     H2R 8595   3.255   4.800   3.836 -0.6431 -0.2632 -1.1784
    1PA     H2S 8596   3.412   4.890   3.835 -0.7258 -0.6505 -2.1525
    1PC     C11 8597   3.407   4.727   3.707  0.3640 -0.0117 -0.6089
    1PC     O12 8598   3.514   4.752   3.656  0.2364 -0.3217 -0.7383
    1PC     O11 8599   3.319   4.626   3.670 -0.1455 -0.2308 -1.2255
    1PC      C1 8600   3.325   4.556   3.550  0.2951  0.1324  0.4927
    1PC      HR 8601   3.294   4.634   3.481  2.0602  0.2842 -0.1853
    1PC      HS 8602   3.426   4.516   3.535  1.5579  3.1651  0.1787
    1PC      C2 8603   3.213   4.442   3.557 -0.6966 -0.3991 -0.2363
    1PC      HX 8604   3.207   4.384   3.465 -3.5324 -0.4287 -0.1102
    1PC      C3 8605   3.068   4.493   3.577 -0.3543  0.5226 -0.4763
    1PC      HA 8606   2.996   4.414   3.600  1.8660 -1.5629 -0.2131
    1PC      HB 8607   3.068   4.551   3.669 -2.3789  0.2519 -0.2729
    1PC     O31 8608   3.030   4.563   3.458 -0.0109  0.6646 -0.0497
    1PC     P31 8609   2.932   4.506   3.347  0.1180 -0.2645  0.2192
    1PC     O32 8610   3.033   4.409   3.264 -0.7873  0.0023  0.2319
    1PC     C31 8611   3.088   4.446   3.134 -0.7131  0.1329 -0.9072
    1PC     H1A 8612   3.016   4.508   3.079 -1.2738  0.2616 -0.0414
    1PC     H1B 8613   3.178   4.505   3.153 -0.5090 -0.1474 -1.0065
    1PC     C32 8614   3.138   4.324   3.067  0.0676 -0.0828  0.1008
    1PC     H2A 8615   3.214   4.353   2.994  0.7382  0.6386  1.0640
    1PC     H2B 8616   3.186   4.262   3.143  0.9881 -1.7428 -1.7317
    1PC     N31 8617   3.029   4.243   3.007 -0.6157 -0.1392  0.6694
    1PC     C33 8618   2.978   4.311   2.883  0.1028  0.0958  0.2875
    1PC     H3A 8619   2.916   4.397   2.909 -0.3872  0.1045 -0.8563
    1PC     H3B 8620   3.059   4.342   2.816 -1.3164  1.3412 -0.9265
    1PC     H3C 8621   2.912   4.239   2.834 -0.0563  1.7825 -2.1698
    1PC     C34 8622   3.090   4.115   2.971  0.5342 -0.3873 -0.3358
    1PC     H4A 8623   3.013   4.053   2.925 -1.0588  0.7762  0.6958
    1PC     H4B 8624   3.179   4.138   2.912  1.9844 -0.6515  1.6195
    1PC     H4C 8625   3.134   4.076   3.063 -2.7447 -1.7936  0.7860
    1PC     C35 8626   2.920   4.210   3.097  0.0098  0.2905  0.1866
    1PC     H5A 8627   2.894   4.302   3.150  0.5289  1.7018 -1.8455
    1PC     H5B 8628   2.955   4.136   3.169 -1.3357 -0.1803  0.3718
    1PC     H5C 8629   2.835   4.176   3.038  0.4002  1.3866 -1.0616
    1PC     O33 8630   2.827   4.423   3.404  0.2493 -0.5299 -0.4968
    1PC     O34 8631   2.885   4.615   3.259 -0.5006  0.2659  0.3252
    1PC     O21 8632   3.245   4.350   3.660 -0.0256  0.5949 -0.0181
    1PC     C21 8633   3.358   4.275   3.652  0.3195 -0.3456 -0.6430
    1PC     O22 8634   3.434   4.274   3.557 -0.3573 -0.3981  0.0653
    1OL     C12 8635   3.382   4.203   3.777 -0.0569  0.7029 -0.3109
    1OL     H2R 8636   3.284   4.168   3.810 -0.3380  2.4297  0.7813
    1OL     H2S 8637   3.421   4.270   3.854 -0.6768 -0.6726  1.2527
    1OL     C13 8638   3.480   4.088   3.769 -0.4309 -0.0925  0.1716
    1OL     H3R 8639   3.576   4.125   3.733 -0.1943  0.0156  0.8802
    1OL     H3S 8640   3.451   4.010   3.698 -0.8217  0.5349 -0.3677
    1OL     C14 8641   3.499   4.013   3.899  0.6195  0.5297  0.3207
    1OL     H4R 8642   3.577   3.940   3.874 -0.3698 -1.1084  1.8277
    1OL     H4S 8643   3.405   3.960   3.918  1.2502 -0.3460  1.0310
    1OL     C15 8644   3.536   4.095   4.020  0.3749 -0.3683  0.3438
    1OL     H5R 8645   3.456   4.167   4.041 -0.1225 -1.2903  1.7063
    1OL     H5S 8646   3.621   4.162   4.008 -0.1727  0.2567 -0.0846
    1OL     C16 8647   3.580   4.010   4.143  0.4072  0.1189  0.1598
    1OL     H6R 8648   3.682   3.974   4.132 -0.0435 -1.3321  0.4962
    1OL     H6S 8649   3.517   3.921   4.150  2.3723 -1.4693 -1.4243
    1OL     C17 8650   3.576   4.088   4.272 -0.2226  0.5689  0.6181
    1OL     H7R 8651   3.471   4.116   4.284 -0.5245 -0.3812  0.3258
    1OL     H7S 8652   3.626   4.184   4.259  1.0561 -0.3713 -2.3450
    1OL     C18 8653   3.642   4.008   4.390 -0.4067 -0.1134  0.1746
    1OL     H8R 8654   3.735   3.956   4.366 -1.8989 -2.2328 -1.2815
    1OL     H8S 8655   3.572   3.933   4.425 -0.2474 -0.1241  0.4758
    1OL     C19 8656   3.680   4.102   4.509 -0.0218 -0.4130  1.1245
    1OL     H9R 8657   3.781   4.140   4.506 -0.2463  0.1719  0.9028
    1OL    C110 8658   3.602   4.146   4.602  0.3779  0.1309 -1.1910
    1OL    H10R 8659   3.642   4.222   4.669 -1.4404 -0.4569  0.6658
    1OL    C111 8660   3.456   4.109   4.615 -0.2167  0.3112 -0.4979
    1OL    H11R 8661   3.407   4.057   4.532 -0.3786 -1.7733  0.8094
    1OL    H11S 8662   3.399   4.200   4.635 -2.1980 -0.8136 -0.7460
    1OL    C112 8663   3.424   4.016   4.744  0.3188 -0.9242  0.0022
    1OL    H12R 8664   3.448   3.918   4.703  1.8812 -0.2271 -0.8666
    1OL    H12S 8665   3.317   4.008   4.761 -0.4043 -0.6904 -3.6365
    1OL    C113 8666   3.503   4.040   4.873  0.0058 -0.1797  0.0546
    1OL    H13R 8667   3.607   4.026   4.842  0.6459  3.7555 -0.0722
    1OL    H13S 8668   3.467   3.969   4.949 -0.7768  0.6362  0.4665
    1OL    C114 8669   3.479   4.184   4.931 -0.0087 -0.2156  0.0382
    1OL    H14R 8670   3.374   4.201   4.954  0.4941  0.2067  2.2533
    1OL    H14S 8671   3.509   4.245   4.846 -0.0686 -0.2393  0.0002
    1OL    C115 8672   3.571   4.224   5.045 -0.4206 -0.1649 -0.9341
    1OL    H15R 8673   3.674   4.198   5.020 -0.1129 -0.2579  0.4015
    1OL    H15S 8674   3.545   4.163   5.131  1.7372  0.7747  0.4617
    1OL    C116 8675   3.569   4.376   5.083 -0.3511  0.5397  0.5188
    1OL    H16R 8676   3.590   4.438   4.995 -1.5361 -0.6579 -0.6491
    1OL    H16S 8677   3.644   4.394   5.160  0.6560  0.7534 -0.4980
    1OL    C117 8678   3.426   4.407   5.135  0.7245  0.8050 -0.0610
    1OL    H17R 8679   3.394   4.335   5.210 -1.9904 -1.4466 -3.0924
    1OL    H17S 8680   3.356   4.386   5.054  0.2851 -1.4592  0.8370
    1OL    C118 8681   3.412   4.550   5.173 -0.3173 -0.2573  1.0982
    1OL    H18R 8682   3.435   4.612   5.086  0.1057 -0.7188  0.8790
    1OL    H18S 8683   3.473   4.569   5.262  3.2657 -1.3114 -0.9282
    1OL    H18T 8684   3.309   4.575   5.200 -1.3689 -1.2235 -1.6411
    1PA    C116 8685   1.249   2.384   4.696  0.4378  0.2088  0.6358
    1PA    H16R 8686   1.146   2.415   4.678  0.4844  0.0470  0.0462
    1PA    H16S 8687   1.309   2.440   4.767  0.6468 -0.5455  1.0726
    1PA    H16T 8688   1.255   2.284   4.740  0.8703  0.4691  1.1890
    1PA    C115 8689   1.321   2.406   4.564  0.0727 -0.1221 -0.6170
    1PA    H15R 8690   1.423   2.368   4.569 -0.8539 -3.2728 -2.4003
    1PA    H15S 8691   1.276   2.340   4.489  0.7756  0.7265 -1.8296
    1PA    C114 8692   1.322   2.546   4.505 -0.4626 -0.2026  0.2719
    1PA    H14R 8693   1.219   2.570   4.477 -0.5444  0.8888  1.4217
    1PA    H14S 8694   1.366   2.616   4.577 -0.7173  0.5775 -0.3122
    1PA    C113 8695   1.388   2.547   4.365  0.4149  0.2271  0.1047
    1PA    H13R 8696   1.365   2.453   4.313  0.8761 -0.5695  1.3043
    1PA    H13S 8697   1.335   2.631   4.320 -0.8513 -0.1761  0.8107
    1PA    C112 8698   1.541   2.566   4.380 -0.1192 -0.4273 -0.0324
    1PA    H12R 8699   1.556   2.661   4.434  0.4108 -0.1126 -0.7190
    1PA    H12S 8700   1.584   2.481   4.434  2.5982  0.7473 -0.1412
    1PA    C111 8701   1.625   2.563   4.250 -0.0549  0.1832 -0.7629
    1PA    H11R 8702   1.604   2.654   4.192 -2.1610  0.5215  0.4434
    1PA    H11S 8703   1.730   2.571   4.278 -0.6814 -0.4670  2.0719
    1PA    C110 8704   1.600   2.439   4.163 -0.2490  0.6678 -0.1747
    1PA    H10R 8705   1.500   2.440   4.120 -1.5797 -1.2982  2.6096
    1PA    H10S 8706   1.655   2.456   4.070  0.8114  0.0989  0.3284
    1PA     C19 8707   1.639   2.300   4.223  0.5497 -0.3649 -0.4647
    1PA     H9R 8708   1.747   2.292   4.238  0.2218 -0.2147  2.5207
    1PA     H9S 8709   1.597   2.292   4.323  0.3246 -0.7622 -0.5918
    1PA     C18 8710   1.589   2.182   4.138 -0.2088 -0.3933 -0.6231
    1PA     H8R 8711   1.628   2.176   4.036 -0.9449  0.6709 -0.9854
    1PA     H8S 8712   1.628   2.093   4.189 -0.3294 -0.3736 -0.4950
    1PA     C17 8713   1.438   2.160   4.134 -0.1264  0.8377 -0.4644
    1PA     H7R 8714   1.412   2.135   4.238 -1.3934  0.8834 -0.7515
    1PA     H7S 8715   1.388   2.253   4.106  0.0850  1.0379 -0.1822
    1PA     C16 8716   1.407   2.052   4.037  0.5395  0.6316  0.1556
    1PA     H6R 8717   1.470   2.059   3.948 -1.7627  1.8961 -1.4906
    1PA     H6S 8718   1.438   1.959   4.085  1.0418 -0.2107 -1.7199
    1PA     C15 8719   1.265   2.032   3.986  0.4021 -0.3848  0.7357
    1PA     H5R 8720   1.263   1.953   3.910 -0.5965  1.7387 -1.6099
    1PA     H5S 8721   1.193   1.999   4.060 -1.3410 -2.6830 -1.7732
    1PA     C14 8722   1.202   2.159   3.925  0.0245  0.9935  0.1414
    1PA     H4R 8723   1.182   2.234   4.001 -1.7709  1.6803 -0.9581
    1PA     H4S 8724   1.283   2.197   3.862  1.1697  1.1090  1.6128
    1PA     C13 8725   1.094   2.153   3.813  0.2899  0.7081  0.1488
    1PA     H3R 8726   1.085   2.254   3.774  0.7724  0.4578 -0.6282
    1PA     H3S 8727   1.121   2.096   3.724  0.6114  0.4737  0.3923
    1PA     C12 8728   0.956   2.105   3.859 -0.1970  0.4569 -0.0145
    1PA     H2R 8729   0.972   2.009   3.907 -1.6549  0.0435 -0.3055
    1PA     H2S 8730   0.916   2.184   3.924 -1.2152  1.3429 -1.6533
    1PC     C11 8731   0.849   2.086   3.754  0.4910 -0.1670  1.0012
    1PC     O12 8732   0.856   2.122   3.638 -0.0198  0.2328 -0.9644
    1PC     O11 8733   0.737   2.039   3.807  0.3892 -0.0015 -0.0143
    1PC      C1 8734   0.636   1.992   3.711  0.6071 -0.1333  0.0593
    1PC      HR 8735   0.579   2.076   3.669 -1.9532 -0.9351  1.6655
    1PC      HS 8736   0.681   1.932   3.632  0.3259  1.4705 -1.3841
    1PC      C2 8737   0.534   1.908   3.789  0.1495 -0.0310 -0.3261
    1PC      HX 8738   0.596   1.830   3.835  0.4186  0.3158 -0.0919
    1PC      C3 8739   0.424   1.854   3.706 -0.1042  0.3006  0.8812
    1PC      HA 8740   0.465   1.794   3.625 -0.6293 -0.3940  1.1245
    1PC      HB 8741   0.344   1.798   3.755 -0.0368  0.0669  0.7254
    1PC     O31 8742   0.357   1.967   3.644  0.2073  0.0061 -0.3258
    1PC     P31 8743   0.205   2.009   3.664 -0.1952 -0.2309 -0.0676
    1PC     O32 8744   0.217   2.098   3.794  0.2535 -0.3639  0.3160
    1PC     C31 8745   0.266   2.234   3.795  0.2429 -0.5923  0.3706
    1PC     H1A 8746   0.323   2.233   3.889  0.2883  1.3214  0.3880
    1PC     H1B 8747   0.348   2.246   3.724  0.0142 -0.0829  0.1928
    1PC     C32 8748   0.153   2.341   3.788 -0.8227  1.6404  0.0466
    1PC     H2A 8749   0.103   2.320   3.693 -0.5106 -2.3688  0.5680
    1PC     H2B 8750   0.076   2.329   3.865 -0.9410 -0.8082 -0.3577
    1PC     N31 8751   0.184   2.484   3.790 -0.4991 -0.3470 -0.3053
    1PC     C33 8752   0.278   2.516   3.684  0.1898 -0.0785  0.5209
    1PC     H3A 8753   0.218   2.498   3.595 -1.1106 -2.2474  1.7392
    1PC     H3B 8754   0.315   2.618   3.688 -0.5683  0.1795  1.7995
    1PC     H3C 8755   0.356   2.440   3.688 -0.2647 -0.6094 -0.4405
    1PC     C34 8756   0.057   2.564   3.780  0.0233  0.2397 -0.0052
    1PC     H4A 8757   0.018   2.536   3.682 -0.7492 -1.3175  0.7071
    1PC     H4B 8758  -0.024   2.541   3.850 -1.1770  2.0814 -0.7182
    1PC     H4C 8759   0.073   2.670   3.801  0.4840  0.4509 -1.3804
    1PC     C35 8760   0.245   2.533   3.919 -0.2568 -0.6626  0.2773
    1PC     H5A 8761   0.175   2.538   4.003 -0.1891 -0.9333  0.3519
    1PC     H5B 8762   0.290   2.632   3.907 -2.0354 -0.0442 -1.9952
    1PC     H5C 8763   0.323   2.460   3.943  0.6734  0.6815  1.5095
    1PC     O33 8764   0.152   2.090   3.551  0.3175  0.7175 -0.4102
    1PC     O34 8765   0.132   1.884   3.696  0.0992  0.1294 -0.4365
    1PC     O21 8766   0.480   1.981   3.900 -0.2158  0.0089  0.2674
    1PC     C21 8767   0.425   1.914   4.002  0.0533 -0.5958 -0.6021
    1PC     O22 8768   0.427   1.796   4.007  0.4172  0.1406  0.3191
    1OL     C12 8769   0.361   2.013   4.094  0.2896 -0.1155 -0.0171
    1OL     H2R 8770   0.308   2.079   4.025  2.3670 -0.3415 -1.9765
    1OL     H2S 8771   0.438   2.077   4.137  0.2927 -0.0994 -0.0464
    1OL     C13 8772   0.261   1.944   4.195 -0.6117 -0.6307  0.1031
    1OL     H3R 8773   0.217   1.854   4.151 -0.5487  1.1594 -4.0951
    1OL     H3S 8774   0.175   2.011   4.209  0.8214  1.2097  0.6133
    1OL     C14 8775   0.321   1.909   4.331 -0.2780  0.2695 -0.2270
    1OL     H4R 8776   0.348   2.000   4.386 -0.6953  1.3888 -1.7940
    1OL     H4S 8777   0.417   1.860   4.315 -0.9183 -1.0270 -0.1766
    1OL     C15 8778   0.227   1.835   4.425  0.5716  0.4444 -0.3455
    1OL     H5R 8779   0.127   1.877   4.441 -1.2134 -2.8111 -1.9537
    1OL     H5S 8780   0.277   1.826   4.522 -0.5496  1.2386  0.3313
    1OL     C16 8781   0.206   1.685   4.380 -0.2380 -0.0537  0.0134
    1OL     H6R 8782   0.214   1.623   4.469 -0.4792 -1.5081 -0.9429
    1OL     H6S 8783   0.289   1.654   4.317  0.0185  1.3845 -0.4104
    1OL     C17 8784   0.067   1.657   4.309 -0.3673  0.1694  0.7359
    1OL     H7R 8785   0.055   1.711   4.214 -1.3820 -2.0048 -0.4366
    1OL     H7S 8786  -0.014   1.692   4.373 -0.7612  3.0447 -1.1065
    1OL     C18 8787   0.047   1.517   4.273 -0.1044 -0.2028 -0.7992
    1OL     H8R 8788   0.137   1.488   4.219 -1.9999 -3.6911 -2.3662
    1OL     H8S 8789  -0.042   1.502   4.213 -0.3612 -1.2432 -0.1722
    1OL     C19 8790   0.038   1.427   4.398 -0.1095 -0.5258 -0.0967
    1OL     H9R 8791   0.135   1.386   4.425  0.2799 -1.2683 -2.3589
    1OL    C110 8792  -0.073   1.393   4.463  0.6763 -0.1641  0.2146
    1OL    H10R 8793  -0.071   1.327   4.549 -2.2919 -1.8526 -0.8540
    1OL    C111 8794  -0.216   1.444   4.439  0.7641  0.0336  0.1670
    1OL    H11R 8795  -0.287   1.363   4.420  1.5814 -0.3490 -1.5164
    1OL    H11S 8796  -0.223   1.497   4.344 -1.1209  0.0295  0.2826
    1OL    C112 8797  -0.257   1.543   4.557 -0.5904  0.7414 -0.2390
    1OL    H12R 8798  -0.172   1.611   4.563 -0.0948  0.0993  0.1587
    1OL    H12S 8799  -0.269   1.483   4.647  1.3984 -0.1642 -0.5239
    1OL    C113 8800  -0.388   1.622   4.520  0.6848  0.0665  0.1169
    1OL    H13R 8801  -0.471   1.552   4.532 -1.6980  2.8095  0.8272
    1OL    H13S 8802  -0.386   1.672   4.423  0.6450  1.6722  0.9125
    1OL    C114 8803  -0.405   1.719   4.636 -0.3771  0.0567 -0.0234
    1OL    H14R 8804  -0.327   1.796   4.633 -0.6682  0.3327 -1.0722
    1OL    H14S 8805  -0.387   1.663   4.728  1.6912 -2.0129 -1.5576
    1OL    C115 8806  -0.548   1.772   4.653 -0.3068 -0.7785  0.2966
    1OL    H15R 8807  -0.609   1.688   4.687  0.2943 -1.2874  0.1289
    1OL    H15S 8808  -0.594   1.799   4.558 -1.1202 -0.4038  0.7866
    1OL    C116 8809  -0.562   1.891   4.745  0.5071  0.3154 -0.2024
    1OL    H16R 8810  -0.544   1.857   4.847  1.7342 -0.7143 -0.7352
    1OL    H16S 8811  -0.667   1.921   4.741 -0.2367 -2.0539 -0.6725
    1OL    C117 8812  -0.475   2.006   4.706 -0.4496  0.5663  0.7660
    1OL    H17R 8813  -0.479   2.020   4.598  1.3167  0.9997  0.7276
    1OL    H17S 8814  -0.373   1.978   4.731 -0.8000 -0.5680  1.0071
    1OL    C118 8815  -0.519   2.126   4.791  0.0394 -1.0786 -0.5010
    1OL    H18R 8816  -0.503   2.113   4.898  2.4329 -0.5803 -0.7350
    1OL    H18S 8817  -0.622   2.158   4.773  0.6694  2.2436  1.0490
    1OL    H18T 8818  -0.460   2.208   4.748  2.3138 -2.8884 -1.0316
    1PA    C116 8819   3.874   1.901   5.030 -0.1170 -0.1364  0.0108
    1PA    H16R 8820   3.923   1.980   5.087  1.8868 -0.3852 -1.2744
    1PA    H16S 8821   3.930   1.900   4.936  0.1744 -2.2769  0.1543
    1PA    H16T 8822   3.901   1.807   5.079 -2.5133 -0.6584  0.4274
    1PA    C115 8823   3.723   1.913   5.012 -0.5248  0.3895  0.0122
    1PA    H15R 8824   3.707   1.857   4.919 -1.7737 -1.0995  1.0930
    1PA    H15S 8825   3.662   1.859   5.085 -1.5477  1.7737  0.2193
    1PA    C114 8826   3.673   2.053   4.996 -0.1679  0.0076 -0.3237
    1PA    H14R 8827   3.566   2.037   4.983 -0.7936  2.2432  1.5031
    1PA    H14S 8828   3.693   2.102   5.091  1.4517  2.1107 -1.6648
    1PA    C113 8829   3.738   2.141   4.886  0.2754 -0.9545 -0.1289
    1PA    H13R 8830   3.847   2.144   4.891  0.3456 -0.0497 -1.5146
    1PA    H13S 8831   3.734   2.101   4.784  2.1673 -3.6144  0.7092
    1PA    C112 8832   3.685   2.283   4.899  0.3198 -0.2968  0.0834
    1PA    H12R 8833   3.576   2.290   4.897  0.3523  0.2466  0.1288
    1PA    H12S 8834   3.722   2.315   4.996  1.7694 -0.3785 -0.4220
    1PA    C111 8835   3.735   2.370   4.782  0.4318 -0.4591 -0.7508
    1PA    H11R 8836   3.838   2.341   4.763  0.4872 -0.8572  0.1324
    1PA    H11S 8837   3.666   2.353   4.698 -0.7448 -1.6654  0.4160
    1PA    C110 8838   3.731   2.517   4.832  0.3175  0.9095  0.3735
    1PA    H10R 8839   3.625   2.527   4.857  0.2595  1.2675 -0.0042
    1PA    H10S 8840   3.797   2.514   4.919 -0.0447  1.8501  0.6852
    1PA     C19 8841   3.774   2.615   4.724  0.1622  0.2394  0.1914
    1PA     H9R 8842   3.707   2.602   4.638  0.6271  3.1803 -0.7489
    1PA     H9S 8843   3.764   2.719   4.756  3.8889  0.5895  0.6195
    1PA     C18 8844   3.912   2.602   4.662 -0.5234 -0.4435 -0.0817
    1PA     H8R 8845   3.987   2.613   4.741 -0.7796  2.2207 -0.1046
    1PA     H8S 8846   3.911   2.503   4.615 -2.1740  1.0250 -3.4968
    1PA     C17 8847   3.952   2.695   4.544 -0.3365 -0.4483 -0.3856
    1PA     H7R 8848   3.941   2.799   4.576  0.1148 -0.2348 -0.9086
    1PA     H7S 8849   4.059   2.686   4.523  0.3333  1.7319  1.5841
    1PA     C16 8850   3.864   2.669   4.415  0.8299 -0.3882  0.4609
    1PA     H6R 8851   3.884   2.567   4.381 -1.4746 -0.3945 -1.0747
    1PA     H6S 8852   3.759   2.677   4.445  1.1489 -0.3161  1.6221
    1PA     C15 8853   3.893   2.764   4.296  0.0101  0.1064  0.1751
    1PA     H5R 8854   3.893   2.866   4.336  1.4636 -1.1780  3.8544
    1PA     H5S 8855   3.995   2.744   4.264  0.0285  1.0502 -0.4136
    1PA     C14 8856   3.796   2.746   4.178 -0.0349  0.8312 -0.4721
    1PA     H4R 8857   3.787   2.643   4.144 -1.4188  1.3253 -1.7022
    1PA     H4S 8858   3.700   2.778   4.219  0.5800  1.4189  0.5766
    1PA     C13 8859   3.828   2.836   4.055  0.1153  0.2951 -0.0579
    1PA     H3R 8860   3.769   2.808   3.967 -0.0850 -0.0704  0.1885
    1PA     H3S 8861   3.791   2.933   4.087  0.5678 -0.2063  2.1834
    1PA     C12 8862   3.970   2.845   3.995 -0.5217  0.7913  0.6499
    1PA     H2R 8863   4.036   2.896   4.066  0.8310  1.0356 -0.7207
    1PA     H2S 8864   4.007   2.747   3.964  2.2325  1.3995  1.6857
    1PC     C11 8865   3.988   2.934   3.872 -0.9364 -1.0485 -0.8597
    1PC     O12 8866   3.903   3.020   3.849  0.3349  0.2369 -0.2368
    1PC     O11 8867   4.111   2.933   3.810 -0.1408  0.3115 -0.6268
    1PC      C1 8868   4.137   3.037   3.712 -0.2053 -0.3192 -0.2561
    1PC      HR 8869   4.210   2.991   3.645  0.3226 -0.4403  0.3817
    1PC      HS 8870   4.047   3.056   3.653 -0.7947  0.0641  0.7414
    1PC      C2 8871   4.193   3.173   3.773 -0.0328 -0.3879 -0.1641
    1PC      HX 8872   4.112   3.217   3.832  1.6354  0.0440  1.9110
    1PC      C3 8873   4.239   3.283   3.677  0.1261 -0.1586  0.5127
    1PC      HA 8874   4.153   3.314   3.617 -0.2209  1.4747  1.7774
    1PC      HB 8875   4.258   3.367   3.745  1.2467 -0.7431  0.9376
    1PC     O31 8876   4.359   3.263   3.596 -0.1957  0.2402 -0.0096
    1PC     P31 8877   4.367   3.184   3.464  0.1643 -0.1898 -0.2090
    1PC     O32 8878   4.413   3.039   3.493 -0.1651  0.1984 -0.3100
    1PC     C31 8879   4.543   3.009   3.541 -0.6597  0.0218  0.1676
    1PC     H1A 8880   4.615   3.086   3.512  0.9614 -1.0860  1.0681
    1PC     H1B 8881   4.548   3.013   3.651 -0.3743 -0.0754  0.1585
    1PC     C32 8882   4.585   2.873   3.489 -0.0915 -0.4857 -0.5759
    1PC     H2A 8883   4.679   2.842   3.534  0.2916  1.0844 -0.2480
    1PC     H2B 8884   4.504   2.801   3.507 -0.4272 -0.1625 -0.7812
    1PC     N31 8885   4.616   2.861   3.344  0.4089 -0.4512 -0.6572
    1PC     C33 8886   4.490   2.886   3.268  0.5079  0.3029  0.1707
    1PC     H3A 8887   4.508   2.852   3.166 -0.4106 -5.7588  1.6032
    1PC     H3B 8888   4.409   2.823   3.307  0.3087  0.8424  0.6506
    1PC     H3C 8889   4.476   2.992   3.287  1.0923  0.5866 -0.9227
    1PC     C34 8890   4.729   2.950   3.311  0.2550  0.3332 -0.1705
    1PC     H4A 8891   4.689   3.047   3.283 -1.1610 -0.2300 -0.1485
    1PC     H4B 8892   4.794   2.955   3.399 -0.0123  2.2157 -0.0432
    1PC     H4C 8893   4.782   2.902   3.229  0.2960 -1.7303  0.9878
    1PC     C35 8894   4.668   2.723   3.316 -0.2398 -0.1469  0.4529
    1PC     H5A 8895   4.766   2.713   3.363 -0.6149 -1.4516  0.9973
    1PC     H5B 8896   4.694   2.717   3.211  0.8970  2.4589  0.4892
    1PC     H5C 8897   4.597   2.649   3.353 -1.4516  1.0164  0.5476
    1PC     O33 8898   4.229   3.176   3.405  0.0357 -0.0514 -0.0982
    1PC     O34 8899   4.463   3.247   3.377  0.2115 -0.2642  0.4494
    1PC     O21 8900   4.301   3.149   3.867  0.1190 -0.7674  0.4374
    1PC     C21 8901   4.291   3.216   3.985 -0.1534  0.5283  0.2448
    1PC     O22 8902   4.199   3.289   4.019 -0.2880 -0.1773 -0.1255
    1OL     C12 8903   4.411   3.186   4.070 -0.0391  0.7071  0.6904
    1OL     H2R 8904   4.467   3.280   4.067 -1.3783  1.5194 -1.4206
    1OL     H2S 8905   4.481   3.111   4.032  1.1979  2.2628 -0.2228
    1OL     C13 8906   4.369   3.150   4.219  0.3600 -0.2387  0.2977
    1OL     H3R 8907   4.316   3.229   4.272 -0.3311 -1.3815  1.3578
    1OL     H3S 8908   4.461   3.129   4.274 -1.6176 -1.8531  3.2530
    1OL     C14 8909   4.294   3.023   4.231 -0.1800  0.4594 -0.0243
    1OL     H4R 8910   4.364   2.942   4.206  0.4985  0.6301  1.2312
    1OL     H4S 8911   4.214   3.021   4.157  1.7430  1.6243 -2.2763
    1OL     C15 8912   4.227   2.995   4.363 -0.4082 -0.1170 -0.0866
    1OL     H5R 8913   4.209   2.887   4.368 -1.6768  0.0664 -0.2865
    1OL     H5S 8914   4.124   3.029   4.376 -0.9451 -2.4559  3.0080
    1OL     C16 8915   4.302   3.030   4.496 -0.4826 -0.2915 -0.0379
    1OL     H6R 8916   4.308   3.139   4.491 -1.5486 -0.2790 -1.3560
    1OL     H6S 8917   4.403   2.989   4.503 -0.5722 -0.3884  0.7453
    1OL     C17 8918   4.224   2.992   4.623 -0.0710  0.0988 -0.7665
    1OL     H7R 8919   4.184   2.890   4.618  1.3837 -0.4456 -2.7874
    1OL     H7S 8920   4.142   3.064   4.624 -0.5557 -0.4391  0.6267
    1OL     C18 8921   4.320   3.013   4.740 -0.7884 -0.1417 -0.3033
    1OL     H8R 8922   4.365   3.112   4.730  0.0271 -0.2816  1.6502
    1OL     H8S 8923   4.397   2.937   4.726 -0.9630 -0.1368 -1.3879
    1OL     C19 8924   4.253   2.993   4.871 -0.4105 -0.4651  0.2735
    1OL     H9R 8925   4.158   2.941   4.867 -0.4159 -0.7703  2.5870
    1OL    C110 8926   4.282   3.049   4.994 -0.4492 -0.2217  0.8475
    1OL    H10R 8927   4.211   3.031   5.075 -1.9896  2.9545  0.3658
    1OL    C111 8928   4.412   3.108   5.022 -0.1617 -0.6326 -0.6611
    1OL    H11R 8929   4.495   3.060   4.970  0.6872  1.8646 -1.8158
    1OL    H11S 8930   4.416   3.099   5.131 -1.9602  0.4951 -0.4622
    1OL    C112 8931   4.419   3.257   4.988 -0.3780  0.1739  0.4591
    1OL    H12R 8932   4.399   3.277   4.882  1.1035  2.2697  0.5166
    1OL    H12S 8933   4.522   3.291   4.992 -0.5438  0.7067  0.2745
    1OL    C113 8934   4.337   3.363   5.069  0.2463  1.0909 -0.0624
    1OL    H13R 8935   4.234   3.357   5.034 -0.2360 -0.5091  1.4969
    1OL    H13S 8936   4.376   3.463   5.049  0.8751  1.8717  4.0867
    1OL    C114 8937   4.342   3.363   5.226  0.4831 -0.6192  0.4114
    1OL    H14R 8938   4.353   3.464   5.264 -1.0703 -0.6814  1.0745
    1OL    H14S 8939   4.432   3.302   5.239  0.6438 -1.1355 -2.4449
    1OL    C115 8940   4.225   3.300   5.295  0.5285  0.1542  0.1652
    1OL    H15R 8941   4.222   3.196   5.264  1.6882  0.6100 -1.6350
    1OL    H15S 8942   4.134   3.345   5.255 -0.4269 -1.4157  0.5030
    1OL    C116 8943   4.242   3.314   5.444  0.1786  0.2001  0.0721
    1OL    H16R 8944   4.159   3.262   5.492  0.6247 -2.7949 -2.1085
    1OL    H16S 8945   4.245   3.421   5.466 -0.2725  0.2530 -0.1128
    1OL    C117 8946   4.377   3.253   5.491  0.2905 -0.4738  0.3334
    1OL    H17R 8947   4.375   3.251   5.601  0.6490  1.6400  0.4183
    1OL    H17S 8948   4.460   3.321   5.473  1.2007 -1.0268  2.1398
    1OL    C118 8949   4.404   3.104   5.463 -0.1149  0.3847 -0.4842
    1OL    H18R 8950   4.497   3.073   5.510  0.0823 -2.0971 -2.2960
    1OL    H18S 8951   4.411   3.087   5.355 -1.9922 -3.3886 -0.1692
    1OL    H18T 8952   4.322   3.042   5.500 -1.4036  0.5946 -2.8316
    1PA    C116 8953   2.438   4.584   5.176  0.5037  0.6665  0.0284
    1PA    H16R 8954   2.520   4.535   5.228  0.9213  1.0295 -0.2829
    1PA    H16S 8955   2.350   4.570   5.239  0.3601 -2.0711 -0.6349
    1PA    H16T 8956   2.463   4.690   5.176  0.8440  0.5930 -0.6207
    1PA    C115 8957   2.407   4.529   5.038 -0.7058  0.5967  0.6899
    1PA    H15R 8958   2.500   4.500   4.988 -0.6026 -2.6652  2.4637
    1PA    H15S 8959   2.366   4.428   5.045 -0.7985  0.1711 -3.4002
    1PA    C114 8960   2.308   4.616   4.960 -0.4829  0.7443 -0.3404
    1PA    H14R 8961   2.232   4.654   5.029  0.5370  2.4183 -0.0866
    1PA    H14S 8962   2.350   4.709   4.920 -0.3843  1.0448  0.4432
    1PA    C113 8963   2.241   4.536   4.843  0.4931 -0.4588 -0.1653
    1PA    H13R 8964   2.189   4.448   4.880 -0.4779 -0.0277 -0.4791
    1PA    H13S 8965   2.161   4.600   4.806  1.5866  0.0777 -1.7023
    1PA    C112 8966   2.328   4.484   4.730 -0.1216  0.4081  0.3541
    1PA    H12R 8967   2.373   4.394   4.773 -0.0202 -0.3957 -1.3546
    1PA    H12S 8968   2.264   4.440   4.653 -0.0973  1.1188 -0.0830
    1PA    C111 8969   2.426   4.567   4.649  0.4449  0.3269 -0.1493
    1PA    H11R 8970   2.504   4.608   4.712 -1.3664  0.6652  1.9697
    1PA    H11S 8971   2.478   4.505   4.575  0.8766  0.3376  0.1405
    1PA    C110 8972   2.363   4.690   4.580 -0.1210  0.1701 -0.6953
    1PA    H10R 8973   2.327   4.758   4.657 -0.9533 -1.2303  0.1838
    1PA    H10S 8974   2.442   4.727   4.514  0.7691 -0.2938  0.0855
    1PA     C19 8975   2.246   4.657   4.477  0.0109  0.0528 -0.0666
    1PA     H9R 8976   2.166   4.598   4.524  1.1040  0.1085  2.0059
    1PA     H9S 8977   2.198   4.748   4.441 -4.8635 -1.1429  2.4877
    1PA     C18 8978   2.295   4.581   4.357  0.3363 -0.0564  0.4095
    1PA     H8R 8979   2.367   4.643   4.303 -2.6909  2.2943 -1.2496
    1PA     H8S 8980   2.350   4.497   4.400 -0.0264  0.0189  1.0341
    1PA     C17 8981   2.191   4.525   4.264 -0.4621  0.0111 -0.4217
    1PA     H7R 8982   2.150   4.610   4.208  1.3162  2.1764  1.3642
    1PA     H7S 8983   2.113   4.475   4.321 -1.2414  3.2559  1.6643
    1PA     C16 8984   2.259   4.431   4.167  0.0764 -0.0741  0.0776
    1PA     H6R 8985   2.354   4.477   4.139 -0.7232  2.0552  0.7024
    1PA     H6S 8986   2.290   4.344   4.226  1.5585  0.2247 -0.2166
    1PA     C15 8987   2.185   4.381   4.039 -0.1493 -0.0523 -0.2370
    1PA     H5R 8988   2.252   4.315   3.984  1.0393  1.2323 -0.3626
    1PA     H5S 8989   2.091   4.338   4.075 -0.2249 -0.2762 -0.6974
    1PA     C14 8990   2.153   4.499   3.954 -0.0892  0.4295 -0.7106
    1PA     H4R 8991   2.074   4.564   3.994  0.8066  1.7795 -1.0513
    1PA     H4S 8992   2.240   4.563   3.938  1.4991 -1.5226 -0.2177
    1PA     C13 8993   2.114   4.457   3.813 -0.1854  0.0500 -0.4326
    1PA     H3R 8994   2.092   4.549   3.758 -1.9162  0.5172  0.9671
    1PA     H3S 8995   2.200   4.402   3.774  0.8941 -0.0721  1.9406
    1PA     C12 8996   1.995   4.368   3.801 -0.3627  0.0087 -0.3429
    1PA     H2R 8997   2.017   4.271   3.846  1.3494 -0.2623 -1.6832
    1PA     H2S 8998   1.898   4.406   3.833 -0.7777 -0.3725 -1.1139
    1PC     C11 8999   1.967   4.331   3.656  0.4771  0.2998  0.2583
    1PC     O12 9000   1.954   4.411   3.567 -0.0163 -0.2381  0.5831
    1PC     O11 9001   1.964   4.203   3.638  0.2209  0.5832  0.2505
    1PC      C1 9002   1.944   4.142   3.508  0.1946 -0.0370 -0.2022
    1PC      HR 9003   1.937   4.036   3.534  0.0974  0.1040  0.3599
    1PC      HS 9004   1.853   4.184   3.466 -0.4899 -0.8259  0.4714
    1PC      C2 9005   2.069   4.168   3.422 -0.8368  0.1047  0.2788
    1PC      HX 9006   2.073   4.272   3.388  1.2173 -0.4470 -1.4413
    1PC      C3 9007   2.054   4.086   3.293  0.0304 -0.6775 -0.6447
    1PC      HA 9008   2.139   4.095   3.226  0.5756  0.6787  0.1912
    1PC      HB 9009   2.055   3.981   3.324  2.9594 -0.1778  1.3460
    1PC     O31 9010   1.931   4.126   3.225 -0.3266 -0.1314  0.5061
    1PC     P31 9011   1.945   4.211   3.100 -0.1516 -0.2922  0.0488
    1PC     O32 9012   1.996   4.350   3.152  0.2135  0.1461  0.2518
    1PC     C31 9013   1.898   4.425   3.213  0.1717 -0.0748 -0.5200
    1PC     H1A 9014   1.837   4.465   3.131  0.3037  2.1525  0.4011
    1PC     H1B 9015   1.835   4.370   3.283 -1.4898  0.0640 -1.8154
    1PC     C32 9016   1.978   4.543   3.281 -0.2162  0.0954 -0.1627
    1PC     H2A 9017   2.020   4.502   3.373  1.5220  1.8017 -0.1358
    1PC     H2B 9018   2.067   4.577   3.230  0.8069 -1.5680  0.4434
    1PC     N31 9019   1.893   4.657   3.326 -0.1943  0.1747  0.5159
    1PC     C33 9020   1.753   4.612   3.359  0.4520  0.1531  0.4097
    1PC     H3A 9021   1.702   4.697   3.405 -4.2549 -1.4655 -1.2384
    1PC     H3B 9022   1.704   4.588   3.265 -1.5809  0.5966  1.3128
    1PC     H3C 9023   1.764   4.524   3.423 -0.9223  0.1766  0.7010
    1PC     C34 9024   1.959   4.717   3.442  0.2427 -0.0457  0.3071
    1PC     H4A 9025   1.896   4.795   3.484 -1.4778 -2.2839  2.1014
    1PC     H4B 9026   1.972   4.646   3.524  2.7998 -0.8942 -0.7101
    1PC     H4C 9027   2.059   4.752   3.415 -0.3265  0.2316 -1.5838
    1PC     C35 9028   1.881   4.750   3.211 -0.7322 -0.3123  0.1868
    1PC     H5A 9029   1.981   4.787   3.187 -0.7845  1.2744  2.2242
    1PC     H5B 9030   1.820   4.836   3.239 -1.4677 -0.9391  0.5691
    1PC     H5C 9031   1.841   4.695   3.126 -1.0589  0.7212 -0.3507
    1PC     O33 9032   2.049   4.149   3.018  0.9469 -0.3362 -0.1105
    1PC     O34 9033   1.809   4.227   3.044 -0.0454  0.1849 -0.2831
    1PC     O21 9034   2.186   4.125   3.501  0.0512 -0.3712 -0.3461
    1PC     C21 9035   2.284   4.211   3.536 -0.1867 -0.0622  0.0154
    1PC     O22 9036   2.274   4.331   3.531 -0.1378  0.2848  0.2066
    1OL     C12 9037   2.407   4.144   3.600  0.0211  0.2197 -0.0934
    1OL     H2R 9038   2.491   4.195   3.551  0.4096  1.2196  1.5528
    1OL     H2S 9039   2.399   4.038   3.574 -0.9534  0.3776 -0.4871
    1OL     C13 9040   2.416   4.159   3.747  0.4597  0.5714  0.2976
    1OL     H3R 9041   2.310   4.146   3.767  0.2097 -0.5774 -1.5305
    1OL     H3S 9042   2.461   4.255   3.774  3.3085 -0.7482  0.6150
    1OL     C14 9043   2.511   4.054   3.813  0.2613  0.3123  0.7766
    1OL     H4R 9044   2.605   4.067   3.757 -0.7935  0.1581 -1.1124
    1OL     H4S 9045   2.476   3.958   3.776  0.2183 -0.3981  2.5959
    1OL     C15 9046   2.513   4.054   3.962  0.0911  0.9607 -0.1021
    1OL     H5R 9047   2.416   4.084   4.003  0.4237  0.6203  0.9652
    1OL     H5S 9048   2.585   4.127   3.999 -0.2301  1.6286 -0.7864
    1OL     C16 9049   2.552   3.907   4.016 -0.0186 -0.4189  0.2042
    1OL     H6R 9050   2.641   3.870   3.964 -0.2092 -1.6460  0.7182
    1OL     H6S 9051   2.467   3.842   3.994  0.4285 -1.7869  2.2334
    1OL     C17 9052   2.572   3.909   4.169 -0.4627  0.3431 -0.3644
    1OL     H7R 9053   2.520   3.993   4.213  0.4458  1.1890 -0.8587
    1OL     H7S 9054   2.679   3.908   4.193 -0.3659  0.5637 -0.7702
    1OL     C18 9055   2.521   3.782   4.242 -0.6017  0.6002 -0.0094
    1OL     H8R 9056   2.422   3.771   4.198 -1.1691  2.7130  0.5898
    1OL     H8S 9057   2.502   3.798   4.348  0.5624  0.4212  0.2392
    1OL     C19 9058   2.618   3.671   4.205 -0.6221 -0.3752 -0.5504
    1OL     H9R 9059   2.653   3.675   4.102  0.6911  2.9301 -0.0934
    1OL    C110 9060   2.661   3.576   4.286  0.0357 -0.0127 -0.3152
    1OL    H10R 9061   2.739   3.513   4.246  1.4635  2.2296 -1.2305
    1OL    C111 9062   2.632   3.583   4.437  0.5912  0.5999  0.0136
    1OL    H11R 9063   2.531   3.549   4.459  0.7291  1.6295  2.5238
    1OL    H11S 9064   2.636   3.685   4.475  1.2268  0.3084  0.7521
    1OL    C112 9065   2.723   3.503   4.522 -0.2609  0.8466  0.3313
    1OL    H12R 9066   2.825   3.533   4.497  0.0346 -0.3388  0.0922
    1OL    H12S 9067   2.711   3.400   4.490  0.0515  0.3286  1.8123
    1OL    C113 9068   2.692   3.516   4.672  0.4025 -0.5020 -0.0166
    1OL    H13R 9069   2.596   3.478   4.710  1.4587 -2.3277  0.9727
    1OL    H13S 9070   2.693   3.623   4.694 -0.2319  0.2641 -3.1954
    1OL    C114 9071   2.794   3.456   4.761  0.0902  0.1032  0.0175
    1OL    H14R 9072   2.894   3.495   4.745 -0.6882  3.3898  2.2299
    1OL    H14S 9073   2.794   3.347   4.748  2.2154  0.0098  0.4163
    1OL    C115 9074   2.761   3.484   4.915 -0.0919 -0.4151  0.1698
    1OL    H15R 9075   2.653   3.487   4.924 -0.2786  2.9087 -1.5256
    1OL    H15S 9076   2.794   3.586   4.934 -0.9204 -0.5085  2.3544
    1OL    C116 9077   2.819   3.394   5.026  0.3319  0.9193 -0.5955
    1OL    H16R 9078   2.916   3.354   4.996 -0.1151 -1.1519  0.4952
    1OL    H16S 9079   2.758   3.305   5.045 -0.7416  1.9513  1.0734
    1OL    C117 9080   2.835   3.466   5.161 -0.2031  0.5253 -0.3083
    1OL    H17R 9081   2.903   3.549   5.144 -0.2206  0.4740 -0.6392
    1OL    H17S 9082   2.888   3.389   5.218  1.6886  1.4996 -0.6573
    1OL    C118 9083   2.710   3.515   5.230 -0.4082  0.0203  0.0876
    1OL    H18R 9084   2.691   3.616   5.193  1.3676 -0.0032 -1.0010
    1OL    H18S 9085   2.730   3.511   5.338  2.6888  2.1866 -0.2469
    1OL    H18T 9086   2.628   3.447   5.207  0.2788 -0.5883 -0.6075
    1PA    C116 9087   2.444   0.055   5.224  0.6456 -0.5955 -0.5416
    1PA    H16R 9088   2.403   0.137   5.285  1.3139 -0.7433  0.1268
    1PA    H16S 9089   2.477  -0.018   5.299  0.3159 -1.2195 -0.9963
    1PA    H16T 9090   2.362   0.008   5.169  1.0996 -0.4918 -1.3078
    1PA    C115 9091   2.548   0.104   5.122 -0.7043  0.3342  0.1600
    1PA    H15R 9092   2.637   0.139   5.175 -0.7468  0.6428  0.0291
    1PA    H15S 9093   2.571   0.022   5.053 -1.1397  0.5197 -0.2112
    1PA    C114 9094   2.495   0.216   5.031  0.2364 -0.3753 -0.1237
    1PA    H14R 9095   2.415   0.168   4.974  0.3755  1.5227 -2.0198
    1PA    H14S 9096   2.464   0.294   5.100  1.3437  1.5131 -1.6703
    1PA    C113 9097   2.592   0.265   4.921  0.6125  0.4540  0.1647
    1PA    H13R 9098   2.686   0.303   4.961  0.5345  1.3648 -0.4960
    1PA    H13S 9099   2.626   0.183   4.857  1.4484  2.0632 -1.5406
    1PA    C112 9100   2.543   0.381   4.831  0.1209 -0.1411 -0.0233
    1PA    H12R 9101   2.532   0.474   4.887  1.2397  1.2592 -2.0340
    1PA    H12S 9102   2.608   0.396   4.745 -0.9679  1.0900 -0.6610
    1PA    C111 9103   2.401   0.354   4.770 -0.3889 -0.4649  0.0365
    1PA    H11R 9104   2.386   0.248   4.749 -1.9280 -0.4649  0.9827
    1PA    H11S 9105   2.326   0.390   4.841 -1.2064  1.6817 -1.8164
    1PA    C110 9106   2.369   0.435   4.639  0.3814 -0.8222  0.5711
    1PA    H10R 9107   2.364   0.539   4.672  1.1648 -0.8406  0.7457
    1PA    H10S 9108   2.448   0.429   4.564 -1.6687  0.9111 -1.9381
    1PA     C19 9109   2.235   0.394   4.571  0.3087 -0.6053  0.0596
    1PA     H9R 9110   2.147   0.411   4.633 -0.2150 -4.5240  0.6596
    1PA     H9S 9111   2.235   0.457   4.481  0.4517  0.1636  0.5890
    1PA     C18 9112   2.237   0.249   4.507  0.1242 -0.1632  0.4167
    1PA     H8R 9113   2.311   0.235   4.428  1.1604 -0.9973  1.4869
    1PA     H8S 9114   2.258   0.173   4.583 -0.8438  0.5467  1.4296
    1PA     C17 9115   2.099   0.218   4.436 -0.0522 -0.1218  0.4166
    1PA     H7R 9116   2.088   0.110   4.424  0.3574 -0.5491  3.2608
    1PA     H7S 9117   2.010   0.240   4.496 -0.7898 -2.2711  0.2134
    1PA     C16 9118   2.093   0.291   4.298  0.5420 -0.2319  0.1764
    1PA     H6R 9119   2.075   0.399   4.306 -1.7929 -0.7328  3.1466
    1PA     H6S 9120   2.180   0.270   4.236 -0.6963 -1.6593 -1.1754
    1PA     C15 9121   1.986   0.226   4.218 -0.1799  0.1136 -0.6748
    1PA     H5R 9122   2.001   0.119   4.201 -0.7728 -0.0680 -0.1043
    1PA     H5S 9123   1.884   0.243   4.254  0.2838  0.8175  0.3556
    1PA     C14 9124   1.986   0.277   4.075 -0.4036  0.0855  0.1832
    1PA     H4R 9125   1.977   0.385   4.085  2.2438  0.1739  2.8463
    1PA     H4S 9126   2.081   0.262   4.024 -1.0413  1.7272 -1.6215
    1PA     C13 9127   1.871   0.226   3.986 -0.2353 -0.0605  0.8935
    1PA     H3R 9128   1.874   0.281   3.892  1.4982  1.8328  1.9783
    1PA     H3S 9129   1.893   0.123   3.955 -0.7236  0.4808 -1.4414
    1PA     C12 9130   1.719   0.235   4.038  0.0978 -0.1785  0.5353
    1PA     H2R 9131   1.708   0.164   4.121  0.9796  0.9656  1.6695
    1PA     H2S 9132   1.693   0.337   4.068  0.5067  0.0551  0.0978
    1PC     C11 9133   1.616   0.202   3.928 -0.6266  0.7376  0.2610
    1PC     O12 9134   1.610   0.098   3.868  0.0857 -0.0278  0.1213
    1PC     O11 9135   1.535   0.305   3.903 -0.6782 -0.0939  0.7311
    1PC      C1 9136   1.446   0.289   3.791 -0.5180  1.1086  0.9719
    1PC      HR 9137   1.503   0.274   3.699 -1.8413 -1.7504  0.5087
    1PC      HS 9138   1.390   0.196   3.799 -0.2038  0.8483  0.2916
    1PC      C2 9139   1.341   0.390   3.754  0.0037  0.0423  0.2899
    1PC      HX 9140   1.271   0.357   3.678  1.0149  1.4580 -1.3222
    1PC      C3 9141   1.415   0.501   3.694  0.6957  0.0631 -0.4113
    1PC      HA 9142   1.481   0.553   3.765  0.8495  0.7075 -1.0152
    1PC      HB 9143   1.473   0.456   3.613 -1.2950 -0.7541 -1.4482
    1PC     O31 9144   1.332   0.593   3.624 -0.4139  0.0419  0.6576
    1PC     P31 9145   1.297   0.574   3.470 -0.5304  0.2480  0.1316
    1PC     O32 9146   1.406   0.671   3.404 -0.2430 -0.4194  0.2354
    1PC     C31 9147   1.522   0.618   3.338 -0.1546 -0.2808  0.1782
    1PC     H1A 9148   1.572   0.552   3.409  0.3255  0.5205  0.5996
    1PC     H1B 9149   1.488   0.560   3.252 -1.7072  1.9624 -0.8359
    1PC     C32 9150   1.613   0.741   3.290  0.2123 -0.0373 -0.0642
    1PC     H2A 9151   1.651   0.798   3.374 -3.2154  2.1964  0.2138
    1PC     H2B 9152   1.697   0.707   3.229  0.5778  3.1207 -1.5719
    1PC     N31 9153   1.553   0.857   3.216  0.2195  0.6107  0.8915
    1PC     C33 9154   1.467   0.942   3.309  0.4617  0.3277 -0.2233
    1PC     H3A 9155   1.423   1.025   3.253 -1.1460 -0.9648 -0.9454
    1PC     H3B 9156   1.382   0.878   3.333  1.9177 -1.4659  0.3448
    1PC     H3C 9157   1.527   0.973   3.394 -0.6134 -1.2583  1.1887
    1PC     C34 9158   1.671   0.945   3.166 -0.1687  0.3568 -0.3081
    1PC     H4A 9159   1.625   1.041   3.143 -1.1060  0.9714  3.4260
    1PC     H4B 9160   1.750   0.956   3.241  0.9358  1.0545 -1.5333
    1PC     H4C 9161   1.706   0.897   3.074  0.0624 -0.7412  0.3354
    1PC     C35 9162   1.475   0.812   3.105 -0.5046 -0.4108 -0.2205
    1PC     H5A 9163   1.536   0.785   3.018 -0.7702 -0.3965 -0.4102
    1PC     H5B 9164   1.421   0.902   3.075 -0.0683  0.0927  0.4662
    1PC     H5C 9165   1.404   0.739   3.144 -0.6903  0.8568  1.9325
    1PC     O33 9166   1.330   0.438   3.426 -0.1593  0.5229  0.5480
    1PC     O34 9167   1.157   0.629   3.459 -0.1208  0.1306  0.0322
    1PC     O21 9168   1.282   0.422   3.886 -0.2384  0.0965  0.6500
    1PC     C21 9169   1.159   0.472   3.903 -0.3796 -0.1824 -0.5133
    1PC     O22 9170   1.068   0.472   3.822 -0.0140 -0.2840  0.6553
    1OL     C12 9171   1.135   0.530   4.045  0.5713 -0.2466  0.7806
    1OL     H2R 9172   1.208   0.488   4.114  1.3920  0.0255  0.1037
    1OL     H2S 9173   1.033   0.515   4.080  0.0931 -0.8561 -0.8020
    1OL     C13 9174   1.159   0.679   4.040 -0.3333 -0.7601 -0.8130
    1OL     H3R 9175   1.128   0.719   4.137  2.6069 -4.4476  1.9546
    1OL     H3S 9176   1.110   0.740   3.963  1.9439  0.7084 -1.1991
    1OL     C14 9177   1.312   0.714   4.027  0.3915 -0.1625 -0.4442
    1OL     H4R 9178   1.318   0.823   4.026  0.0151 -0.0763  1.9237
    1OL     H4S 9179   1.349   0.681   3.929 -0.1485 -0.8738 -0.4186
    1OL     C15 9180   1.402   0.667   4.144 -0.1053 -0.3335  0.2025
    1OL     H5R 9181   1.381   0.568   4.185 -0.4883  0.3167  1.6127
    1OL     H5S 9182   1.388   0.734   4.229 -0.2411 -1.2651  0.9391
    1OL     C16 9183   1.545   0.654   4.106 -0.0303  0.4917  0.3225
    1OL     H6R 9184   1.582   0.730   4.036 -0.2971  0.0864 -0.2663
    1OL     H6S 9185   1.569   0.561   4.055  0.9650  0.8456  0.1195
    1OL     C17 9186   1.629   0.644   4.237 -0.4861  0.3081 -0.7045
    1OL     H7R 9187   1.578   0.574   4.303 -0.8913  0.2252 -1.0933
    1OL     H7S 9188   1.626   0.742   4.285 -1.8502 -0.9109  1.9136
    1OL     C18 9189   1.773   0.599   4.231 -0.0938 -0.2437 -0.4153
    1OL     H8R 9190   1.818   0.637   4.138  1.3810  1.0493  0.7716
    1OL     H8S 9191   1.786   0.490   4.231 -1.6723 -0.5048  2.1330
    1OL     C19 9192   1.852   0.657   4.356 -0.4519  0.4245 -0.1841
    1OL     H9R 9193   1.920   0.739   4.340  1.0988 -0.3305  2.0157
    1OL    C110 9194   1.858   0.590   4.474 -0.3354 -0.1681  0.3501
    1OL    H10R 9195   1.918   0.622   4.559 -0.0871  1.2586 -0.3182
    1OL    C111 9196   1.760   0.476   4.503  0.6269 -0.6006  0.2128
    1OL    H11R 9197   1.768   0.399   4.426 -1.5080 -1.5534  0.8589
    1OL    H11S 9198   1.657   0.513   4.509  0.9376  0.5061 -0.9318
    1OL    C112 9199   1.804   0.415   4.629 -0.0508 -0.0982 -0.6317
    1OL    H12R 9200   1.817   0.491   4.705  0.4918 -0.8991  0.0995
    1OL    H12S 9201   1.900   0.362   4.627  0.0017 -0.1222  1.0703
    1OL    C113 9202   1.701   0.318   4.685 -0.9435 -0.4565 -0.0632
    1OL    H13R 9203   1.605   0.370   4.690 -0.4060  0.4865  0.7989
    1OL    H13S 9204   1.732   0.288   4.785  1.5751 -0.3317 -0.7385
    1OL    C114 9205   1.679   0.195   4.593 -0.8758 -0.0693  0.1089
    1OL    H14R 9206   1.769   0.136   4.574  0.3941  2.2280 -1.6037
    1OL    H14S 9207   1.646   0.223   4.493 -0.5519 -1.4503 -0.4081
    1OL    C115 9208   1.573   0.106   4.649 -0.9275  0.4158 -0.2115
    1OL    H15R 9209   1.495   0.158   4.705  0.0649  2.9898 -1.0774
    1OL    H15S 9210   1.627   0.063   4.734 -1.1622  2.2627  0.9350
    1OL    C116 9211   1.506  -0.004   4.563 -0.0569 -0.5596 -0.0164
    1OL    H16R 9212   1.471   0.050   4.475  1.3603 -1.3600 -1.1246
    1OL    H16S 9213   1.418  -0.040   4.617  0.4471  1.4799  2.3270
    1OL    C117 9214   1.608  -0.119   4.540  0.5377 -0.3961  0.5920
    1OL    H17R 9215   1.658  -0.157   4.629 -0.9103 -1.1227  1.1266
    1OL    H17S 9216   1.687  -0.078   4.476  0.2390 -0.9403 -0.1330
    1OL    C118 9217   1.549  -0.238   4.462  0.3063 -0.2881  0.6986
    1OL    H18R 9218   1.530  -0.216   4.357 -1.2016  1.3518  1.2530
    1OL    H18S 9219   1.454  -0.262   4.510 -0.0085  1.2936  0.9304
    1OL    H18T 9220   1.621  -0.320   4.468  0.2647 -0.5933 -1.8007
    1PA    C116 9221   4.432   5.059   5.120 -0.3875  0.6870  0.0504
    1PA    H16R 9222   4.417   5.129   5.201  1.9640 -0.4967  1.6088
    1PA    H16S 9223   4.407   5.100   5.022 -1.2364  1.2020  0.4742
    1PA    H16T 9224   4.530   5.009   5.123 -1.2434 -1.0833  0.1317
    1PA    C115 9225   4.324   4.951   5.135 -1.0762  0.1512  0.3191
    1PA    H15R 9226   4.340   4.870   5.064  0.0561  0.9118 -0.3103
    1PA    H15S 9227   4.332   4.909   5.236  0.1033  0.3640  0.3270
    1PA    C114 9228   4.185   5.007   5.135  0.0185 -0.3850  0.6661
    1PA    H14R 9229   4.170   5.097   5.195 -1.0591 -0.4265  0.4865
    1PA    H14S 9230   4.172   5.043   5.033  3.2876 -1.4838 -0.2435
    1PA    C113 9231   4.066   4.919   5.155  0.0222  0.2003 -0.6388
    1PA    H13R 9232   4.071   4.875   5.255 -1.1282 -0.1886 -0.7346
    1PA    H13S 9233   3.986   4.994   5.159  0.7872  1.1724 -2.3991
    1PA    C112 9234   4.047   4.810   5.048 -0.3450 -0.8814 -0.2533
    1PA    H12R 9235   4.053   4.862   4.952  0.2473  0.0596  0.2785
    1PA    H12S 9236   4.130   4.739   5.054 -0.3155 -0.8035  0.3109
    1PA    C111 9237   3.916   4.726   5.074  0.2785 -0.1555 -0.1491
    1PA    H11R 9238   3.928   4.683   5.173 -2.8964 -0.0313  0.4196
    1PA    H11S 9239   3.830   4.793   5.081  1.0891  0.8077  0.7821
    1PA    C110 9240   3.904   4.612   4.972  0.3679 -0.0078 -0.7274
    1PA    H10R 9241   4.000   4.562   4.983  0.2390 -0.1251 -0.1160
    1PA    H10S 9242   3.834   4.534   5.003  1.0425 -0.1209  0.5627
    1PA     C19 9243   3.852   4.648   4.836  0.0042  0.2755  0.0052
    1PA     H9R 9244   3.751   4.689   4.833  0.8405  2.3904 -1.3466
    1PA     H9S 9245   3.898   4.737   4.793  0.3465  0.1829  0.1752
    1PA     C18 9246   3.850   4.527   4.742  0.0779  0.1407 -0.1362
    1PA     H8R 9247   3.950   4.484   4.751  0.7982  2.0655  2.0555
    1PA     H8S 9248   3.792   4.448   4.791  0.8850  1.2788  2.9053
    1PA     C17 9249   3.828   4.559   4.595 -0.4564  0.5523  0.2086
    1PA     H7R 9250   3.727   4.597   4.579 -0.8945 -0.8684 -0.6058
    1PA     H7S 9251   3.895   4.643   4.576 -1.1093  1.2778  1.0346
    1PA     C16 9252   3.858   4.432   4.509 -0.1649 -0.2595 -0.0969
    1PA     H6R 9253   3.962   4.404   4.522  0.2031  0.7540 -0.7071
    1PA     H6S 9254   3.803   4.352   4.558  2.5664 -0.9124  2.1156
    1PA     C15 9255   3.832   4.452   4.367  0.3606 -0.7613 -0.2749
    1PA     H5R 9256   3.805   4.363   4.309 -2.5659 -0.4952  0.4886
    1PA     H5S 9257   3.736   4.505   4.365  0.1562 -0.8952  2.3720
    1PA     C14 9258   3.942   4.541   4.299  0.2343 -0.4592 -0.0957
    1PA     H4R 9259   3.947   4.641   4.343  0.2407 -1.4757  2.4070
    1PA     H4S 9260   4.034   4.486   4.320  0.2319  0.1941  1.9178
    1PA     C13 9261   3.928   4.537   4.145  0.1589  0.4747 -0.5784
    1PA     H3R 9262   4.005   4.601   4.102 -0.1285  2.3286  1.5357
    1PA     H3S 9263   3.931   4.432   4.115  0.8593 -0.0906  1.3497
    1PA     C12 9264   3.803   4.591   4.084  0.5234  0.0029  0.2512
    1PA     H2R 9265   3.722   4.523   4.112 -0.9980  0.4479 -2.6750
    1PA     H2S 9266   3.759   4.680   4.129 -1.2253 -1.2249  1.0874
    1PC     C11 9267   3.815   4.602   3.936 -0.8252 -0.1751 -0.2697
    1PC     O12 9268   3.896   4.670   3.872  0.0797  0.2488 -0.1683
    1PC     O11 9269   3.714   4.538   3.880 -0.1978 -0.6310  0.1479
    1PC      C1 9270   3.706   4.538   3.739  0.1833  1.1050  1.0991
    1PC      HR 9271   3.605   4.507   3.709  1.0086 -1.1986  0.5284
    1PC      HS 9272   3.724   4.639   3.700  1.0461 -0.2022 -2.2493
    1PC      C2 9273   3.812   4.459   3.667 -0.1929 -0.1050 -0.7662
    1PC      HX 9274   3.903   4.520   3.669 -0.0468 -0.3184 -0.7981
    1PC      C3 9275   3.762   4.432   3.526  0.7230  0.0268  0.4830
    1PC      HA 9276   3.675   4.366   3.533  1.6964 -1.2604  0.7758
    1PC      HB 9277   3.719   4.520   3.478 -0.5187 -1.8315 -2.0652
    1PC     O31 9278   3.870   4.366   3.456 -0.0704 -0.1697 -0.7220
    1PC     P31 9279   4.005   4.439   3.406 -0.0731 -0.0093  0.1653
    1PC     O32 9280   4.098   4.466   3.533  0.4833  0.0090  0.2541
    1PC     C31 9281   4.162   4.354   3.597  0.3655  0.2064  0.4501
    1PC     H1A 9282   4.168   4.359   3.706 -2.6866 -0.3552  0.7350
    1PC     H1B 9283   4.104   4.262   3.582 -0.4520  0.4655  1.8367
    1PC     C32 9284   4.296   4.334   3.530 -0.2499 -0.1569 -0.7015
    1PC     H2A 9285   4.345   4.244   3.568  0.0163 -0.2258 -1.1922
    1PC     H2B 9286   4.289   4.344   3.422 -0.4121  0.0263 -0.6748
    1PC     N31 9287   4.398   4.446   3.563 -0.0725  0.1049 -0.0703
    1PC     C33 9288   4.539   4.411   3.542 -0.5715 -0.0184 -0.0819
    1PC     H3A 9289   4.568   4.333   3.613 -1.3126 -0.7360 -0.5633
    1PC     H3B 9290   4.562   4.376   3.442 -1.5872 -2.7223  0.5601
    1PC     H3C 9291   4.591   4.502   3.575  1.3431 -0.5847 -1.3552
    1PC     C34 9292   4.372   4.558   3.467 -0.1039  0.3992 -0.4263
    1PC     H4A 9293   4.360   4.522   3.365 -0.4866 -0.7085 -0.0019
    1PC     H4B 9294   4.286   4.615   3.501  0.0727 -0.4237  1.5476
    1PC     H4C 9295   4.457   4.625   3.479  0.3400 -0.5344  2.4272
    1PC     C35 9296   4.382   4.497   3.708  0.2535  0.3328  0.6135
    1PC     H5A 9297   4.456   4.574   3.730 -0.2549  1.4281 -1.3689
    1PC     H5B 9298   4.394   4.417   3.782  1.4076 -0.1089 -0.0235
    1PC     H5C 9299   4.290   4.555   3.713  0.2153  0.5271 -1.4747
    1PC     O33 9300   4.078   4.355   3.312  0.6253  0.2105 -0.3035
    1PC     O34 9301   3.972   4.575   3.361  0.1230  0.1586 -0.4974
    1PC     O21 9302   3.828   4.325   3.720  0.2472 -0.0926 -0.3004
    1PC     C21 9303   3.929   4.306   3.804  0.2554  0.4916 -0.2273
    1PC     O22 9304   3.996   4.396   3.849 -0.2486 -0.1267 -0.2547
    1OL     C12 9305   3.946   4.164   3.849  0.6072 -0.1585  0.2874
    1OL     H2R 9306   4.013   4.115   3.778 -1.0463 -0.5861 -1.0339
    1OL     H2S 9307   3.854   4.113   3.821 -0.4993  3.0816 -2.7697
    1OL     C13 9308   3.990   4.137   3.988 -0.2907 -0.1823  0.3460
    1OL     H3R 9309   3.915   4.188   4.049  0.4429  0.4975  0.6946
    1OL     H3S 9310   4.090   4.179   4.005  0.5110 -2.5317  1.8880
    1OL     C14 9311   4.004   3.982   4.012 -0.4651 -0.2457  0.2142
    1OL     H4R 9312   4.097   3.954   3.962  0.5045 -0.8003  2.2301
    1OL     H4S 9313   3.922   3.929   3.962 -1.6865 -0.3210  2.1996
    1OL     C15 9314   4.019   3.944   4.161 -0.1093 -0.7436  0.0063
    1OL     H5R 9315   4.016   3.835   4.160 -0.3163 -0.7462  0.5769
    1OL     H5S 9316   3.930   3.977   4.215 -1.3564 -2.5607 -0.8481
    1OL     C16 9317   4.151   4.005   4.224  0.6411  0.3339 -0.5448
    1OL     H6R 9318   4.147   4.113   4.209 -1.4078  0.8239  2.5077
    1OL     H6S 9319   4.243   3.960   4.187  0.2566  0.1730 -1.3344
    1OL     C17 9320   4.150   3.995   4.378  0.2713  0.3498 -0.3646
    1OL     H7R 9321   4.125   3.897   4.419  3.5433 -0.6544 -0.4600
    1OL     H7S 9322   4.074   4.065   4.414  1.0557  0.1715  1.8262
    1OL     C18 9323   4.284   4.045   4.444 -0.4801  0.3661  0.5923
    1OL     H8R 9324   4.300   4.152   4.425 -0.5791  0.1892 -0.5455
    1OL     H8S 9325   4.370   3.997   4.397  0.4923  0.8362  1.8181
    1OL     C19 9326   4.290   4.015   4.597 -0.3951 -0.5285  0.2960
    1OL     H9R 9327   4.359   3.936   4.628 -1.4880 -0.9168  1.8080
    1OL    C110 9328   4.222   4.080   4.691  0.6473 -0.4607 -0.2206
    1OL    H10R 9329   4.231   4.055   4.796 -2.3112  0.1348  0.2479
    1OL    C111 9330   4.125   4.192   4.678  0.0769 -0.2651  0.1271
    1OL    H11R 9331   4.070   4.186   4.584  0.1155 -2.4701  0.1922
    1OL    H11S 9332   4.178   4.283   4.708  0.8514 -0.6917  0.0757
    1OL    C112 9333   4.023   4.184   4.798 -0.3062  0.2097  0.1902
    1OL    H12R 9334   3.963   4.093   4.798  0.0270 -0.0101  0.1139
    1OL    H12S 9335   3.954   4.266   4.779  2.3978  2.4284 -0.7237
    1OL    C113 9336   4.095   4.203   4.934  0.0591  0.2163 -0.6420
    1OL    H13R 9337   4.186   4.260   4.913 -0.1730 -0.0655 -2.6118
    1OL    H13S 9338   4.124   4.107   4.978 -0.0272  0.3133 -0.3721
    1OL    C114 9339   3.998   4.263   5.043 -0.1512  0.3873  0.2436
    1OL    H14R 9340   3.937   4.182   5.084 -1.7887  1.4338 -0.0084
    1OL    H14S 9341   3.931   4.327   4.984  2.0341  0.8224 -1.9168
    1OL    C115 9342   4.070   4.337   5.158 -0.4297 -0.2451  0.8043
    1OL    H15R 9343   4.134   4.412   5.110 -0.5952 -0.2186  0.6286
    1OL    H15S 9344   4.144   4.270   5.204  1.9078  0.7803 -1.2245
    1OL    C116 9345   3.991   4.396   5.281 -0.0656  0.7124 -0.4332
    1OL    H16R 9346   3.906   4.446   5.235 -0.2871 -1.0709 -2.0895
    1OL    H16S 9347   4.049   4.470   5.336 -0.5524  1.3212 -0.7327
    1OL    C117 9348   3.929   4.294   5.376 -0.1718  0.1471  0.1834
    1OL    H17R 9349   4.007   4.249   5.437 -0.2585 -0.5548 -0.2139
    1OL    H17S 9350   3.895   4.209   5.316  2.2003  1.3750 -3.2233
    1OL    C118 9351   3.820   4.359   5.450 -0.1394 -0.1072 -0.4396
    1OL    H18R 9352   3.870   4.432   5.515  0.6488  1.6184 -2.8717
    1OL    H18S 9353   3.758   4.288   5.504 -1.9071 -1.4218 -3.9213
    1OL    H18T 9354   3.756   4.422   5.389 -0.9053  0.3760  0.8326
    1PA    C116 9355   0.128   2.451   4.304 -0.2710  0.0802 -0.5869
    1PA    H16R 9356   0.222   2.463   4.249  0.5025 -1.5406  0.2932
    1PA    H16S 9357   0.163   2.400   4.395 -1.3690 -0.2094 -0.3091
    1PA    H16T 9358   0.092   2.549   4.333 -3.4423 -1.3379  0.7447
    1PA    C115 9359   0.016   2.380   4.231 -0.3446 -0.4416 -0.4428
    1PA    H15R 9360  -0.010   2.463   4.164  0.6196  0.8043  0.6547
    1PA    H15S 9361   0.050   2.298   4.167 -2.2257 -1.3124 -0.3819
    1PA    C114 9362  -0.103   2.348   4.316  0.5674  0.2234  0.1128
    1PA    H14R 9363  -0.143   2.445   4.347 -0.6591  0.5380 -2.2685
    1PA    H14S 9364  -0.177   2.294   4.256  0.0454  1.6337 -0.5369
    1PA    C113 9365  -0.075   2.261   4.445  0.4794 -0.6759 -0.1617
    1PA    H13R 9366  -0.002   2.308   4.512  1.0858  0.1927 -1.4010
    1PA    H13S 9367  -0.170   2.251   4.499  1.2167  0.2235  1.3760
    1PA    C112 9368  -0.012   2.129   4.415 -0.1872 -0.0397  0.1443
    1PA    H12R 9369   0.086   2.145   4.369 -0.0391 -0.8152  0.1786
    1PA    H12S 9370   0.002   2.082   4.512 -2.4030 -2.2281 -0.4982
    1PA    C111 9371  -0.090   2.033   4.320  0.4904  0.0308 -0.1240
    1PA    H11R 9372  -0.102   2.071   4.218 -0.4946  0.3893  0.1141
    1PA    H11S 9373  -0.046   1.934   4.304  0.9411  0.4337 -1.5764
    1PA    C110 9374  -0.234   2.006   4.359 -0.0945 -0.6924 -0.5279
    1PA    H10R 9375  -0.242   1.953   4.454  1.4381 -2.4183 -1.3025
    1PA    H10S 9376  -0.285   2.101   4.378  1.8447  0.7157 -1.9466
    1PA     C19 9377  -0.312   1.937   4.245  0.2189 -0.2375  0.0151
    1PA     H9R 9378  -0.414   1.917   4.279 -0.6073  3.5320  0.2439
    1PA     H9S 9379  -0.318   2.002   4.157  0.5840 -0.8111 -0.4394
    1PA     C18 9380  -0.247   1.806   4.198 -0.3543 -0.2942 -0.7223
    1PA     H8R 9381  -0.154   1.819   4.142 -0.0740  1.5718  0.0890
    1PA     H8S 9382  -0.226   1.740   4.283  0.5569  0.1272 -0.6082
    1PA     C17 9383  -0.336   1.729   4.104  0.2702  0.3660 -0.2568
    1PA     H7R 9384  -0.295   1.629   4.086  2.7320  0.7347  2.6087
    1PA     H7S 9385  -0.429   1.712   4.160 -0.2378  0.0616 -1.1593
    1PA     C16 9386  -0.357   1.799   3.966  0.6597  0.1971 -0.5948
    1PA     H6R 9387  -0.423   1.885   3.978  0.5153  0.1537 -1.0757
    1PA     H6S 9388  -0.261   1.842   3.936  1.1103 -1.9014 -2.3294
    1PA     C15 9389  -0.402   1.697   3.857 -0.6579 -0.8595  0.8520
    1PA     H5R 9390  -0.407   1.745   3.760 -1.0434 -3.1839 -0.3643
    1PA     H5S 9391  -0.335   1.611   3.843 -0.5428 -1.3366  3.6236
    1PA     C14 9392  -0.539   1.632   3.883  0.2335 -0.3712  0.4295
    1PA     H4R 9393  -0.539   1.575   3.976 -1.9727 -0.9176  0.1548
    1PA     H4S 9394  -0.611   1.714   3.890  0.7711  0.1905 -0.5323
    1PA     C13 9395  -0.585   1.539   3.770 -0.4701 -0.0243 -0.3069
    1PA     H3R 9396  -0.688   1.509   3.794 -0.2586 -0.0450  0.6032
    1PA     H3S 9397  -0.603   1.599   3.680 -0.3259  0.3255 -0.0998
    1PA     C12 9398  -0.494   1.417   3.735  0.6123 -0.1242 -0.4227
    1PA     H2R 9399  -0.387   1.438   3.733  0.9624 -1.5147  1.1300
    1PA     H2S 9400  -0.496   1.350   3.821  1.1679 -0.9616 -1.0408
    1PC     C11 9401  -0.529   1.337   3.615 -0.0496  0.7758  0.3461
    1PC     O12 9402  -0.452   1.308   3.520  0.3341 -0.0196 -0.7505
    1PC     O11 9403  -0.652   1.283   3.623 -0.2574  0.2820  0.1958
    1PC      C1 9404  -0.699   1.196   3.516 -0.0565 -0.4495  0.4547
    1PC      HR 9405  -0.801   1.173   3.549 -0.0428 -1.8728 -0.3899
    1PC      HS 9406  -0.695   1.248   3.420 -0.7912 -0.2381  0.5308
    1PC      C2 9407  -0.629   1.062   3.509 -0.0664  0.0690 -0.0233
    1PC      HX 9408  -0.525   1.079   3.478 -0.3283 -0.5318 -1.3084
    1PC      C3 9409  -0.702   0.969   3.402 -0.1954 -0.7422  0.0624
    1PC      HA 9410  -0.634   0.886   3.382  1.0369 -0.2040  1.7156
    1PC      HB 9411  -0.792   0.933   3.452 -0.2806 -0.5432  0.0546
    1PC     O31 9412  -0.729   1.041   3.269  0.7357 -0.5254 -0.7686
    1PC     P31 9413  -0.634   1.032   3.141  0.2776 -0.2308 -0.0677
    1PC     O32 9414  -0.519   1.132   3.178  0.3699  0.5691  0.0113
    1PC     C31 9415  -0.528   1.270   3.140 -0.3022 -0.0488 -0.4624
    1PC     H1A 9416  -0.625   1.315   3.162  0.3717  0.9579  0.5893
    1PC     H1B 9417  -0.472   1.327   3.214 -3.0278  0.2779  1.5264
    1PC     C32 9418  -0.488   1.296   2.993 -0.8483 -0.2356  1.1946
    1PC     H2A 9419  -0.566   1.252   2.931 -1.5816  0.8824  1.2881
    1PC     H2B 9420  -0.486   1.404   2.978 -0.5241 -0.3768  0.1478
    1PC     N31 9421  -0.353   1.253   2.938  0.0028 -0.1298  0.2742
    1PC     C33 9422  -0.327   1.303   2.802  0.7766 -0.0738 -0.5607
    1PC     H3A 9423  -0.407   1.263   2.740  0.2682 -0.7658  0.5009
    1PC     H3B 9424  -0.330   1.412   2.791 -0.4487 -0.1307 -0.9016
    1PC     H3C 9425  -0.237   1.258   2.759  2.5112  2.3426  0.3181
    1PC     C34 9426  -0.246   1.288   3.027 -0.2626 -0.1681 -0.3803
    1PC     H4A 9427  -0.249   1.396   3.043 -2.0991 -0.2126 -0.1679
    1PC     H4B 9428  -0.269   1.243   3.124 -2.6948  1.5212 -0.0851
    1PC     H4C 9429  -0.156   1.248   2.979  0.0483  0.9960 -0.7912
    1PC     C35 9430  -0.343   1.102   2.923 -0.4569  0.0590 -0.3219
    1PC     H5A 9431  -0.278   1.082   2.838 -0.5819 -0.2094 -0.3553
    1PC     H5B 9432  -0.442   1.063   2.897 -0.1935  0.5795 -2.2424
    1PC     H5C 9433  -0.314   1.058   3.018 -0.9391 -2.0567 -1.0983
    1PC     O33 9434  -0.577   0.897   3.136  0.0437 -0.4014  0.2683
    1PC     O34 9435  -0.711   1.091   3.027 -0.0083  0.0947  0.7084
    1PC     O21 9436  -0.641   0.988   3.637 -0.3386  0.0545  0.4293
    1PC     C21 9437  -0.537   0.997   3.726 -0.5232 -0.4342  0.2946
    1PC     O22 9438  -0.434   1.065   3.708  0.4433  0.9631  0.8502
    1OL     C12 9439  -0.550   0.907   3.845 -0.3028 -0.4227  0.2231
    1OL     H2R 9440  -0.452   0.875   3.880  0.9267  1.2957 -1.4412
    1OL     H2S 9441  -0.621   0.827   3.823 -1.3823  1.0543 -2.1166
    1OL     C13 9442  -0.610   0.988   3.962 -0.2916  0.0388 -0.2002
    1OL     H3R 9443  -0.635   0.917   4.041 -2.0744  0.8446  0.0180
    1OL     H3S 9444  -0.709   1.029   3.938 -0.7766 -0.3744  0.9960
    1OL     C14 9445  -0.526   1.099   4.019  0.4580 -0.4658 -1.1174
    1OL     H4R 9446  -0.478   1.157   3.940  0.4419 -0.2490 -0.9708
    1OL     H4S 9447  -0.444   1.052   4.075  0.0628 -2.1606 -1.8992
    1OL     C15 9448  -0.595   1.201   4.109 -0.4454 -0.3909 -0.6807
    1OL     H5R 9449  -0.618   1.139   4.196  0.6049  0.1947  0.0342
    1OL     H5S 9450  -0.683   1.246   4.061  1.4372  2.7921 -1.4226
    1OL     C16 9451  -0.505   1.315   4.153 -0.0909  0.4488 -0.2413
    1OL     H6R 9452  -0.483   1.383   4.070  0.0088  0.2483 -0.3783
    1OL     H6S 9453  -0.415   1.266   4.190  0.0394  0.3852 -0.6398
    1OL     C17 9454  -0.574   1.407   4.259  1.1850 -0.6782  0.7991
    1OL     H7R 9455  -0.509   1.492   4.280  0.4406  0.1517 -0.0858
    1OL     H7S 9456  -0.581   1.348   4.350 -0.2963 -1.0913  0.4519
    1OL     C18 9457  -0.716   1.462   4.223 -0.1851  0.2723 -0.1680
    1OL     H8R 9458  -0.781   1.377   4.202  2.5978 -2.1375  0.4613
    1OL     H8S 9459  -0.719   1.520   4.130 -1.1521 -1.5176 -1.3175
    1OL     C19 9460  -0.778   1.538   4.343 -0.3553 -0.1005 -0.7908
    1OL     H9R 9461  -0.832   1.474   4.412 -0.2815  2.3373  1.7183
    1OL    C110 9462  -0.787   1.668   4.360 -0.2687 -0.6476  0.0660
    1OL    H10R 9463  -0.849   1.709   4.440  1.6792  0.0801  1.2786
    1OL    C111 9464  -0.720   1.775   4.272 -0.1354  0.4718 -0.2280
    1OL    H11R 9465  -0.751   1.765   4.167 -0.6059  0.4708 -0.0900
    1OL    H11S 9466  -0.611   1.773   4.280 -0.2000  0.1318  0.5715
    1OL    C112 9467  -0.763   1.913   4.325  0.2150 -0.0275  0.0678
    1OL    H12R 9468  -0.729   1.920   4.429 -2.9632  0.0882  1.2065
    1OL    H12S 9469  -0.869   1.935   4.333  0.3311  1.1242 -1.2865
    1OL    C113 9470  -0.710   2.035   4.255 -0.4783 -0.9483  0.1195
    1OL    H13R 9471  -0.608   2.019   4.221 -0.2659 -0.9446  0.7470
    1OL    H13S 9472  -0.730   2.129   4.309  0.9705 -0.3672 -0.3188
    1OL    C114 9473  -0.772   2.065   4.115 -0.4093  0.1891 -0.1357
    1OL    H14R 9474  -0.730   1.989   4.049  0.6313 -1.0580  1.8496
    1OL    H14S 9475  -0.734   2.162   4.082  0.0453  0.2768  0.6182
    1OL    C115 9476  -0.927   2.067   4.106 -0.2983 -0.3855 -0.3799
    1OL    H15R 9477  -0.961   2.156   4.160  0.4449  0.3621 -1.1357
    1OL    H15S 9478  -0.972   1.980   4.154 -2.7356  1.7699  1.5938
    1OL    C116 9479  -0.974   2.075   3.958 -0.1391  0.2741  0.4796
    1OL    H16R 9480  -0.961   2.177   3.919 -0.2648  0.0764 -0.0885
    1OL    H16S 9481  -1.082   2.060   3.963  0.0212 -0.9202  0.6038
    1OL    C117 9482  -0.898   1.978   3.865  0.1145 -0.7532 -0.5733
    1OL    H17R 9483  -0.896   1.880   3.913  0.1893  0.4446  2.0494
    1OL    H17S 9484  -0.795   2.014   3.856  0.6225 -1.5234  1.5854
    1OL    C118 9485  -0.974   1.969   3.733  0.3862 -0.0202  0.5612
    1OL    H18R 9486  -0.952   2.051   3.665 -1.1887 -0.2677 -0.2810
    1OL    H18S 9487  -1.082   1.957   3.745  0.7031 -3.3975  1.0402
    1OL    H18T 9488  -0.943   1.882   3.674  2.6959  0.4858  0.9236
    1PA    C116 9489   4.754   1.182   5.163 -0.0326 -0.0083  0.4087
    1PA    H16R 9490   4.842   1.208   5.223 -0.3917  0.4437  0.7500
    1PA    H16S 9491   4.778   1.086   5.116  0.7390  1.0273 -1.3993
    1PA    H16T 9492   4.671   1.168   5.233  0.3312  0.9436  1.0453
    1PA    C115 9493   4.722   1.296   5.072  0.1741  0.0791  0.2150
    1PA    H15R 9494   4.683   1.377   5.134  1.9024  1.4925 -0.4703
    1PA    H15S 9495   4.809   1.339   5.022 -0.1740  0.2525 -0.2466
    1PA    C114 9496   4.621   1.245   4.971 -0.2453 -0.2041 -0.1596
    1PA    H14R 9497   4.661   1.147   4.942  1.5670 -0.0651  1.5981
    1PA    H14S 9498   4.525   1.233   5.021  0.0911  1.8074  1.0991
    1PA    C113 9499   4.602   1.352   4.856  0.3920 -0.4083 -0.3734
    1PA    H13R 9500   4.576   1.448   4.900  3.2778  0.3627 -0.1735
    1PA    H13S 9501   4.698   1.369   4.809  1.1757 -1.2777  0.8510
    1PA    C112 9502   4.504   1.319   4.740 -0.2379 -0.3825 -0.0185
    1PA    H12R 9503   4.400   1.332   4.772 -0.6487 -0.2285 -1.3684
    1PA    H12S 9504   4.521   1.391   4.660  1.8603 -1.8916 -1.0154
    1PA    C111 9505   4.516   1.179   4.674 -0.3876 -0.5049 -0.0968
    1PA    H11R 9506   4.495   1.099   4.746  0.0984  0.9345  1.7355
    1PA    H11S 9507   4.445   1.180   4.591  1.1169  0.3024 -1.4353
    1PA    C110 9508   4.649   1.151   4.595 -0.1191  0.7603 -0.4947
    1PA    H10R 9509   4.659   1.223   4.514 -2.9405  1.6071 -0.1963
    1PA    H10S 9510   4.737   1.151   4.660 -0.1557  0.0558 -0.4400
    1PA     C19 9511   4.652   1.005   4.539 -0.2963 -0.1817  0.1299
    1PA     H9R 9512   4.660   0.939   4.625 -1.4335 -1.0338 -0.3847
    1PA     H9S 9513   4.559   0.987   4.484  0.0648 -0.0899 -0.5176
    1PA     C18 9514   4.773   0.973   4.447 -0.6512 -0.0893  0.8357
    1PA     H8R 9515   4.760   1.044   4.365 -2.8229 -1.0782  0.2443
    1PA     H8S 9516   4.863   0.998   4.504  0.2009  0.0046 -0.5158
    1PA     C17 9517   4.784   0.827   4.405 -0.0271 -0.0650 -0.1717
    1PA     H7R 9518   4.871   0.817   4.339 -0.1385 -1.3619 -0.1595
    1PA     H7S 9519   4.797   0.771   4.498 -3.3221 -0.3411  0.2319
    1PA     C16 9520   4.674   0.768   4.321  0.6923 -0.3870 -0.5239
    1PA     H6R 9521   4.580   0.776   4.376  1.3814 -3.3971  1.3155
    1PA     H6S 9522   4.656   0.817   4.225 -3.0944 -0.6163 -0.0580
    1PA     C15 9523   4.697   0.615   4.297 -0.4049  0.8336 -0.6369
    1PA     H5R 9524   4.787   0.594   4.239  0.6930 -0.1243  1.2846
    1PA     H5S 9525   4.715   0.566   4.393 -2.8342  0.8914 -0.0755
    1PA     C14 9526   4.578   0.538   4.230 -0.4935 -0.4017 -0.0804
    1PA     H4R 9527   4.616   0.437   4.241  0.7841  0.0689 -0.0599
    1PA     H4S 9528   4.489   0.552   4.292 -0.4872 -0.0693 -0.1412
    1PA     C13 9529   4.550   0.571   4.080 -0.1488  0.0004  0.2919
    1PA     H3R 9530   4.514   0.672   4.062 -1.3257 -0.4340  0.1221
    1PA     H3S 9531   4.654   0.572   4.045 -0.7476  0.6316 -1.6206
    1PA     C12 9532   4.469   0.460   4.012 -0.5365  0.8527  0.0988
    1PA     H2R 9533   4.502   0.359   4.035  0.1411  1.1316  0.3616
    1PA     H2S 9534   4.364   0.464   4.044 -0.6966 -0.4458 -0.1978
    1PC     C11 9535   4.469   0.467   3.861  1.0340  0.4023  0.1627
    1PC     O12 9536   4.515   0.554   3.795 -0.3270 -0.2750  0.4860
    1PC     O11 9537   4.398   0.367   3.806  0.2223 -0.2913 -0.3999
    1PC      C1 9538   4.395   0.338   3.666 -0.3526 -0.9325 -0.1128
    1PC      HR 9539   4.481   0.387   3.620 -0.2155  0.7921  1.8939
    1PC      HS 9540   4.408   0.231   3.646 -0.2621 -0.9682  0.1391
    1PC      C2 9541   4.262   0.383   3.604 -0.0995  0.4337 -0.9995
    1PC      HX 9542   4.245   0.350   3.501  1.0526  0.5434 -1.2377
    1PC      C3 9543   4.242   0.538   3.597  0.0116  0.0492  0.0930
    1PC      HA 9544   4.160   0.575   3.658  0.9294 -0.5641  1.7702
    1PC      HB 9545   4.329   0.599   3.622 -0.7557  0.6921  1.2867
    1PC     O31 9546   4.195   0.571   3.464 -0.7160  0.1677  0.4762
    1PC     P31 9547   4.304   0.631   3.361 -0.0398  0.0901 -0.0299
    1PC     O32 9548   4.276   0.792   3.361  0.3528  0.1608 -0.3155
    1PC     C31 9549   4.178   0.850   3.273  1.0216 -0.3137 -0.0466
    1PC     H1A 9550   4.095   0.780   3.262  0.1675  0.9521 -2.4195
    1PC     H1B 9551   4.140   0.941   3.320  0.3408 -0.1420 -0.9038
    1PC     C32 9552   4.231   0.884   3.132  0.0363  0.8012 -0.2883
    1PC     H2A 9553   4.318   0.945   3.154  1.7439 -1.5468 -0.1152
    1PC     H2B 9554   4.274   0.796   3.085 -1.1599  0.1077 -0.1400
    1PC     N31 9555   4.143   0.937   3.025 -0.0458 -0.8171 -0.4590
    1PC     C33 9556   4.073   1.057   3.085 -0.4015  0.3712  0.4604
    1PC     H3A 9557   4.022   1.029   3.177 -1.7986  1.4796  0.0513
    1PC     H3B 9558   4.141   1.140   3.107  1.4508 -0.6514 -1.0583
    1PC     H3C 9559   4.000   1.099   3.016  0.8041  2.0743  0.1723
    1PC     C34 9560   4.231   0.975   2.916  0.4180 -0.3869  0.0125
    1PC     H4A 9561   4.176   1.037   2.845  1.1290 -0.1046 -0.2930
    1PC     H4B 9562   4.317   1.020   2.966  1.1182 -0.4221 -1.1268
    1PC     H4C 9563   4.268   0.886   2.865 -0.2311 -0.4106 -0.4328
    1PC     C35 9564   4.043   0.840   2.981 -0.0879 -0.1988  0.0864
    1PC     H5A 9565   3.993   0.799   3.070 -0.2816  1.5818  0.8525
    1PC     H5B 9566   4.096   0.761   2.928  0.3198  0.5482 -0.6419
    1PC     H5C 9567   3.974   0.880   2.907 -1.1454 -0.1050  1.0878
    1PC     O33 9568   4.441   0.610   3.413  0.2428 -0.1178  0.8494
    1PC     O34 9569   4.272   0.578   3.228 -0.1912  0.3551 -0.1229
    1PC     O21 9570   4.151   0.330   3.681  0.3042  0.0189  0.0262
    1PC     C21 9571   4.091   0.218   3.638  0.1409 -0.0468 -0.0548
    1PC     O22 9572   4.130   0.157   3.543  0.2258  0.1869 -0.0921
    1OL     C12 9573   4.005   0.158   3.744  0.3375  0.2245 -0.2218
    1OL     H2R 9574   3.911   0.132   3.695 -0.1391  1.4015  0.0382
    1OL     H2S 9575   3.986   0.234   3.820 -1.3913 -0.1689 -0.2074
    1OL     C13 9576   4.053   0.021   3.806  0.0619  0.0850  0.5352
    1OL     H3R 9577   4.040  -0.051   3.725  2.0650 -0.6599  0.8182
    1OL     H3S 9578   3.995  -0.012   3.893 -1.7384 -1.7740 -1.2652
    1OL     C14 9579   4.196   0.038   3.849 -0.9422  0.7488 -0.1985
    1OL     H4R 9580   4.210   0.118   3.923  2.1667 -1.2741  1.6389
    1OL     H4S 9581   4.263   0.076   3.772  1.5318  0.6123  1.7472
    1OL     C15 9582   4.251  -0.098   3.909 -0.5303 -1.1769  1.0187
    1OL     H5R 9583   4.215  -0.177   3.842  0.0958 -0.3683 -0.3290
    1OL     H5S 9584   4.210  -0.125   4.006 -0.4723 -1.2428  1.0255
    1OL     C16 9585   4.401  -0.098   3.915  0.3391 -0.0669 -0.1010
    1OL     H6R 9586   4.438  -0.083   3.813 -1.7645 -0.0752 -0.9001
    1OL     H6S 9587   4.431  -0.199   3.946  0.3804  0.5428  2.0465
    1OL     C17 9588   4.470   0.017   4.002  0.1368  0.5364  0.4321
    1OL     H7R 9589   4.454   0.115   3.957  1.7256  0.7792  0.3463
    1OL     H7S 9590   4.576  -0.009   3.996  0.0384 -0.0740  1.1746
    1OL     C18 9591   4.427   0.021   4.150  0.0208  0.1583  0.1139
    1OL     H8R 9592   4.428  -0.082   4.187 -1.4345 -0.1170 -0.5409
    1OL     H8S 9593   4.327   0.064   4.149  0.2504  0.9084  2.3896
    1OL     C19 9594   4.515   0.112   4.227  0.2736 -0.2956 -0.1435
    1OL     H9R 9595   4.610   0.125   4.177  0.0969 -1.8313 -0.9308
    1OL    C110 9596   4.473   0.205   4.310 -0.1785  0.9099 -0.0352
    1OL    H10R 9597   4.539   0.288   4.335  1.4773  0.2467 -1.9368
    1OL    C111 9598   4.337   0.200   4.376  0.5769  0.0852  0.1210
    1OL    H11R 9599   4.362   0.213   4.482  4.2310  2.3972 -0.7985
    1OL    H11S 9600   4.288   0.107   4.350  1.4941 -0.1737 -0.7693
    1OL    C112 9601   4.260   0.324   4.331  0.2117 -0.5439 -0.3711
    1OL    H12R 9602   4.329   0.403   4.300 -2.5232  2.7325  1.1764
    1OL    H12S 9603   4.188   0.361   4.404 -0.4428  0.2715 -1.3938
    1OL    C113 9604   4.176   0.304   4.209 -0.3606  0.2393  0.4529
    1OL    H13R 9605   4.111   0.216   4.217  0.2806 -0.1204  2.4964
    1OL    H13S 9606   4.239   0.286   4.122 -1.2906  1.2987 -0.4718
    1OL    C114 9607   4.084   0.421   4.176  0.0047 -0.2936 -0.6632
    1OL    H14R 9608   4.139   0.514   4.159 -1.8143  1.1422  0.7704
    1OL    H14S 9609   4.017   0.442   4.260 -1.0847  2.3032 -2.0727
    1OL    C115 9610   3.997   0.389   4.052 -0.2640  0.1524 -0.3110
    1OL    H15R 9611   3.951   0.291   4.059 -3.5134  1.5532 -0.2173
    1OL    H15S 9612   4.060   0.386   3.963 -0.3003  0.9694 -0.3800
    1OL    C116 9613   3.888   0.501   4.041 -0.0003  0.6343  0.2763
    1OL    H16R 9614   3.945   0.594   4.047  1.5575 -0.3755  2.9687
    1OL    H16S 9615   3.812   0.499   4.120 -0.4944  1.1853 -0.1744
    1OL    C117 9616   3.813   0.489   3.904 -0.3592 -0.4085  0.4232
    1OL    H17R 9617   3.757   0.395   3.901  0.1725 -0.7674  1.3799
    1OL    H17S 9618   3.891   0.484   3.828  0.0318 -0.9760  0.8550
    1OL    C118 9619   3.706   0.602   3.877 -0.1648 -0.4196 -0.3570
    1OL    H18R 9620   3.645   0.609   3.967  1.1915  0.4620  0.5331
    1OL    H18S 9621   3.638   0.574   3.796 -2.3471  3.4396 -0.0928
    1OL    H18T 9622   3.755   0.697   3.855 -0.4094 -0.4649 -1.1196
    1PA    C116 9623   1.492   2.879   5.228 -0.5948  0.0820  0.7446
    1PA    H16R 9624   1.559   2.942   5.288  1.2486  0.3361 -1.4695
    1PA    H16S 9625   1.497   2.778   5.268  0.3468 -0.1666  0.0231
    1PA    H16T 9626   1.388   2.914   5.227 -0.7226 -0.2448 -1.8547
    1PA    C115 9627   1.543   2.884   5.083  0.5287  0.2986 -0.3939
    1PA    H15R 9628   1.648   2.862   5.064 -0.0700 -0.4867 -3.3565
    1PA    H15S 9629   1.484   2.813   5.024 -1.0895  1.1286  0.1535
    1PA    C114 9630   1.503   3.016   5.015  0.2896 -0.6262 -0.6473
    1PA    H14R 9631   1.405   3.051   5.047  0.6281  0.9995 -1.2978
    1PA    H14S 9632   1.580   3.089   5.040  1.0943 -1.0865 -1.6738
    1PA    C113 9633   1.504   3.011   4.862  0.6433  0.1181 -0.2595
    1PA    H13R 9634   1.606   2.989   4.831  0.1795 -1.6855 -0.6492
    1PA    H13S 9635   1.438   2.928   4.835 -1.9611  1.4092  1.6247
    1PA    C112 9636   1.452   3.145   4.800  0.2273  0.0666 -0.4548
    1PA    H12R 9637   1.491   3.227   4.860 -0.0075  0.2625 -0.5710
    1PA    H12S 9638   1.501   3.152   4.703  0.5699 -0.3212 -0.3119
    1PA    C111 9639   1.294   3.165   4.787 -0.0151  0.2381 -0.2552
    1PA    H11R 9640   1.238   3.086   4.737  0.4851 -0.2739 -0.0135
    1PA    H11S 9641   1.253   3.189   4.885 -0.4484  0.6987 -0.5372
    1PA    C110 9642   1.272   3.294   4.702  0.1167  0.2896  0.0108
    1PA    H10R 9643   1.341   3.374   4.728  0.4383  0.6936 -1.8915
    1PA    H10S 9644   1.293   3.270   4.597 -1.9313 -0.7914 -0.2133
    1PA     C19 9645   1.126   3.336   4.709 -0.1692  0.3195  0.4356
    1PA     H9R 9646   1.059   3.261   4.667  1.6087 -0.1719 -1.7303
    1PA     H9S 9647   1.099   3.355   4.813 -0.9739 -1.3645  0.5698
    1PA     C18 9648   1.114   3.463   4.624 -0.7485 -0.4968 -0.2799
    1PA     H8R 9649   1.012   3.501   4.637 -0.6886 -0.3223 -0.3203
    1PA     H8S 9650   1.185   3.538   4.658  0.0948 -1.1290 -0.6198
    1PA     C17 9651   1.131   3.445   4.468  0.1705 -0.4621 -1.2738
    1PA     H7R 9652   1.142   3.544   4.423 -0.9257 -0.2351 -1.0687
    1PA     H7S 9653   1.228   3.396   4.456 -0.3750 -2.0276  0.1781
    1PA     C16 9654   1.026   3.363   4.403  0.4748 -0.2047  0.0941
    1PA     H6R 9655   1.019   3.259   4.435  1.6591 -0.8398 -1.5664
    1PA     H6S 9656   0.931   3.411   4.427  1.7116  1.8758  1.1312
    1PA     C15 9657   1.043   3.358   4.248  0.1066 -0.0758 -0.1912
    1PA     H5R 9658   1.048   3.460   4.208 -1.6557  0.5253  0.9803
    1PA     H5S 9659   1.147   3.328   4.236  0.1868 -0.6568  1.7536
    1PA     C14 9660   0.942   3.276   4.171 -0.7862 -0.4787 -0.0306
    1PA     H4R 9661   0.942   3.168   4.191 -2.2017 -0.5865 -0.4867
    1PA     H4S 9662   0.840   3.311   4.184 -0.0789  0.8097  2.7482
    1PA     C13 9663   0.979   3.294   4.021  0.1169  0.4136 -0.2879
    1PA     H3R 9664   0.958   3.397   3.991 -0.8964 -0.1011 -1.4233
    1PA     H3S 9665   1.087   3.281   4.011 -0.2706 -2.3023 -1.9080
    1PA     C12 9666   0.901   3.196   3.922 -0.1255  0.1979 -0.7283
    1PA     H2R 9667   0.936   3.223   3.822 -1.0318 -1.3046 -1.4885
    1PA     H2S 9668   0.936   3.098   3.957  1.6309  1.6822  2.0180
    1PC     C11 9669   0.751   3.208   3.913  0.1578  0.4751  0.1754
    1PC     O12 9670   0.683   3.277   3.986 -0.0662 -0.2020 -0.3371
    1PC     O11 9671   0.699   3.139   3.806 -0.0672 -0.5992  0.1222
    1PC      C1 9672   0.561   3.164   3.761  0.1057  0.3340 -0.1069
    1PC      HR 9673   0.521   3.073   3.716 -1.2107  1.5217 -1.4694
    1PC      HS 9674   0.498   3.191   3.845  0.8538 -1.1933  0.9984
    1PC      C2 9675   0.571   3.264   3.643  0.0804 -0.0696  0.2949
    1PC      HX 9676   0.466   3.271   3.613  0.3238 -0.7908 -0.8045
    1PC      C3 9677   0.659   3.208   3.519  0.1130 -0.7649 -0.4858
    1PC      HA 9678   0.764   3.202   3.549 -0.0082 -2.3645 -0.3305
    1PC      HB 9679   0.630   3.109   3.484  1.1968 -1.6296  0.9673
    1PC     O31 9680   0.642   3.300   3.406  0.1575 -0.4949 -0.1818
    1PC     P31 9681   0.515   3.307   3.321 -0.1447  0.0246 -0.0813
    1PC     O32 9682   0.425   3.422   3.389 -0.2067  0.4488  0.4026
    1PC     C31 9683   0.444   3.567   3.368 -0.4906 -0.2992 -0.1132
    1PC     H1A 9684   0.407   3.624   3.453  0.8882  0.4271  0.0313
    1PC     H1B 9685   0.549   3.596   3.366 -0.5324  0.0308  1.5069
    1PC     C32 9686   0.376   3.607   3.231 -0.1110  1.1715 -0.2137
    1PC     H2A 9687   0.401   3.525   3.163  0.5836  1.6624 -0.5544
    1PC     H2B 9688   0.267   3.607   3.244 -0.0357 -1.4446  0.9849
    1PC     N31 9689   0.421   3.734   3.163  0.0377 -0.2089  0.0950
    1PC     C33 9690   0.413   3.852   3.260  0.2322  1.0395 -0.7962
    1PC     H3A 9691   0.497   3.841   3.327 -1.1700 -4.5483  0.5417
    1PC     H3B 9692   0.437   3.943   3.204  2.1089  2.0865  1.5446
    1PC     H3C 9693   0.319   3.861   3.314  1.7301  0.7992  1.9977
    1PC     C34 9694   0.561   3.711   3.116  0.7793 -0.4430  0.1800
    1PC     H4A 9695   0.591   3.798   3.056 -1.6126  0.5066  0.2612
    1PC     H4B 9696   0.629   3.694   3.200 -0.5713 -0.7337  1.2300
    1PC     H4C 9697   0.549   3.625   3.050  0.2991  0.2198 -0.6273
    1PC     C35 9698   0.337   3.777   3.052 -0.2667  0.4936  0.0168
    1PC     H5A 9699   0.347   3.697   2.979  0.2577 -0.1248  0.7575
    1PC     H5B 9700   0.372   3.868   3.003  1.4981 -1.1423 -1.9261
    1PC     H5C 9701   0.235   3.795   3.087 -1.0334 -2.8047 -0.2427
    1PC     O33 9702   0.549   3.351   3.186 -0.7581  1.2763 -0.2642
    1PC     O34 9703   0.434   3.190   3.344  0.4383  0.2743 -0.3520
    1PC     O21 9704   0.624   3.389   3.690  0.4343  0.0613  0.3677
    1PC     C21 9705   0.568   3.467   3.780  0.8245  0.2664 -0.3988
    1PC     O22 9706   0.453   3.455   3.815  0.2796 -0.0080  0.0164
    1OL     C12 9707   0.645   3.584   3.832 -0.4197 -0.3320  0.2163
    1OL     H2R 9708   0.631   3.672   3.769 -1.2509 -0.4440  0.2317
    1OL     H2S 9709   0.748   3.549   3.837 -0.5056 -0.3828  2.3601
    1OL     C13 9710   0.597   3.621   3.973  0.0018  0.2422 -0.7252
    1OL     H3R 9711   0.576   3.530   4.031  2.0335  0.3847  0.3192
    1OL     H3S 9712   0.506   3.681   3.965 -0.1812  0.0311 -0.2890
    1OL     C14 9713   0.702   3.722   4.036  0.6962 -0.4036  0.3136
    1OL     H4R 9714   0.652   3.763   4.124 -0.4891 -1.0983 -0.0138
    1OL     H4S 9715   0.709   3.812   3.974 -1.0825 -0.9834 -0.8264
    1OL     C15 9716   0.843   3.669   4.074  0.6442 -0.1587 -0.5573
    1OL     H5R 9717   0.889   3.647   3.977 -0.0548 -1.2349 -0.6654
    1OL     H5S 9718   0.825   3.573   4.124 -0.7531 -0.5649 -1.7636
    1OL     C16 9719   0.924   3.761   4.168  0.0482  0.4025  0.9714
    1OL     H6R 9720   0.928   3.859   4.120  0.8941 -0.6107 -1.1826
    1OL     H6S 9721   1.030   3.737   4.180  0.2435  0.1301 -0.9561
    1OL     C17 9722   0.874   3.789   4.299 -0.1518 -0.3282 -0.3235
    1OL     H7R 9723   0.870   3.696   4.355 -1.8358 -0.3178 -0.3692
    1OL     H7S 9724   0.772   3.824   4.282 -0.0491 -0.4860 -1.3176
    1OL     C18 9725   0.951   3.900   4.381  0.5787  0.4037  0.2129
    1OL     H8R 9726   0.895   3.915   4.474 -0.7922  0.9068 -0.6604
    1OL     H8S 9727   0.945   3.998   4.333 -1.5041  0.7451  1.0826
    1OL     C19 9728   1.097   3.856   4.408 -0.7129  0.0695 -0.1200
    1OL     H9R 9729   1.151   3.851   4.314 -1.3139  1.2350 -0.5414
    1OL    C110 9730   1.158   3.834   4.523 -0.3898  0.1300 -0.7359
    1OL    H10R 9731   1.263   3.804   4.520 -0.7381 -1.3203  0.7004
    1OL    C111 9732   1.098   3.839   4.663  0.1599  0.5001 -0.2142
    1OL    H11R 9733   1.120   3.749   4.721 -2.4795 -0.2484 -0.2222
    1OL    H11S 9734   0.989   3.836   4.661  0.0841 -2.4035  1.8756
    1OL    C112 9735   1.165   3.953   4.738  0.2354 -0.1944 -0.1632
    1OL    H12R 9736   1.162   4.046   4.680  0.7390 -0.6593 -0.9545
    1OL    H12S 9737   1.271   3.928   4.744 -0.2726 -2.3008  0.9545
    1OL    C113 9738   1.103   3.964   4.880  0.1544 -0.0274  0.6700
    1OL    H13R 9739   1.138   3.873   4.928 -0.3512 -0.1143  0.8771
    1OL    H13S 9740   0.994   3.970   4.879  0.1680  0.2522  0.5839
    1OL    C114 9741   1.151   4.086   4.957  0.0044 -0.2368  0.2895
    1OL    H14R 9742   1.260   4.077   4.964  0.0123 -0.7863 -0.4982
    1OL    H14S 9743   1.105   4.086   5.056 -0.5009 -0.3319  0.0549
    1OL    C115 9744   1.105   4.218   4.892  0.1042  0.0006  0.5651
    1OL    H15R 9745   0.997   4.210   4.882  0.1478  0.0046  0.0607
    1OL    H15S 9746   1.157   4.223   4.796 -0.1303  0.8718  0.4695
    1OL    C116 9747   1.130   4.340   4.978 -0.7854 -0.9412 -0.1630
    1OL    H16R 9748   1.084   4.330   5.076  0.7319  0.4096  0.7337
    1OL    H16S 9749   1.077   4.425   4.935  1.8376 -0.4460 -2.8297
    1OL    C117 9750   1.278   4.374   4.984 -0.3036 -0.2034 -0.3411
    1OL    H17R 9751   1.316   4.411   4.889 -3.6098  3.1922 -0.5435
    1OL    H17S 9752   1.338   4.286   5.013  0.7366  0.2912 -0.9250
    1OL    C118 9753   1.310   4.487   5.089  0.5906  0.2164  0.2530
    1OL    H18R 9754   1.415   4.503   5.112  0.7517  1.8123 -1.3227
    1OL    H18S 9755   1.260   4.455   5.181  0.6956 -0.2283  0.1561
    1OL    H18T 9756   1.263   4.579   5.052 -1.0800 -1.7733 -3.0558
    1PA    C116 9757   0.790   1.254   5.178 -0.1861 -0.2117 -0.1131
    1PA    H16R 9758   0.759   1.358   5.168  1.2552  0.3846  1.2848
    1PA    H16S 9759   0.868   1.242   5.103 -2.0013  1.5937 -2.4693
    1PA    H16T 9760   0.825   1.238   5.280  1.8847  4.1017  0.0596
    1PA    C115 9761   0.685   1.148   5.136 -0.5550  0.4753  0.8112
    1PA    H15R 9762   0.734   1.051   5.146  1.9467  1.5583  0.0151
    1PA    H15S 9763   0.604   1.143   5.210 -1.1973 -0.0610  0.0807
    1PA    C114 9764   0.640   1.158   4.995  0.2640 -0.4100  0.7690
    1PA    H14R 9765   0.584   1.249   4.972 -1.4545 -1.7984 -0.8201
    1PA    H14S 9766   0.718   1.178   4.922 -1.2783 -0.4708 -0.9470
    1PA    C113 9767   0.560   1.040   4.941 -0.1953  0.0839  0.4498
    1PA    H13R 9768   0.633   0.966   4.909  0.7881  2.2892 -2.8920
    1PA    H13S 9769   0.500   0.986   5.016  1.1328 -0.9656  0.7885
    1PA    C112 9770   0.461   1.075   4.826 -0.7025 -0.2835  0.1531
    1PA    H12R 9771   0.395   0.991   4.804 -1.6688  0.1610  1.2430
    1PA    H12S 9772   0.390   1.157   4.845 -1.6282 -1.1796  0.6720
    1PA    C111 9773   0.537   1.121   4.700 -0.1600 -0.0939 -0.6465
    1PA    H11R 9774   0.589   1.215   4.720  2.7536 -1.9044  1.0082
    1PA    H11S 9775   0.617   1.051   4.676  1.0994  1.2826 -0.6406
    1PA    C110 9776   0.440   1.133   4.573  0.2303 -0.3644  0.2323
    1PA    H10R 9777   0.420   1.033   4.534 -0.4606 -0.1315 -0.0172
    1PA    H10S 9778   0.339   1.170   4.587 -0.6372 -1.7211 -1.8688
    1PA     C19 9779   0.495   1.213   4.449 -0.3330 -0.7233 -0.1274
    1PA     H9R 9780   0.508   1.317   4.480 -3.1241  0.0049 -1.0344
    1PA     H9S 9781   0.595   1.178   4.422 -0.4177 -0.2778 -1.0756
    1PA     C18 9782   0.412   1.188   4.320  0.5161 -0.7349  0.0543
    1PA     H8R 9783   0.436   1.094   4.270  1.0532  0.8403 -2.8452
    1PA     H8S 9784   0.305   1.191   4.342  0.0207 -0.5438 -2.1250
    1PA     C17 9785   0.437   1.306   4.224 -0.4848  0.6942 -0.3762
    1PA     H7R 9786   0.410   1.407   4.256  1.0115  1.0307 -0.1024
    1PA     H7S 9787   0.542   1.326   4.201 -1.1139  2.5462 -1.9909
    1PA     C16 9788   0.364   1.282   4.099 -0.2224 -0.2085  0.1357
    1PA     H6R 9789   0.391   1.185   4.057 -1.6374 -0.5204 -0.1144
    1PA     H6S 9790   0.259   1.270   4.126  0.0567  0.2150  1.4548
    1PA     C15 9791   0.391   1.390   3.982  0.1333  0.6123 -1.5360
    1PA     H5R 9792   0.311   1.393   3.908 -1.9179 -3.6864  0.1826
    1PA     H5S 9793   0.409   1.480   4.041  0.3019  0.3504 -1.1864
    1PA     C14 9794   0.515   1.359   3.901 -0.2365 -0.1147 -0.0912
    1PA     H4R 9795   0.591   1.347   3.979 -0.6614 -1.3551  0.1691
    1PA     H4S 9796   0.493   1.264   3.853  1.5911 -0.1715 -0.9171
    1PA     C13 9797   0.558   1.470   3.802  0.1931  0.3775  0.7836
    1PA     H3R 9798   0.483   1.511   3.734  0.8219 -0.2564 -0.3279
    1PA     H3S 9799   0.594   1.554   3.862  1.9764  0.5845 -0.4811
    1PA     C12 9800   0.671   1.418   3.712 -0.1258  0.9836 -0.9639
    1PA     H2R 9801   0.756   1.381   3.771 -0.0800 -0.4810 -1.8988
    1PA     H2S 9802   0.637   1.335   3.649  0.0049 -0.7623  1.1377
    1PC     C11 9803   0.730   1.517   3.616 -0.4137 -0.1437 -0.3626
    1PC     O12 9804   0.686   1.626   3.588  0.0815 -0.1544  0.7814
    1PC     O11 9805   0.856   1.479   3.584  0.0178 -1.0667 -0.0915
    1PC      C1 9806   0.919   1.558   3.479 -0.1837  0.6350  0.3655
    1PC      HR 9807   0.988   1.485   3.435  1.0776  1.9212  0.1329
    1PC      HS 9808   0.854   1.589   3.397  2.0755  0.9957 -1.3915
    1PC      C2 9809   1.005   1.676   3.535 -0.2829  0.3926 -0.2840
    1PC      HX 9810   0.934   1.756   3.558  0.4186  1.1128 -0.5905
    1PC      C3 9811   1.099   1.727   3.432 -0.1570 -0.8526  1.1816
    1PC      HA 9812   1.163   1.811   3.460 -0.6590 -0.3010  0.6749
    1PC      HB 9813   1.158   1.637   3.411 -0.2946 -0.3882 -1.4947
    1PC     O31 9814   1.031   1.764   3.308  0.3483 -0.0070 -0.5485
    1PC     P31 9815   1.102   1.793   3.172 -0.3431 -0.2136 -0.2410
    1PC     O32 9816   1.173   1.659   3.132 -0.4432 -0.1760 -1.0027
    1PC     C31 9817   1.088   1.544   3.086  0.5128  0.1680  0.1431
    1PC     H1A 9818   1.034   1.511   3.175 -2.0224 -1.0778 -1.7243
    1PC     H1B 9819   1.019   1.584   3.011  0.4100  1.5012  0.9263
    1PC     C32 9820   1.178   1.443   3.016 -0.0636 -0.2791 -0.2018
    1PC     H2A 9821   1.243   1.496   2.945 -0.3133  1.9250  1.1164
    1PC     H2B 9822   1.237   1.392   3.092 -1.9434 -1.6942  0.3653
    1PC     N31 9823   1.118   1.330   2.941  0.0730 -0.0707  0.2033
    1PC     C33 9824   1.032   1.241   3.023  0.0544  0.2528  0.4364
    1PC     H3A 9825   1.002   1.159   2.957  1.0449  0.9716 -0.9481
    1PC     H3B 9826   1.092   1.204   3.107  1.5857  0.5464 -0.4886
    1PC     H3C 9827   0.946   1.294   3.064 -0.5194 -0.4957  0.2189
    1PC     C34 9828   1.033   1.400   2.838 -0.5104  0.6026 -0.1506
    1PC     H4A 9829   0.939   1.432   2.884  0.1052  0.9685  0.8953
    1PC     H4B 9830   1.086   1.486   2.797  2.0104 -1.1876 -0.8685
    1PC     H4C 9831   1.010   1.326   2.761 -3.9754  1.2086  0.1340
    1PC     C35 9832   1.221   1.248   2.868 -0.8175  0.7951 -0.3271
    1PC     H5A 9833   1.279   1.195   2.943  0.2956  2.8734  0.3840
    1PC     H5B 9834   1.292   1.306   2.808  0.8994 -1.1629 -0.3198
    1PC     H5C 9835   1.165   1.177   2.807  1.2656 -1.1170 -0.1610
    1PC     O33 9836   1.005   1.822   3.063  0.0668  0.7577 -0.3578
    1PC     O34 9837   1.212   1.891   3.195  0.4986  0.2384 -0.1684
    1PC     O21 9838   1.084   1.632   3.649 -0.0699 -0.4369 -0.4481
    1PC     C21 9839   1.082   1.714   3.758 -0.3029 -0.0356  0.5658
    1PC     O22 9840   1.052   1.828   3.749  0.1354 -0.1384 -0.4364
    1OL     C12 9841   1.124   1.649   3.887 -0.5413 -0.1770 -0.3469
    1OL     H2R 9842   1.231   1.668   3.900 -0.5129 -0.4867 -0.1045
    1OL     H2S 9843   1.120   1.541   3.871 -1.9325 -0.1021 -0.6568
    1OL     C13 9844   1.042   1.685   4.018  0.3619  0.1634  0.2126
    1OL     H3R 9845   1.060   1.788   4.050 -0.0383 -0.0312  1.0955
    1OL     H3S 9846   1.062   1.617   4.101 -2.2242 -1.2814 -0.2480
    1OL     C14 9847   0.887   1.674   3.990  0.3503  0.7324 -0.5007
    1OL     H4R 9848   0.858   1.569   3.982 -2.8116  1.5119 -0.7197
    1OL     H4S 9849   0.851   1.729   3.903  1.1058  0.6877 -0.8428
    1OL     C15 9850   0.796   1.713   4.114 -0.6694  0.1634  0.8010
    1OL     H5R 9851   0.826   1.643   4.191  0.8900 -0.3192 -0.1821
    1OL     H5S 9852   0.690   1.706   4.089 -1.4324  2.3808  2.9418
    1OL     C16 9853   0.826   1.858   4.154 -0.6747 -0.0956  0.0638
    1OL     H6R 9854   0.828   1.930   4.072  1.4342  1.4134  1.3259
    1OL     H6S 9855   0.925   1.858   4.201  0.2069  0.9390 -1.6818
    1OL     C17 9856   0.735   1.920   4.259 -0.1961  0.2358  0.7514
    1OL     H7R 9857   0.637   1.932   4.213 -0.1257 -2.1359 -0.1567
    1OL     H7S 9858   0.782   2.014   4.289 -1.5386  0.7548  1.3063
    1OL     C18 9859   0.731   1.823   4.383  0.1879  0.1070  0.1597
    1OL     H8R 9860   0.833   1.811   4.420  0.5123 -1.5682 -1.1982
    1OL     H8S 9861   0.686   1.732   4.343  3.3971 -1.0098 -1.2706
    1OL     C19 9862   0.649   1.881   4.498 -0.1976 -0.3800 -0.0332
    1OL     H9R 9863   0.653   1.989   4.510 -0.6679 -0.4983  1.3669
    1OL    C110 9864   0.572   1.817   4.587  0.1438 -0.0080 -0.1172
    1OL    H10R 9865   0.521   1.873   4.665 -1.0551 -2.8243  1.2700
    1OL    C111 9866   0.547   1.673   4.585  0.3940  0.8378  0.2305
    1OL    H11R 9867   0.645   1.624   4.576 -0.2482 -0.1943 -1.6235
    1OL    H11S 9868   0.506   1.642   4.489  2.3757  0.0587 -0.4102
    1OL    C112 9869   0.466   1.629   4.711 -0.0894  0.2647  0.1258
    1OL    H12R 9870   0.373   1.685   4.712  0.1053  0.5925  0.0269
    1OL    H12S 9871   0.515   1.655   4.805 -0.3903  0.9419  0.0973
    1OL    C113 9872   0.434   1.487   4.696 -0.1346 -0.0398  0.9340
    1OL    H13R 9873   0.524   1.428   4.713 -1.2734 -2.1543 -0.0459
    1OL    H13S 9874   0.404   1.470   4.592 -0.0493  0.0337  0.8970
    1OL    C114 9875   0.320   1.435   4.787 -0.2506  1.1601 -0.3106
    1OL    H14R 9876   0.356   1.438   4.890  0.1652 -3.0745 -0.1528
    1OL    H14S 9877   0.317   1.328   4.764  1.0849  1.0350  0.0247
    1OL    C115 9878   0.186   1.509   4.770  0.2067 -0.5617 -0.4804
    1OL    H15R 9879   0.182   1.548   4.668  1.8441 -1.8106 -1.0648
    1OL    H15S 9880   0.189   1.592   4.841 -0.1582 -0.8133 -0.1666
    1OL    C116 9881   0.055   1.423   4.794 -0.7338 -0.1610 -0.3087
    1OL    H16R 9882   0.070   1.337   4.729 -0.3845 -1.0256  0.8736
    1OL    H16S 9883  -0.029   1.485   4.763 -0.5724 -1.0168 -2.6378
    1OL    C117 9884   0.034   1.387   4.942 -0.1349 -0.6327  0.0739
    1OL    H17R 9885   0.042   1.475   5.007 -0.2635  0.4093 -1.2644
    1OL    H17S 9886   0.110   1.315   4.972 -0.6373 -0.8432  0.8662
    1OL    C118 9887  -0.098   1.309   4.954 -0.0702  0.1270 -0.8585
    1OL    H18R 9888  -0.116   1.260   5.050  2.2049 -0.4699 -0.6819
    1OL    H18S 9889  -0.101   1.227   4.883  3.6529 -1.3189  0.4140
    1OL    H18T 9890  -0.186   1.370   4.932 -0.4000 -0.0546 -0.0672
    1PA    C116 9891   4.786   1.696   5.046  0.3316 -0.1346  0.3312
    1PA    H16R 9892   4.798   1.786   4.986  0.9200 -0.4956 -0.1121
    1PA    H16S 9893   4.699   1.717   5.108 -0.2746  0.5691 -0.7463
    1PA    H16T 9894   4.764   1.609   4.983 -1.2030  0.1495  0.4398
    1PA    C115 9895   4.916   1.680   5.123  0.2921  0.3502  0.0228
    1PA    H15R 9896   4.927   1.758   5.198 -1.9408  1.4974 -0.7593
    1PA    H15S 9897   4.921   1.587   5.180 -0.8912  0.1653 -0.1495
    1PA    C114 9898   5.039   1.682   5.029 -0.0240 -0.2883 -0.1410
    1PA    H14R 9899   5.123   1.637   5.082  0.5716 -1.3206 -1.8636
    1PA    H14S 9900   5.031   1.611   4.946  2.1950  0.3877 -1.0094
    1PA    C113 9901   5.074   1.822   4.980  0.1442 -0.5852 -0.1636
    1PA    H13R 9902   4.990   1.871   4.929  1.0337  0.0186 -1.1064
    1PA    H13S 9903   5.088   1.886   5.067 -4.3666  1.5944 -0.7375
    1PA    C112 9904   5.183   1.814   4.889  0.3813 -0.2046  0.6308
    1PA    H12R 9905   5.274   1.765   4.926  0.4364 -0.7790 -0.2315
    1PA    H12S 9906   5.153   1.753   4.803 -0.3474  0.9974  0.0197
    1PA    C111 9907   5.231   1.958   4.856 -0.1115  0.5287  0.2053
    1PA    H11R 9908   5.153   2.023   4.815 -1.5757  0.3932  2.5644
    1PA    H11S 9909   5.266   1.997   4.952  2.2075 -3.2371  1.0889
    1PA    C110 9910   5.355   1.955   4.758 -0.2735 -0.1357 -0.6768
    1PA    H10R 9911   5.424   1.878   4.794 -0.7385 -0.0513  0.4408
    1PA    H10S 9912   5.313   1.917   4.665 -2.2296 -1.5099  0.7084
    1PA     C19 9913   5.419   2.097   4.751 -0.1889  0.9128  0.2376
    1PA     H9R 9914   5.351   2.155   4.688  0.3790  0.0790 -1.1822
    1PA     H9S 9915   5.420   2.147   4.848 -3.4056  1.6732 -0.0086
    1PA     C18 9916   5.556   2.096   4.688  0.2134  0.0458 -0.6243
    1PA     H8R 9917   5.641   2.068   4.750 -1.0380  0.4499  1.3765
    1PA     H8S 9918   5.551   2.028   4.602  0.5069 -0.0550 -0.5605
    1PA     C17 9919   5.594   2.233   4.623  0.4493 -0.0171 -0.5122
    1PA     H7R 9920   5.505   2.272   4.573 -0.8104  0.6979  2.1156
    1PA     H7S 9921   5.608   2.309   4.700 -3.3787  1.5247 -1.1384
    1PA     C16 9922   5.710   2.242   4.523 -0.1258  0.4697 -0.3228
    1PA     H6R 9923   5.777   2.321   4.556 -1.7357  0.2795  3.9676
    1PA     H6S 9924   5.760   2.145   4.518 -1.0195  0.0392 -1.3305
    1PA     C15 9925   5.664   2.275   4.380 -0.1135 -0.2686 -0.0749
    1PA     H5R 9926   5.589   2.206   4.341 -1.3531 -0.1474  1.9313
    1PA     H5S 9927   5.623   2.377   4.385 -0.9065 -0.6202  1.0792
    1PA     C14 9928   5.789   2.274   4.291  0.1578 -0.1434 -0.4030
    1PA     H4R 9929   5.863   2.337   4.342 -0.8640  2.1705 -1.6048
    1PA     H4S 9930   5.842   2.179   4.284  1.6617  0.5001  1.3641
    1PA     C13 9931   5.769   2.330   4.147  0.0241 -0.0176  0.8845
    1PA     H3R 9932   5.681   2.286   4.100 -0.5532  1.3254  0.6691
    1PA     H3S 9933   5.742   2.435   4.147 -2.3396 -0.5174 -1.8573
    1PA     C12 9934   5.896   2.312   4.053 -0.2068  0.1640  0.1286
    1PA     H2R 9935   5.975   2.368   4.103 -0.6943 -0.1712  1.2946
    1PA     H2S 9936   5.930   2.208   4.046  2.6948  0.9036  1.6718
    1PC     C11 9937   5.880   2.373   3.914 -0.2970 -0.1396  0.4686
    1PC     O12 9938   5.771   2.386   3.866  0.4615  0.3774 -0.0114
    1PC     O11 9939   5.993   2.384   3.846  0.2587  1.3409  0.4974
    1PC      C1 9940   5.988   2.406   3.702 -0.0317  0.8509 -0.3209
    1PC      HR 9941   6.084   2.400   3.650 -1.1802  2.1773 -2.7258
    1PC      HS 9942   5.935   2.330   3.644 -1.0397  0.8565  0.5552
    1PC      C2 9943   5.910   2.537   3.670 -0.2316  0.2633  0.3729
    1PC      HX 9944   5.803   2.518   3.677 -0.4854  1.4510 -0.0028
    1PC      C3 9945   5.962   2.594   3.533  0.5071 -0.2326 -0.0782
    1PC      HA 9946   6.067   2.620   3.551  0.0315  0.2890  2.4212
    1PC      HB 9947   5.967   2.510   3.464 -0.3946 -0.9408  0.6983
    1PC     O31 9948   5.876   2.707   3.497 -0.4031  0.1487  0.6372
    1PC     P31 9949   5.782   2.709   3.373  0.5064  0.0045 -0.1186
    1PC     O32 9950   5.870   2.786   3.265  0.3680 -0.1529  0.3079
    1PC     C31 9951   5.909   2.923   3.275  0.3456  0.4618  0.5434
    1PC     H1A 9952   5.822   2.982   3.306 -1.3371 -1.4625 -0.2679
    1PC     H1B 9953   5.989   2.926   3.349  1.1771 -0.2038 -0.2949
    1PC     C32 9954   5.957   2.976   3.143 -0.5606 -0.2974 -0.2218
    1PC     H2A 9955   5.985   3.079   3.164 -1.4010 -0.0058 -0.4574
    1PC     H2B 9956   6.043   2.914   3.120 -0.6194  0.3887 -2.6588
    1PC     N31 9957   5.860   2.974   3.021 -0.0166  0.3550 -0.1603
    1PC     C33 9958   5.738   3.053   3.052  0.2009 -0.3292 -0.5104
    1PC     H3A 9959   5.670   3.057   2.967  0.4138 -0.6382 -0.6952
    1PC     H3B 9960   5.692   2.987   3.126  0.3546  1.0602  0.8950
    1PC     H3C 9961   5.751   3.150   3.100 -0.6394 -1.0244  1.2189
    1PC     C34 9962   5.923   3.034   2.905  0.1978  0.3016  0.3065
    1PC     H4A 9963   5.930   3.138   2.938 -0.3670  0.6685 -0.6929
    1PC     H4B 9964   6.018   2.989   2.876 -0.5194 -1.6700  0.8677
    1PC     H4C 9965   5.858   3.021   2.818  0.8834  0.3951 -0.2296
    1PC     C35 9966   5.830   2.832   2.978  0.2423  0.6032  0.5098
    1PC     H5A 9967   5.771   2.783   3.056 -0.2049  2.0022  1.0740
    1PC     H5B 9968   5.919   2.775   2.952 -1.1015 -1.5377  0.3725
    1PC     H5C 9969   5.762   2.841   2.893  1.2449  0.0973 -0.3710
    1PC     O33 9970   5.762   2.563   3.342  0.4643 -0.5967  0.0125
    1PC     O34 9971   5.659   2.789   3.402  0.0547  0.1685  0.0343
    1PC     O21 9972   5.939   2.635   3.769 -0.2817  0.6370  0.2068
    1PC     C21 9973   5.838   2.709   3.820  0.3524  0.1738 -0.4779
    1PC     O22 9974   5.720   2.702   3.786 -0.7667 -0.9910  0.3411
    1OL     C12 9975   5.896   2.803   3.926 -0.1682 -0.1063 -0.3577
    1OL     H2R 9976   5.932   2.895   3.880 -1.0306  0.6737  0.5012
    1OL     H2S 9977   5.984   2.756   3.971 -1.5981 -0.5550  2.1550
    1OL     C13 9978   5.795   2.824   4.037 -0.2547  0.0114 -0.1797
    1OL     H3R 9979   5.720   2.889   3.990 -0.0328  1.5659  1.4968
    1OL     H3S 9980   5.839   2.893   4.109  0.1484 -0.3527 -0.0749
    1OL     C14 9981   5.732   2.698   4.100 -0.0052  0.3340 -0.3658
    1OL     H4R 9982   5.809   2.628   4.136 -0.4185 -0.0018 -0.1227
    1OL     H4S 9983   5.677   2.643   4.024 -1.0293  0.1541  0.4811
    1OL     C15 9984   5.626   2.727   4.206 -0.4038 -0.4956  0.0464
    1OL     H5R 9985   5.675   2.777   4.291  0.7927 -2.9023  0.8781
    1OL     H5S 9986   5.602   2.635   4.259  0.5131  0.6314  2.6055
    1OL     C16 9987   5.500   2.799   4.163 -0.4040 -0.1090  0.0711
    1OL     H6R 9988   5.451   2.733   4.090  1.5175  0.8395 -2.1833
    1OL     H6S 9989   5.534   2.892   4.117 -0.8369  0.2947  0.5501
    1OL     C17 9990   5.401   2.839   4.265 -0.0682 -0.7412 -0.5427
    1OL     H7R 9991   5.428   2.938   4.302  0.0880 -1.8876  2.7214
    1OL     H7S 9992   5.405   2.774   4.353  0.9219 -0.3905 -0.3085
    1OL     C18 9993   5.262   2.858   4.199  0.5128 -0.0934 -0.1340
    1OL     H8R 9994   5.220   2.762   4.166  2.6099 -0.7924 -0.9322
    1OL     H8S 9995   5.276   2.913   4.106  0.6587  1.2368  0.6567
    1OL     C19 9996   5.162   2.933   4.286 -0.7659 -0.0975  0.8223
    1OL     H9R 9997   5.153   3.038   4.261  0.0190 -0.3153 -0.4743
    1OL    C110 9998   5.085   2.875   4.371  0.7791  0.4942 -0.0791
    1OL    H10R 9999   5.011   2.933   4.426  0.5582 -0.7523  0.9931
    1OL    C11110000   5.093   2.734   4.424 -0.0941  0.7685  0.7924
    1OL    H11R10001   5.179   2.689   4.375 -0.8352 -0.1261  0.2735
    1OL    H11S10002   4.997   2.692   4.391  0.0304  2.6258 -2.3646
    1OL    C11210003   5.089   2.717   4.580 -0.2017 -0.0696 -0.3235
    1OL    H12R10004   5.000   2.766   4.621  0.0839 -0.3974  0.7194
    1OL    H12S10005   5.174   2.772   4.619 -0.9834  0.9920 -0.0689
    1OL    C11310006   5.082   2.575   4.635 -0.4552 -0.9501 -0.2288
    1OL    H13R10007   5.171   2.514   4.618 -0.9084 -2.1985  1.5550
    1OL    H13S10008   5.005   2.517   4.583  0.7401 -4.1470  1.2522
    1OL    C11410009   5.068   2.558   4.790  0.1940  0.4194 -0.1571
    1OL    H14R10010   5.156   2.598   4.839  0.1440 -0.8946  1.0881
    1OL    H14S10011   5.070   2.450   4.811 -2.0264  0.5992  1.3553
    1OL    C11510012   4.943   2.621   4.844  0.8563  0.3275 -0.1181
    1OL    H15R10013   4.860   2.592   4.780  0.3264  4.6974 -1.7708
    1OL    H15S10014   4.941   2.729   4.830 -2.0676  0.3211 -0.3504
    1OL    C11610015   4.904   2.572   4.982 -0.1784 -0.0396  0.1149
    1OL    H16R10016   4.820   2.634   5.012  1.5991  2.3075  0.5383
    1OL    H16S10017   4.980   2.605   5.053 -0.1391  2.1651 -0.8568
    1OL    C11710018   4.869   2.426   4.992 -0.1978  0.1705  0.2113
    1OL    H17R10019   4.962   2.372   4.975 -0.8553 -0.9893  0.1703
    1OL    H17S10020   4.804   2.401   4.907  0.8400 -1.2488 -0.2043
    1OL    C11810021   4.807   2.379   5.122 -0.0969 -0.0839  0.1217
    1OL    H18R10022   4.880   2.383   5.203 -0.5940 -2.0183  0.7144
    1OL    H18S10023   4.773   2.276   5.118  1.2058 -0.6446  1.9604
    1OL    H18T10024   4.722   2.441   5.151 -0.0382  0.8017 -1.5374
    1PA    C11610025   1.948   4.021   5.353  0.2489  0.1444  0.1773
    1PA    H16R10026   1.969   3.923   5.398 -1.2582 -0.0709  0.4521
    1PA    H16S10027   1.885   4.006   5.265  0.1732  1.0414  0.0732
    1PA    H16T10028   1.902   4.081   5.432  0.1817  0.7538 -0.3166
    1PA    C11510029   2.078   4.097   5.326 -0.2815  0.2587  0.6082
    1PA    H15R10030   2.147   4.106   5.410 -2.5141 -1.4729  2.7516
    1PA    H15S10031   2.137   4.039   5.255  0.2798  1.2310  0.2587
    1PA    C11410032   2.061   4.233   5.260  0.1359  0.4527  0.0924
    1PA    H14R10033   2.004   4.292   5.331  1.1479  0.1262  1.2002
    1PA    H14S10034   2.154   4.283   5.231  0.9998 -0.9719  0.3160
    1PA    C11310035   1.989   4.230   5.119 -0.3161  0.2196 -0.3117
    1PA    H13R10036   1.885   4.203   5.137 -0.6551 -0.4653 -2.9232
    1PA    H13S10037   1.990   4.329   5.074  0.0219  0.3120 -0.1065
    1PA    C11210038   2.046   4.134   5.010 -1.0140  0.2878 -0.2706
    1PA    H12R10039   2.146   4.175   4.993  0.5300 -2.4927  1.4045
    1PA    H12S10040   2.065   4.034   5.048  1.2638  0.0451 -1.8066
    1PA    C11110041   1.965   4.133   4.885  0.1614  0.2974  0.2511
    1PA    H11R10042   1.866   4.090   4.904  0.4022  0.1467  1.1833
    1PA    H11S10043   1.947   4.239   4.868 -0.9744  0.1988  0.7900
    1PA    C11010044   2.029   4.073   4.764 -0.7532  1.0206 -0.2515
    1PA    H10R10045   2.132   4.102   4.743  0.1811 -1.6850  0.2724
    1PA    H10S10046   2.032   3.965   4.776  2.3504  1.2020  1.5138
    1PA     C1910047   1.961   4.093   4.625 -0.1011  0.5533  0.3878
    1PA     H9R10048   1.861   4.050   4.623 -0.0906  0.5133 -1.5107
    1PA     H9S10049   1.945   4.198   4.599 -1.1021 -0.2813 -2.7917
    1PA     C1810050   2.034   4.024   4.502 -0.3837  0.1621  0.2806
    1PA     H8R10051   2.121   4.084   4.476 -1.4293  1.8491  0.5221
    1PA     H8S10052   2.055   3.918   4.520 -3.0392 -0.7000 -1.1865
    1PA     C1710053   1.943   4.020   4.374  0.0671  0.3147 -0.4295
    1PA     H7R10054   2.015   3.994   4.296  1.0822 -1.6436  1.0740
    1PA     H7S10055   1.866   3.944   4.386  0.0004  0.1635 -1.6412
    1PA     C1610056   1.871   4.155   4.343  0.4421  0.1479 -0.2012
    1PA     H6R10057   1.803   4.181   4.425  0.5791  3.1240 -0.9187
    1PA     H6S10058   1.939   4.239   4.335 -1.4345  1.7589 -0.0094
    1PA     C1510059   1.791   4.140   4.210  0.2211 -0.1813 -0.4001
    1PA     H5R10060   1.730   4.051   4.225 -0.4315  0.2475 -0.4949
    1PA     H5S10061   1.729   4.228   4.191  3.2935  1.4494 -4.1544
    1PA     C1410062   1.869   4.118   4.081  0.0552  0.5983 -0.4486
    1PA     H4R10063   1.920   4.206   4.041  0.8718 -0.5213 -2.0079
    1PA     H4S10064   1.941   4.040   4.105  0.8317  1.4288 -0.0316
    1PA     C1310065   1.779   4.065   3.968 -0.1730 -0.2090 -0.2199
    1PA     H3R10066   1.842   4.059   3.879 -0.0020  1.9927 -0.2884
    1PA     H3S10067   1.751   3.963   3.996  1.2157 -0.4907  0.2039
    1PA     C1210068   1.670   4.154   3.918 -0.3241  0.5269  0.0672
    1PA     H2R10069   1.588   4.159   3.991  0.1819 -1.1381  0.7900
    1PA     H2S10070   1.710   4.256   3.921  1.0778 -0.0198  1.8687
    1PC     C1110071   1.629   4.121   3.773 -0.1593  0.1401 -0.2317
    1PC     O1210072   1.654   4.207   3.686  0.4341 -0.5439 -0.3900
    1PC     O1110073   1.582   3.998   3.749 -0.1703  0.4004 -0.3198
    1PC      C110074   1.559   3.964   3.613  0.0829  0.5952  0.6139
    1PC      HR10075   1.508   4.047   3.563  1.3113 -0.3139 -2.3750
    1PC      HS10076   1.645   3.951   3.547 -1.2603  2.7318 -1.7535
    1PC      C210077   1.466   3.850   3.612  0.4017 -0.3059 -0.2303
    1PC      HX10078   1.516   3.768   3.665  0.4315  0.1259  0.4125
    1PC      C310079   1.416   3.795   3.474  0.5268 -0.9172 -0.3244
    1PC      HA10080   1.505   3.784   3.411  0.7246  0.7337 -0.3808
    1PC      HB10081   1.375   3.695   3.494 -0.6292 -0.3540  0.2205
    1PC     O3110082   1.307   3.876   3.410  0.4576 -0.7122 -0.0096
    1PC     P3110083   1.339   4.012   3.336  0.2348  0.4319 -0.4446
    1PC     O3210084   1.305   4.125   3.449  0.2385 -0.3537 -0.2128
    1PC     C3110085   1.169   4.167   3.479 -0.0971  0.9373  0.0112
    1PC     H1A10086   1.173   4.266   3.526 -1.2852  0.9897  0.0257
    1PC     H1B10087   1.103   4.168   3.393  0.2400 -0.7957 -0.3104
    1PC     C3210088   1.114   4.066   3.575  0.3749  0.0448 -0.6518
    1PC     H2A10089   1.097   3.970   3.527 -1.5364 -0.1885  0.3769
    1PC     H2B10090   1.182   4.050   3.658  0.1248  1.0795 -0.2290
    1PC     N3110091   0.986   4.105   3.645 -0.1169 -0.1900 -0.2568
    1PC     C3310092   0.933   3.982   3.716  0.7800  0.9923 -0.3485
    1PC     H3A10093   0.915   3.912   3.634 -0.2067  1.8523 -0.8924
    1PC     H3B10094   0.997   3.947   3.797  0.0704  1.0443  0.2429
    1PC     H3C10095   0.837   4.012   3.756  0.7794  1.6889 -0.8541
    1PC     C3410096   1.020   4.214   3.745 -0.1221  0.2316 -0.0823
    1PC     H4A10097   1.001   4.310   3.696  0.0156 -0.1184 -0.8473
    1PC     H4B10098   0.951   4.204   3.828  0.7666 -0.3857  0.5986
    1PC     H4C10099   1.125   4.205   3.775 -0.3608 -1.7529  0.2754
    1PC     C3510100   0.879   4.152   3.558 -0.1266  0.5225  0.4260
    1PC     H5A10101   0.903   4.242   3.502 -1.9943  0.0706 -1.2579
    1PC     H5B10102   0.798   4.180   3.625  0.0350  2.1959 -0.0371
    1PC     H5C10103   0.849   4.069   3.494  1.1785  1.8888 -2.1068
    1PC     O3310104   1.484   4.032   3.314  0.0361  0.0300 -0.0366
    1PC     O3410105   1.249   4.027   3.223  0.5033  1.0038 -0.1817
    1PC     O2110106   1.350   3.884   3.696 -0.3745  0.4617  0.5381
    1PC     C2110107   1.324   3.817   3.815  0.1296 -0.2601  0.5420
    1PC     O2210108   1.379   3.712   3.843  0.0681 -0.0082 -0.2414
    1OL     C1210109   1.223   3.897   3.900 -0.3458  0.4467  0.8990
    1OL     H2R10110   1.167   3.820   3.953  0.7819 -0.7733  0.3686
    1OL     H2S10111   1.174   3.966   3.831 -0.9021 -0.9358 -0.1464
    1OL     C1310112   1.286   3.990   4.000 -0.1907  0.3085  0.5477
    1OL     H3R10113   1.364   4.042   3.945  0.5257  0.2395  1.4787
    1OL     H3S10114   1.321   3.924   4.080 -1.6048 -0.4700  0.5706
    1OL     C1410115   1.190   4.091   4.078 -0.1360  0.0882  0.3705
    1OL     H4R10116   1.147   4.036   4.162 -1.7100 -2.5446 -1.9673
    1OL     H4S10117   1.117   4.123   4.004  0.9804 -0.0015 -0.8105
    1OL     C1510118   1.244   4.224   4.131 -0.6604 -0.4018  0.4314
    1OL     H5R10119   1.171   4.267   4.200 -0.2809  0.4235  0.3233
    1OL     H5S10120   1.261   4.291   4.047 -0.1699  0.9889  1.6038
    1OL     C1610121   1.372   4.207   4.204 -1.0847  0.1247 -1.1170
    1OL     H6R10122   1.417   4.306   4.209 -1.1113  0.1016 -0.2275
    1OL     H6S10123   1.438   4.135   4.156  0.0010 -0.8667  1.6285
    1OL     C1710124   1.354   4.149   4.346  0.2623  0.2030 -0.0678
    1OL     H7R10125   1.299   4.055   4.341  1.5732 -0.5545 -0.9558
    1OL     H7S10126   1.296   4.220   4.404 -2.5535 -2.2490  0.3613
    1OL     C1810127   1.493   4.116   4.411 -0.2414  0.0201  0.3483
    1OL     H8R10128   1.554   4.207   4.405  2.5393 -1.7171  0.4865
    1OL     H8S10129   1.545   4.042   4.351 -1.0372 -0.2857  0.0169
    1OL     C1910130   1.468   4.062   4.553  0.1246 -0.7597  0.2998
    1OL     H9R10131   1.450   3.956   4.565  1.8846 -1.2497 -0.9598
    1OL    C11010132   1.483   4.135   4.664  0.2963 -0.4849  0.3391
    1OL    H10R10133   1.459   4.077   4.753 -1.5668  0.1703  0.3113
    1OL    C11110134   1.510   4.283   4.675  0.2567 -0.1169 -0.4458
    1OL    H11R10135   1.414   4.329   4.697  1.2001  1.1207  1.2469
    1OL    H11S10136   1.548   4.330   4.584  0.8907 -0.6635 -0.4680
    1OL    C11210137   1.616   4.310   4.783 -0.2516 -0.4834 -0.8188
    1OL    H12R10138   1.709   4.261   4.754 -1.1736 -3.1774  0.5511
    1OL    H12S10139   1.592   4.266   4.880  1.8800  2.2030  1.0822
    1OL    C11310140   1.641   4.463   4.800  0.1598  0.0159 -0.2717
    1OL    H13R10141   1.551   4.517   4.829 -0.4928 -1.7230  1.0978
    1OL    H13S10142   1.670   4.499   4.701  0.5163  1.7210  0.4122
    1OL    C11410143   1.762   4.478   4.895 -0.3480  0.2077  1.2503
    1OL    H14R10144   1.847   4.440   4.838 -0.9220  1.1838 -0.3193
    1OL    H14S10145   1.754   4.423   4.989 -0.3626 -2.1054 -0.0115
    1OL    C11510146   1.790   4.625   4.927 -0.3242  0.3196 -0.3187
    1OL    H15R10147   1.697   4.667   4.967 -0.4543  0.2528 -0.5470
    1OL    H15S10148   1.820   4.671   4.833  0.5526  0.4268  0.0052
    1OL    C11610149   1.915   4.640   5.024  0.5696 -0.1548 -0.3175
    1OL    H16R10150   1.999   4.588   4.978  1.4433  2.3497 -1.7322
    1OL    H16S10151   1.904   4.590   5.121  0.1857  0.5042 -0.0151
    1OL    C11710152   1.944   4.791   5.042  0.3767  0.3561  0.0066
    1OL    H17R10153   1.957   4.833   4.942 -0.1125  1.6737  0.4728
    1OL    H17S10154   2.038   4.807   5.095  0.2110 -1.6902  1.0118
    1OL    C11810155   1.834   4.874   5.114 -0.1673  0.1278 -0.6561
    1OL    H18R10156   1.836   4.859   5.222 -0.0135 -0.3302 -0.7183
    1OL    H18S10157   1.735   4.854   5.072 -1.7953  1.9402  2.0213
    1OL    H18T10158   1.858   4.979   5.100 -1.2450  0.3331 -1.0461
    1PA    C11610159   4.922   4.561   5.172  0.1486  0.7362 -0.3498
    1PA    H16R10160   4.938   4.621   5.261  0.2530 -0.0789  0.1868
    1PA    H16S10161   4.824   4.512   5.170 -0.4434  1.8998 -0.3757
    1PA    H16T10162   4.925   4.627   5.085 -0.0145 -0.9182 -1.6760
    1PA    C11510163   5.032   4.452   5.152  0.4759  0.7463  0.1810
    1PA    H15R10164   5.121   4.511   5.175 -1.3478  3.0507  1.8012
    1PA    H15S10165   5.024   4.367   5.220 -1.3546 -1.0764 -2.1588
    1PA    C11410166   5.023   4.385   5.010 -0.2608  0.2334  0.1765
    1PA    H14R10167   5.005   4.462   4.936 -3.3139 -1.4683 -1.0313
    1PA    H14S10168   5.118   4.335   4.986 -1.9163 -1.8126 -2.7487
    1PA    C11310169   4.912   4.289   4.995  0.2453  0.3439  0.5647
    1PA    H13R10170   4.922   4.194   5.049 -2.2792 -0.1568  0.2704
    1PA    H13S10171   4.826   4.343   5.034  1.4168  1.5615  1.5440
    1PA    C11210172   4.899   4.237   4.851  0.4709  0.5105  0.0439
    1PA    H12R10173   4.827   4.155   4.852  2.3706 -1.2805 -0.8237
    1PA    H12S10174   4.860   4.323   4.797 -2.3666  0.4907  1.8905
    1PA    C11110175   5.029   4.203   4.788  0.9855  0.3042 -0.9069
    1PA    H11R10176   5.086   4.295   4.769  1.5312 -0.3303 -2.4669
    1PA    H11S10177   5.082   4.145   4.863  0.7335  0.3064 -0.7254
    1PA    C11010178   5.015   4.130   4.656 -0.7449 -0.0184 -0.8967
    1PA    H10R10179   4.960   4.039   4.678 -0.8081  0.4328  1.0286
    1PA    H10S10180   4.960   4.192   4.585  1.2448  2.0166 -0.7708
    1PA     C1910181   5.152   4.088   4.598 -0.0544 -0.8068  0.9697
    1PA     H9R10182   5.206   4.182   4.582 -0.7596 -0.4757  0.4804
    1PA     H9S10183   5.205   4.025   4.670  2.0397 -1.5559 -1.0944
    1PA     C1810184   5.141   4.023   4.451 -0.5010 -0.4559 -0.5519
    1PA     H8R10185   5.072   3.940   4.441 -1.4473  0.4137 -1.4969
    1PA     H8S10186   5.113   4.100   4.379 -1.7038 -0.3987 -0.0640
    1PA     C1710187   5.273   3.962   4.414  0.7303  0.1814  0.1240
    1PA     H7R10188   5.341   4.047   4.418  0.9838  0.1993 -2.6875
    1PA     H7S10189   5.308   3.875   4.472 -0.7702 -1.3736 -1.1875
    1PA     C1610190   5.278   3.919   4.272  0.5059  0.1996 -0.5293
    1PA     H6R10191   5.270   4.007   4.208  0.5048 -0.4118 -1.4035
    1PA     H6S10192   5.375   3.880   4.241 -0.5672 -2.6654 -0.6098
    1PA     C1510193   5.165   3.816   4.242 -0.0770 -0.3301 -0.9116
    1PA     H5R10194   5.170   3.735   4.316 -0.4408  0.0496 -0.4698
    1PA     H5S10195   5.066   3.862   4.242 -1.3237 -2.4208  3.6923
    1PA     C1410196   5.194   3.762   4.104 -0.2162 -0.3972 -0.3917
    1PA     H4R10197   5.230   3.851   4.053  1.6738 -0.4542  0.7473
    1PA     H4S10198   5.259   3.675   4.093 -1.2624 -1.2338 -0.1510
    1PA     C1310199   5.065   3.723   4.036  0.3946  0.5088  0.2945
    1PA     H3R10200   4.982   3.794   4.043 -1.7868 -2.0020  2.1744
    1PA     H3S10201   5.089   3.705   3.931 -3.8792 -1.0618 -0.6306
    1PA     C1210202   5.010   3.589   4.092 -0.0617  0.3252 -0.0612
    1PA     H2R10203   5.078   3.505   4.076  0.3862  0.7131 -0.2059
    1PA     H2S10204   5.005   3.592   4.201  1.3735 -1.6871  0.1202
    1PC     C1110205   4.873   3.562   4.033  0.1255  0.4835  0.0002
    1PC     O1210206   4.771   3.584   4.099  0.4539  0.0034  0.2547
    1PC     O1110207   4.864   3.530   3.900 -0.3493 -0.5791 -0.0865
    1PC      C110208   4.739   3.532   3.837  0.5941  0.6889 -0.0930
    1PC      HR10209   4.735   3.456   3.759  1.2351 -0.3221  0.8217
    1PC      HS10210   4.648   3.516   3.896  2.1328 -0.8462  2.0198
    1PC      C210211   4.724   3.658   3.758  0.4979  0.2301 -0.0857
    1PC      HX10212   4.618   3.672   3.735  0.7630  2.7894 -0.0803
    1PC      C310213   4.820   3.665   3.631  0.3980 -0.8392  0.1255
    1PC      HA10214   4.816   3.573   3.573 -1.3633  1.1068 -3.1712
    1PC      HB10215   4.792   3.747   3.565  0.6246 -0.5322  0.4060
    1PC     O3110216   4.964   3.693   3.667  0.7023 -0.2947  0.2091
    1PC     P3110217   5.061   3.726   3.553 -0.3317  0.4301  0.0839
    1PC     O3210218   5.044   3.879   3.520  0.5577  0.2562  0.1803
    1PC     C3110219   5.055   3.972   3.626 -0.0730 -0.2969 -0.1434
    1PC     H1A10220   4.992   3.950   3.713  0.4502  0.5597  0.4590
    1PC     H1B10221   5.157   3.974   3.664 -0.9986 -0.0927  2.5777
    1PC     C3210222   5.020   4.109   3.567  0.0485 -0.4948  0.0763
    1PC     H2A10223   4.913   4.116   3.546  0.2094 -1.5460 -1.2342
    1PC     H2B10224   5.033   4.180   3.649 -1.0336 -1.7395  1.3964
    1PC     N3110225   5.093   4.152   3.444 -0.2411 -0.3619  0.1951
    1PC     C3310226   5.034   4.090   3.321 -0.6718  0.2219  0.2617
    1PC     H3A10227   5.072   4.142   3.233  1.1129  1.7065  1.8150
    1PC     H3B10228   5.072   3.987   3.320  1.5244  0.9732  0.1753
    1PC     H3C10229   4.927   4.094   3.340 -0.9157  0.8447 -1.1055
    1PC     C3410230   5.076   4.302   3.430  0.4987  0.0017  0.2469
    1PC     H4A10231   5.097   4.336   3.328 -1.2622 -3.0667 -1.3035
    1PC     H4B10232   4.969   4.315   3.446  0.0952 -2.5504  0.1216
    1PC     H4C10233   5.142   4.355   3.498 -0.5018 -0.4449  1.6036
    1PC     C3510234   5.237   4.114   3.438 -0.1743 -0.0645 -0.0556
    1PC     H5A10235   5.245   4.007   3.419  2.9352 -0.0792  0.8205
    1PC     H5B10236   5.277   4.134   3.538  1.7475 -1.3585 -0.5125
    1PC     H5C10237   5.292   4.171   3.363 -2.1013  4.1101  1.3444
    1PC     O3310238   5.191   3.714   3.609 -0.4972  0.4335 -0.3104
    1PC     O3410239   5.026   3.648   3.432 -0.0498 -0.0704  0.3558
    1PC     O2110240   4.764   3.775   3.840  0.3695 -0.7472 -0.4018
    1PC     C2110241   4.710   3.891   3.805  0.2568 -0.0327  0.0492
    1PC     O2210242   4.625   3.913   3.715  0.6561  0.3601 -0.1449
    1OL     C1210243   4.761   4.004   3.882 -0.0624  0.1225 -0.1701
    1OL     H2R10244   4.753   4.093   3.818  3.2610 -0.8523 -2.2355
    1OL     H2S10245   4.868   3.992   3.902 -0.4510 -1.7679  0.9536
    1OL     C1310246   4.676   4.021   4.015 -0.6254 -1.1416  0.2555
    1OL     H3R10247   4.586   3.960   4.007 -2.1160  0.7265  1.6816
    1OL     H3S10248   4.656   4.128   4.029  0.2670 -0.8810 -0.3764
    1OL     C1410249   4.744   3.972   4.147  0.3543 -0.1773 -0.6994
    1OL     H4R10250   4.838   4.021   4.174 -0.4071 -0.7312  3.7256
    1OL     H4S10251   4.773   3.867   4.145  0.5858 -0.1069 -1.1128
    1OL     C1510252   4.660   4.012   4.272  0.0838  0.1456  0.3752
    1OL     H5R10253   4.557   3.982   4.252 -0.1174  0.7059  0.5449
    1OL     H5S10254   4.657   4.121   4.277 -0.9653  0.2063 -0.8788
    1OL     C1610255   4.712   3.963   4.410 -0.2617 -0.1091 -0.8365
    1OL     H6R10256   4.660   4.009   4.494  0.5787 -0.7901  0.0936
    1OL     H6S10257   4.817   3.990   4.424 -0.3102  0.6390 -1.8122
    1OL     C1710258   4.701   3.809   4.423  0.7428  0.0574 -0.1940
    1OL     H7R10259   4.643   3.766   4.341  0.9735 -0.9559  0.1640
    1OL     H7S10260   4.637   3.789   4.509  0.0629  0.6162 -0.5599
    1OL     C1810261   4.832   3.734   4.436 -0.0374  0.6580 -0.3864
    1OL     H8R10262   4.902   3.784   4.503 -0.2933  1.4353 -0.6930
    1OL     H8S10263   4.888   3.739   4.342  1.2541 -1.1629  0.2271
    1OL     C1910264   4.800   3.592   4.481  0.2220 -0.0783  0.5958
    1OL     H9R10265   4.714   3.541   4.438 -0.0656 -1.5004  2.7041
    1OL    C11010266   4.868   3.521   4.574 -1.0713 -0.5726 -0.0635
    1OL    H10R10267   4.843   3.417   4.593  0.2318 -0.6642  1.3987
    1OL    C11110268   4.998   3.559   4.646 -0.5768  0.6336  0.4502
    1OL    H11R10269   5.010   3.510   4.743  0.8354  2.9287  1.5072
    1OL    H11S10270   5.006   3.663   4.677 -1.5067  0.6524  0.6531
    1OL    C11210271   5.119   3.524   4.550  0.2408 -0.3054 -0.0238
    1OL    H12R10272   5.104   3.583   4.460  0.7970  1.2067  0.8358
    1OL    H12S10273   5.130   3.417   4.531  2.0731 -0.6212  2.3308
    1OL    C11310274   5.260   3.560   4.612 -0.2012 -0.0611  0.4219
    1OL    H13R10275   5.261   3.520   4.714 -0.7385 -1.6867 -0.1729
    1OL    H13S10276   5.278   3.667   4.600 -0.6591 -0.2569 -3.3429
    1OL    C11410277   5.369   3.492   4.531 -0.0682  0.0711  0.0779
    1OL    H14R10278   5.370   3.542   4.434 -0.0086 -0.1343 -0.0272
    1OL    H14S10279   5.352   3.385   4.517  2.6153 -0.6111  1.5063
    1OL    C11510280   5.508   3.519   4.599  0.1448 -0.0845 -0.3424
    1OL    H15R10281   5.588   3.468   4.545  0.1788  0.0334 -0.4022
    1OL    H15S10282   5.501   3.482   4.701 -0.5388  0.6638 -0.1046
    1OL    C11610283   5.543   3.668   4.619 -0.2314 -0.3378  0.5348
    1OL    H16R10284   5.637   3.684   4.672 -1.3975  1.0018  2.3093
    1OL    H16S10285   5.467   3.712   4.683 -2.1854 -2.3810 -0.2453
    1OL    C11710286   5.567   3.756   4.499  0.2778 -0.0011  0.1798
    1OL    H17R10287   5.602   3.854   4.532 -1.1414  0.4175  0.5020
    1OL    H17S10288   5.482   3.771   4.432 -1.5271  1.1948  2.5935
    1OL    C11810289   5.672   3.702   4.399  0.1369  0.4668  0.0923
    1OL    H18R10290   5.775   3.694   4.434  0.2791  2.3109  0.2063
    1OL    H18S10291   5.685   3.769   4.313  1.8323  0.7830  0.5531
    1OL    H18T10292   5.627   3.609   4.363  2.1623 -0.6138  0.1869
    1PA    C11610293   2.399   3.951   4.763 -0.1303  0.0164 -0.9146
    1PA    H16R10294   2.415   3.856   4.710  0.2497  0.1531 -1.0436
    1PA    H16S10295   2.290   3.961   4.762 -0.2223 -0.4730 -3.8542
    1PA    H16T10296   2.452   3.945   4.859 -0.7541 -0.6060 -0.5987
    1PA    C11510297   2.448   4.084   4.707  0.5017  0.3344  0.0214
    1PA    H15R10298   2.395   4.097   4.612  0.5878 -2.1286 -0.4303
    1PA    H15S10299   2.422   4.161   4.779  4.9467 -0.2575  2.5792
    1PA    C11410300   2.601   4.103   4.688  0.3468 -0.0164 -0.1256
    1PA    H14R10301   2.664   4.096   4.777  1.0135 -1.6620 -0.6903
    1PA    H14S10302   2.636   4.018   4.628  0.8549  0.6186 -0.7411
    1PA    C11310303   2.640   4.231   4.615  0.0136 -0.3461 -0.3312
    1PA    H13R10304   2.590   4.316   4.662  0.8798  0.4369 -0.7983
    1PA    H13S10305   2.746   4.252   4.628 -0.6336  1.8490  2.1524
    1PA    C11210306   2.592   4.225   4.472 -0.2065  0.4424 -0.0309
    1PA    H12R10307   2.615   4.128   4.429  1.9149 -0.0690  2.0321
    1PA    H12S10308   2.484   4.234   4.473 -0.3122 -0.7229  1.0468
    1PA    C11110309   2.652   4.331   4.384 -0.2835  0.1341 -0.2926
    1PA    H11R10310   2.627   4.429   4.424  0.9855  0.4096 -0.1134
    1PA    H11S10311   2.761   4.321   4.381  0.0615  2.7996 -4.2756
    1PA    C11010312   2.598   4.307   4.244 -0.2384 -0.3643  0.9140
    1PA    H10R10313   2.627   4.211   4.203  0.1306  0.2575 -0.3435
    1PA    H10S10314   2.490   4.310   4.252 -0.5021 -1.9291 -1.1423
    1PA     C1910315   2.627   4.409   4.131  0.4530  0.3085  0.5613
    1PA     H9R10316   2.588   4.376   4.034  1.5235  1.0402 -0.1505
    1PA     H9S10317   2.578   4.501   4.165  0.0771  0.1161  0.5450
    1PA     C1810318   2.781   4.434   4.108 -0.2147 -0.7184 -0.4927
    1PA     H8R10319   2.830   4.449   4.204  0.6767 -0.5066 -0.9638
    1PA     H8S10320   2.827   4.348   4.058  0.9927 -0.0630 -0.5677
    1PA     C1710321   2.810   4.559   4.023  0.3185 -0.1634 -0.7233
    1PA     H7R10322   2.729   4.571   3.951 -0.4126 -2.1417 -0.3102
    1PA     H7S10323   2.802   4.640   4.095  0.9688  1.2214 -2.1630
    1PA     C1610324   2.947   4.563   3.948  0.3400 -0.6588 -0.1838
    1PA     H6R10325   3.020   4.519   4.015 -0.6067 -1.7742  0.1370
    1PA     H6S10326   2.942   4.505   3.856 -1.8022 -0.9047  0.0348
    1PA     C1510327   2.990   4.701   3.908 -0.2339 -0.6461  0.0877
    1PA     H5R10328   3.040   4.754   3.989 -0.1252  1.0226 -1.0351
    1PA     H5S10329   3.072   4.686   3.837  0.8081  0.7296  0.9513
    1PA     C1410330   2.887   4.782   3.832  0.3761 -0.1239  0.6812
    1PA     H4R10331   2.839   4.722   3.754  0.6097  2.0606 -1.2671
    1PA     H4S10332   2.811   4.816   3.903 -0.3156 -1.3166  0.5398
    1PA     C1310333   2.954   4.897   3.755 -0.5748 -0.0906  0.4554
    1PA     H3R10334   3.021   4.950   3.822  1.3130 -1.2180 -0.4751
    1PA     H3S10335   3.014   4.855   3.674 -0.1991 -0.5199  0.9517
    1PA     C1210336   2.847   4.988   3.682  0.1038 -0.2580 -0.9232
    1PA     H2R10337   2.771   5.028   3.750 -0.1859 -1.6074 -0.4342
    1PA     H2S10338   2.896   5.082   3.654  0.5548  0.1650  1.0755
    1PC     C1110339   2.797   4.930   3.554 -0.2233 -0.4424 -0.3141
    1PC     O1210340   2.868   4.878   3.473  0.3686 -0.0121 -0.2640
    1PC     O1110341   2.666   4.934   3.533  0.4363 -0.2833 -0.1220
    1PC      C110342   2.614   4.842   3.424 -0.2845 -0.5120 -0.1165
    1PC      HR10343   2.515   4.881   3.398  0.7151  2.4313  0.0404
    1PC      HS10344   2.684   4.840   3.340 -0.2184 -2.7860 -0.0653
    1PC      C210345   2.612   4.695   3.471 -0.1782  1.0386 -0.0114
    1PC      HX10346   2.716   4.672   3.496  0.1614  1.4600 -0.9843
    1PC      C310347   2.547   4.598   3.367 -0.0244  0.4728  0.4401
    1PC      HA10348   2.616   4.584   3.283  1.4232  1.7758  1.3526
    1PC      HB10349   2.541   4.497   3.410 -1.2350  0.0272 -0.7147
    1PC     O3110350   2.413   4.630   3.326  0.3388  0.2512 -0.1506
    1PC     P3110351   2.378   4.649   3.167  0.1560 -0.4750  0.0200
    1PC     O3210352   2.407   4.506   3.106  0.0398  0.1898 -0.3678
    1PC     C3110353   2.299   4.413   3.093  0.4634 -0.1408 -0.2772
    1PC     H1A10354   2.254   4.384   3.189 -0.0013 -1.4521 -0.8661
    1PC     H1B10355   2.218   4.459   3.036 -0.6870 -0.2426  1.2150
    1PC     C3210356   2.337   4.281   3.029 -0.2589  0.1441  0.3401
    1PC     H2A10357   2.423   4.228   3.072 -0.1959 -0.2630 -0.2792
    1PC     H2B10358   2.260   4.205   3.045  0.7248 -1.0086 -0.1927
    1PC     N3110359   2.368   4.282   2.880 -0.1791  0.2887  0.2520
    1PC     C3310360   2.248   4.328   2.805  0.5023  0.4624 -0.6311
    1PC     H3A10361   2.278   4.321   2.701 -1.6165 -0.7311 -1.2167
    1PC     H3B10362   2.156   4.269   2.810  0.8237 -0.1082 -1.3767
    1PC     H3C10363   2.230   4.433   2.832  1.3909  0.8084 -1.3425
    1PC     C3410364   2.487   4.371   2.855  0.7612  0.1026  0.3336
    1PC     H4A10365   2.470   4.478   2.867 -0.2474 -0.1564  1.3249
    1PC     H4B10366   2.556   4.345   2.936  2.5686  0.6393 -0.9476
    1PC     H4C10367   2.525   4.357   2.753 -0.8467 -1.3471 -0.1157
    1PC     C3510368   2.411   4.148   2.842  0.6478  0.8650 -0.0863
    1PC     H5A10369   2.473   4.097   2.916 -0.3456  0.2604  0.3436
    1PC     H5B10370   2.463   4.172   2.749  0.5308  0.5276 -0.2386
    1PC     H5C10371   2.330   4.086   2.805  1.9946 -0.3484 -1.1068
    1PC     O3310372   2.236   4.683   3.165  0.2086  0.0588  0.1227
    1PC     O3410373   2.476   4.747   3.105 -0.1757 -0.1614 -0.4845
    1PC     O2110374   2.532   4.697   3.592  0.2348  0.1748 -0.0703
    1PC     C2110375   2.549   4.616   3.693 -0.2418  0.5716 -0.5913
    1PC     O2210376   2.634   4.532   3.693 -0.5404  0.3904 -0.4074
    1OL     C1210377   2.463   4.639   3.816  0.0350  0.0871  0.0636
    1OL     H2R10378   2.473   4.548   3.875 -0.1893  0.1263  0.1632
    1OL     H2S10379   2.362   4.653   3.776 -0.0624 -0.9096 -0.0713
    1OL     C1310380   2.512   4.759   3.893 -0.0604  1.0029  0.0746
    1OL     H3R10381   2.503   4.846   3.827  1.8758  2.2410  1.3330
    1OL     H3S10382   2.618   4.752   3.918 -0.2384  0.7376  0.7825
    1OL     C1410383   2.429   4.798   4.013  0.6793  0.0217  0.3006
    1OL     H4R10384   2.390   4.705   4.055 -0.5579  0.0722 -0.6670
    1OL     H4S10385   2.345   4.864   3.987  1.2772  0.5706 -0.2650
    1OL     C1510386   2.517   4.867   4.116 -0.4332 -0.5232 -0.3626
    1OL     H5R10387   2.592   4.802   4.161 -0.2106  1.2377  1.9711
    1OL     H5S10388   2.461   4.898   4.204  0.0859  1.7034 -0.7440
    1OL     C1610389   2.589   4.992   4.060  0.4972 -0.2992  0.3826
    1OL     H6R10390   2.531   5.052   3.990  1.7191 -0.1456 -0.5355
    1OL     H6S10391   2.683   4.958   4.013  0.2451  1.1523 -1.2655
    1OL     C1710392   2.623   5.083   4.174  0.3085 -0.2638  0.7562
    1OL     H7R10393   2.539   5.134   4.222  1.2243  1.1651  0.9236
    1OL     H7S10394   2.681   5.159   4.121 -0.0752 -0.6804 -0.2834
    1OL     C1810395   2.715   5.027   4.287 -0.2569  0.3938  0.2078
    1OL     H8R10396   2.665   4.953   4.349  1.4133  0.8633  2.2601
    1OL     H8S10397   2.743   5.111   4.351  0.5692  0.1678  0.1645
    1OL     C1910398   2.845   4.973   4.222  0.5510 -0.3392  0.7396
    1OL     H9R10399   2.892   5.042   4.153  0.8238 -2.1277 -0.9641
    1OL    C11010400   2.892   4.849   4.238 -0.0812 -0.4926  0.7421
    1OL    H10R10401   2.973   4.815   4.174 -1.3886  1.3949 -2.1693
    1OL    C11110402   2.852   4.749   4.336 -0.7428  0.5566 -0.0161
    1OL    H11R10403   2.777   4.682   4.292  0.2642 -1.3890  1.1421
    1OL    H11S10404   2.796   4.785   4.423 -0.8590 -0.7283  0.4589
    1OL    C11210405   2.982   4.674   4.385  0.2043  0.2096  0.4166
    1OL    H12R10406   3.049   4.744   4.434  0.4687  0.5023 -0.3458
    1OL    H12S10407   3.025   4.638   4.291 -0.4935  1.2370 -0.3205
    1OL    C11310408   2.958   4.558   4.479 -0.8112  0.2630  0.3687
    1OL    H13R10409   3.057   4.517   4.502 -0.9348 -1.3779 -1.7355
    1OL    H13S10410   2.891   4.482   4.439 -0.1638 -0.3294  0.3940
    1OL    C11410411   2.887   4.603   4.613 -0.1252 -0.1096  1.4852
    1OL    H14R10412   2.783   4.623   4.588  0.4886  0.3020 -0.9845
    1OL    H14S10413   2.927   4.700   4.646  1.2669 -0.5164  1.0825
    1OL    C11510414   2.908   4.495   4.721 -0.1828  0.0693 -0.4933
    1OL    H15R10415   3.011   4.491   4.758  0.5358  1.2501 -2.1876
    1OL    H15S10416   2.909   4.393   4.684 -0.3414 -1.3264  2.9837
    1OL    C11610417   2.800   4.528   4.833  0.2789  0.6123  0.2255
    1OL    H16R10418   2.706   4.544   4.780  0.8705 -1.3295 -1.5580
    1OL    H16S10419   2.825   4.624   4.878  0.9766 -0.6911  2.7577
    1OL    C11710420   2.783   4.429   4.950  0.3911 -0.1714 -0.4460
    1OL    H17R10421   2.708   4.357   4.918 -0.0052 -0.5997  1.3515
    1OL    H17S10422   2.734   4.485   5.031  1.7709  0.6225 -0.1243
    1OL    C11810423   2.908   4.364   5.011 -1.1412 -0.3340  0.2834
    1OL    H18R10424   2.948   4.295   4.937  0.0619  2.3535 -1.7394
    1OL    H18S10425   2.893   4.315   5.108 -1.1278 -0.9204 -0.0111
    1OL    H18T10426   2.990   4.437   5.017 -0.7070 -0.5404 -2.1427
    1PA    C11610427   4.160   0.473   5.237 -0.7929 -0.1927 -0.6651
    1PA    H16R10428   4.219   0.483   5.146 -0.9101  2.4164 -0.5234
    1PA    H16S10429   4.212   0.529   5.315 -1.2669  1.0786 -1.2440
    1PA    H16T10430   4.064   0.520   5.216 -0.4153  1.3070  0.7385
    1PA    C11510431   4.159   0.321   5.275  0.0594  0.6478 -0.4812
    1PA    H15R10432   4.259   0.279   5.288 -0.3138  0.1536  1.1495
    1PA    H15S10433   4.125   0.324   5.379  1.4854  0.8082  0.0040
    1PA    C11410434   4.070   0.229   5.195  0.1800 -0.1291  0.2709
    1PA    H14R10435   4.049   0.137   5.250 -0.4952 -0.4480 -0.4980
    1PA    H14S10436   3.967   0.263   5.185 -0.2741 -1.5277 -0.1265
    1PA    C11310437   4.138   0.206   5.057  0.6469 -0.0561 -0.4633
    1PA    H13R10438   4.148   0.309   5.024  1.4264  0.5715  1.5917
    1PA    H13S10439   4.232   0.154   5.076 -1.1935 -2.9235  1.7064
    1PA    C11210440   4.056   0.124   4.956  0.3496 -0.4127  0.4784
    1PA    H12R10441   4.056   0.019   4.985 -1.8757 -1.5754 -3.0875
    1PA    H12S10442   3.958   0.171   4.949  0.2695 -0.7671 -1.2023
    1PA    C11110443   4.125   0.124   4.822 -0.4164  0.2373  1.0067
    1PA    H11R10444   4.233   0.111   4.825 -0.6581 -2.5816  0.0403
    1PA    H11S10445   4.094   0.032   4.773 -2.0572  1.7220 -0.9319
    1PA    C11010446   4.091   0.239   4.721  0.1284 -0.0832 -0.5245
    1PA    H10R10447   4.096   0.336   4.770 -0.1597 -0.4662  0.2794
    1PA    H10S10448   4.162   0.259   4.641  0.5258 -1.1507 -0.4606
    1PA     C1910449   3.953   0.229   4.663 -0.1727  0.2232  0.3079
    1PA     H9R10450   3.880   0.181   4.728 -1.2924  2.7576  1.0558
    1PA     H9S10451   3.915   0.330   4.642 -0.5375 -0.3471 -2.1867
    1PA     C1810452   3.961   0.152   4.520  0.1583 -0.4300 -0.2864
    1PA     H8R10453   4.041   0.200   4.463  0.4007 -0.2293  0.2206
    1PA     H8S10454   3.988   0.048   4.539  1.1437 -0.1841 -0.2865
    1PA     C1710455   3.825   0.162   4.443 -0.3567 -0.6190 -0.0454
    1PA     H7R10456   3.740   0.115   4.494 -0.5828  2.1053  2.3343
    1PA     H7S10457   3.791   0.265   4.441  0.9390 -0.1824 -0.1548
    1PA     C1610458   3.841   0.111   4.302 -0.0691 -0.1606 -0.0309
    1PA     H6R10459   3.735   0.114   4.272 -0.5485  1.2605  1.6394
    1PA     H6S10460   3.886   0.187   4.239 -2.0700  0.2921 -1.0162
    1PA     C1510461   3.890  -0.035   4.296 -0.1620  0.0222 -0.1853
    1PA     H5R10462   3.993  -0.034   4.332 -0.7243  0.4007  1.5118
    1PA     H5S10463   3.839  -0.099   4.368 -1.1385  2.0088  0.9741
    1PA     C1410464   3.892  -0.080   4.148 -0.1565  0.0211 -0.2112
    1PA     H4R10465   3.792  -0.056   4.111  0.2893  0.0410 -1.4434
    1PA     H4S10466   3.971  -0.027   4.097 -1.4555  0.5569 -1.7510
    1PA     C1310467   3.910  -0.231   4.142  0.9640 -0.7558 -0.2207
    1PA     H3R10468   3.999  -0.246   4.204  0.5554  0.1116  0.5813
    1PA     H3S10469   3.821  -0.267   4.193  2.0813  1.1262  3.3965
    1PA     C1210470   3.932  -0.288   4.002  0.0511 -0.0533 -0.0362
    1PA     H2R10471   4.006  -0.227   3.949  0.7320 -0.4764  0.4013
    1PA     H2S10472   3.978  -0.387   4.015 -0.4487 -0.2877 -0.0454
    1PC     C1110473   3.810  -0.288   3.920 -1.4803  0.7913  0.5452
    1PC     O1210474   3.704  -0.327   3.966  0.0872  0.2361  0.3875
    1PC     O1110475   3.820  -0.249   3.790 -0.2294  0.2516 -0.2782
    1PC      C110476   3.723  -0.281   3.693  0.7219  0.2272 -0.4000
    1PC      HR10477   3.737  -0.386   3.669 -0.8545 -0.3758  1.0834
    1PC      HS10478   3.631  -0.281   3.751  1.1291 -1.2654  0.2842
    1PC      C210479   3.727  -0.190   3.566 -0.0317  0.0069  0.1831
    1PC      HX10480   3.655  -0.225   3.491  0.2947 -0.0143 -0.1252
    1PC      C310481   3.862  -0.180   3.500 -0.5965  1.1567 -0.2137
    1PC      HA10482   3.921  -0.137   3.581 -1.3123  0.8922  0.4534
    1PC      HB10483   3.894  -0.283   3.484 -1.0911  0.8256  0.8421
    1PC     O3110484   3.857  -0.107   3.377 -0.4914  0.4469 -0.1821
    1PC     P3110485   3.923  -0.154   3.240  0.4210  0.1886 -0.1685
    1PC     O3210486   4.078  -0.137   3.254 -0.4219 -0.4360 -0.1220
    1PC     C3110487   4.132  -0.001   3.266 -0.0969  0.3646 -0.0416
    1PC     H1A10488   4.074   0.049   3.344 -0.1925 -0.0330  0.1478
    1PC     H1B10489   4.235   0.000   3.303 -0.3325  1.2124  0.6192
    1PC     C3210490   4.129   0.065   3.129 -0.3693 -0.0060  0.2020
    1PC     H2A10491   4.194   0.025   3.051 -1.8848  1.3204 -1.8381
    1PC     H2B10492   4.031   0.062   3.083  0.3557 -0.4580 -1.3780
    1PC     N3110493   4.169   0.205   3.125  0.2322  0.0819 -0.1159
    1PC     C3310494   4.186   0.248   2.985  0.0469 -0.1936  0.1046
    1PC     H3A10495   4.096   0.221   2.929  1.8357 -0.1751 -3.0468
    1PC     H3B10496   4.214   0.353   2.976  2.3676 -0.8095 -0.4849
    1PC     H3C10497   4.264   0.181   2.949 -1.2519 -1.7977  0.1309
    1PC     C3410498   4.055   0.288   3.180 -0.3841 -0.2477 -0.2262
    1PC     H4A10499   4.009   0.239   3.266 -0.6825 -0.6634 -0.6198
    1PC     H4B10500   4.094   0.382   3.220 -2.7903  0.2309  1.1943
    1PC     H4C10501   3.982   0.302   3.101  0.8821 -0.8037 -1.5222
    1PC     C3510502   4.296   0.236   3.192 -0.0008 -0.0321 -0.4712
    1PC     H5A10503   4.382   0.179   3.155  0.7220  0.3457  0.5942
    1PC     H5B10504   4.282   0.206   3.296 -0.9399 -1.2716 -0.9326
    1PC     H5C10505   4.320   0.342   3.196 -0.5994  0.0720  2.5112
    1PC     O3310506   3.900  -0.302   3.228  0.2367 -0.4504  0.2819
    1PC     O3410507   3.871  -0.053   3.138 -0.0076 -0.2482 -0.2112
    1PC     O2110508   3.688  -0.055   3.602 -0.7595 -0.6644 -0.6548
    1PC     C2110509   3.565  -0.032   3.645  0.0512 -0.1077 -0.6066
    1PC     O2210510   3.481  -0.118   3.633 -0.2084 -0.3908 -0.1688
    1OL     C1210511   3.540   0.107   3.699  0.0219  0.8344  0.2383
    1OL     H2R10512   3.438   0.130   3.666 -0.4685  0.4514  1.3981
    1OL     H2S10513   3.605   0.180   3.651  2.2025 -1.7782 -1.0332
    1OL     C1310514   3.553   0.107   3.851  0.1919 -0.5475  0.3945
    1OL     H3R10515   3.659   0.098   3.876  0.5396 -2.9034 -1.5037
    1OL     H3S10516   3.509   0.014   3.888  0.6729 -1.0761 -0.3425
    1OL     C1410517   3.499   0.234   3.916 -0.1527 -0.5147  0.4225
    1OL     H4R10518   3.393   0.245   3.897 -0.1077  2.1931  1.1882
    1OL     H4S10519   3.550   0.323   3.876 -1.2604  0.3563  0.8890
    1OL     C1510520   3.534   0.243   4.070 -0.2360 -0.3549  0.5441
    1OL     H5R10521   3.642   0.237   4.064 -0.1699  1.5274 -1.2291
    1OL     H5S10522   3.508   0.157   4.132 -1.8142 -0.9153 -0.8215
    1OL     C1610523   3.484   0.367   4.134 -0.5951  0.1615 -0.3815
    1OL     H6R10524   3.377   0.382   4.124 -0.2021  1.5135 -3.8574
    1OL     H6S10525   3.526   0.451   4.078 -1.5325  0.5487 -0.5201
    1OL     C1710526   3.519   0.388   4.277 -0.3046 -0.4290 -0.5944
    1OL     H7R10527   3.485   0.483   4.317  0.4336 -0.7552  0.9016
    1OL     H7S10528   3.626   0.399   4.293 -0.1771 -0.8764 -1.0923
    1OL     C1810529   3.467   0.267   4.364 -0.3241 -0.0372  0.1020
    1OL     H8R10530   3.522   0.179   4.330 -0.0389 -0.2591  1.1353
    1OL     H8S10531   3.359   0.250   4.352 -0.4275  0.4600  0.3027
    1OL     C1910532   3.496   0.289   4.515  0.3904  0.2873  0.0171
    1OL     H9R10533   3.583   0.352   4.533 -0.6909  1.5529  1.0210
    1OL    C11010534   3.416   0.244   4.608 -0.0005  0.0531  0.4704
    1OL    H10R10535   3.443   0.274   4.708  0.7246  1.0964 -0.0179
    1OL    C11110536   3.298   0.153   4.596  0.4960 -0.2738  0.5120
    1OL    H11R10537   3.324   0.094   4.508 -1.0282  0.6171 -0.5728
    1OL    H11S10538   3.207   0.209   4.579  0.0748 -1.0000  0.3346
    1OL    C11210539   3.279   0.057   4.719  0.9217 -0.5409 -0.3178
    1OL    H12R10540   3.376   0.007   4.727  0.8144 -0.9260 -1.2659
    1OL    H12S10541   3.204  -0.016   4.691  0.4603 -0.5314  0.8663
    1OL    C11310542   3.243   0.131   4.847  0.6903  0.2894  0.0217
    1OL    H13R10543   3.169   0.205   4.815  0.6403  0.0613 -0.4006
    1OL    H13S10544   3.337   0.180   4.873  1.4880  0.4157 -2.7592
    1OL    C11410545   3.191   0.043   4.964  0.1437 -0.0351 -0.1324
    1OL    H14R10546   3.269  -0.027   4.993 -0.5349 -0.1989  1.3577
    1OL    H14S10547   3.105  -0.014   4.929 -1.2255  0.8431  1.6453
    1OL    C11510548   3.147   0.142   5.078  0.1089  1.1235  0.8828
    1OL    H15R10549   3.077   0.212   5.033  0.7243  0.1773 -1.7477
    1OL    H15S10550   3.226   0.207   5.116  1.9947 -0.8933  0.6441
    1OL    C11610551   3.072   0.084   5.194  0.0565 -0.2722 -0.0053
    1OL    H16R10552   3.039   0.164   5.260  0.3960 -1.0514  1.1407
    1OL    H16S10553   3.145   0.025   5.251  1.3165 -0.4942 -1.7515
    1OL    C11710554   2.941   0.013   5.162 -0.0824  0.9708 -0.1881
    1OL    H17R10555   2.965  -0.073   5.099  2.4170  1.5257 -0.0709
    1OL    H17S10556   2.874   0.072   5.100  0.3695  1.5628 -0.1109
    1OL    C11810557   2.867  -0.027   5.288  0.1179  0.0154  1.1495
    1OL    H18R10558   2.919  -0.112   5.333 -2.1979 -2.4044 -0.4343
    1OL    H18S10559   2.776  -0.073   5.248  2.0647 -1.3748 -2.0564
    1OL    H18T10560   2.864   0.059   5.355  1.8500  1.1712 -0.1689
    1PA    C11610561   4.056   2.142   4.600 -0.1799  0.0529 -0.2907
    1PA    H16R10562   4.035   2.098   4.503 -1.7445 -0.1741  0.1299
    1PA    H16S10563   4.002   2.236   4.613  0.4370  0.3824 -0.0481
    1PA    H16T10564   4.004   2.080   4.673  1.1460 -2.1870 -1.1592
    1PA    C11510565   4.206   2.149   4.626 -0.0274 -0.1805 -0.0445
    1PA    H15R10566   4.221   2.140   4.734 -2.6669  0.8328  0.4859
    1PA    H15S10567   4.255   2.071   4.567  1.2798  2.0461 -2.1215
    1PA    C11410568   4.272   2.283   4.588  1.6504 -0.0637 -0.0700
    1PA    H14R10569   4.213   2.362   4.636 -0.6861 -1.9448  0.3154
    1PA    H14S10570   4.364   2.283   4.647  3.1900  0.2557 -2.3338
    1PA    C11310571   4.282   2.304   4.438 -0.1819  0.0092  0.6009
    1PA    H13R10572   4.369   2.368   4.423 -0.2631 -0.0268 -0.0355
    1PA    H13S10573   4.306   2.214   4.382 -2.5642  1.0536 -2.4059
    1PA    C11210574   4.164   2.386   4.374  0.2168 -0.0693 -0.1025
    1PA    H12R10575   4.069   2.334   4.357 -1.7878  4.3859 -5.2667
    1PA    H12S10576   4.136   2.454   4.454  1.1648 -0.6162  0.7257
    1PA    C11110577   4.192   2.447   4.235 -0.2572 -0.5212  0.4103
    1PA    H11R10578   4.243   2.373   4.174 -0.9596 -0.8266  0.1824
    1PA    H11S10579   4.095   2.480   4.196 -0.1157  0.5575  0.9079
    1PA    C11010580   4.279   2.577   4.239 -1.0641  0.7836  0.2268
    1PA    H10R10581   4.240   2.646   4.315 -1.4303 -0.2715  1.0208
    1PA    H10S10582   4.380   2.545   4.263 -0.9226  1.7291  0.9433
    1PA     C1910583   4.298   2.650   4.101  0.2832 -0.4440  0.1177
    1PA     H9R10584   4.208   2.683   4.049 -0.8863  0.4281  2.5507
    1PA     H9S10585   4.348   2.743   4.126 -1.8290  0.3793  1.5787
    1PA     C1810586   4.386   2.560   4.010  0.3719 -0.2510 -0.7530
    1PA     H8R10587   4.484   2.543   4.055  0.6185  1.7346 -0.4719
    1PA     H8S10588   4.342   2.460   3.997  0.6715 -0.4873 -0.0034
    1PA     C1710589   4.413   2.624   3.874 -0.4363  0.4494  0.2824
    1PA     H7R10590   4.496   2.577   3.821 -0.6094  0.0422  0.3642
    1PA     H7S10591   4.321   2.604   3.818 -0.5184 -1.6762  1.0591
    1PA     C1610592   4.447   2.768   3.867  0.1825  0.0907 -0.2017
    1PA     H6R10593   4.453   2.795   3.761 -0.1100 -2.6407 -0.9849
    1PA     H6S10594   4.364   2.824   3.911 -0.4150 -1.3837  0.6208
    1PA     C1510595   4.569   2.802   3.951 -0.4705 -0.2013 -0.3475
    1PA     H5R10596   4.568   2.909   3.972  2.6355 -0.3203  0.8442
    1PA     H5S10597   4.563   2.756   4.050 -0.3994 -1.5535 -0.9445
    1PA     C1410598   4.710   2.759   3.899  0.4433 -0.0029 -0.8724
    1PA     H4R10599   4.695   2.652   3.882 -1.8011  0.2966 -1.0430
    1PA     H4S10600   4.731   2.810   3.804 -0.0370  0.8593 -0.5279
    1PA     C1310601   4.811   2.783   4.011  0.1085  0.4191 -0.0009
    1PA     H3R10602   4.809   2.879   4.062  0.3364 -1.0921  3.0680
    1PA     H3S10603   4.782   2.716   4.093 -0.7935 -0.8162 -1.2734
    1PA     C1210604   4.954   2.763   3.977 -0.3315 -0.2465  0.3294
    1PA     H2R10605   4.980   2.827   3.892 -1.1803 -0.1375  0.1456
    1PA     H2S10606   5.017   2.784   4.064  1.2006  1.3253 -1.0795
    1PC     C1110607   4.979   2.618   3.942 -0.0111  0.0782  0.9486
    1PC     O1210608   5.021   2.534   4.022 -0.1278 -0.1866 -0.3133
    1PC     O1110609   4.954   2.591   3.813  0.0400 -0.0586  0.0353
    1PC      C110610   4.977   2.460   3.748  0.0779 -0.7331 -0.1310
    1PC      HR10611   5.031   2.476   3.654 -0.9534  0.6808 -0.5084
    1PC      HS10612   5.042   2.400   3.812  1.1666  0.7396  0.2001
    1PC      C210613   4.850   2.389   3.704 -0.1215 -0.8128  0.8397
    1PC      HX10614   4.877   2.288   3.671 -0.6236 -1.3010  1.8736
    1PC      C310615   4.767   2.457   3.585  0.3551  0.4110 -0.5332
    1PC      HA10616   4.670   2.410   3.566  0.1601  0.2240  0.8427
    1PC      HB10617   4.750   2.560   3.618  1.4656 -0.1470  2.0462
    1PC     O3110618   4.847   2.457   3.469 -0.0204  0.0464  0.1551
    1PC     P3110619   4.871   2.309   3.404 -0.3382  0.3149  0.1124
    1PC     O3210620   4.845   2.331   3.251  0.1348 -0.3013  0.0145
    1PC     C3110621   4.943   2.401   3.171  0.0967  0.3368 -0.1165
    1PC     H1A10622   4.884   2.425   3.082 -0.5713  0.5356  0.3621
    1PC     H1B10623   4.978   2.492   3.220  3.5925 -0.5338 -0.7193
    1PC     C3210624   5.054   2.306   3.126  0.5247 -0.3077 -0.9282
    1PC     H2A10625   5.088   2.260   3.219 -2.3933 -0.3698  0.2204
    1PC     H2B10626   5.014   2.233   3.056 -1.5829  0.1187 -0.2472
    1PC     N3110627   5.181   2.352   3.063  0.7908  0.4904  1.1867
    1PC     C3310628   5.236   2.479   3.127  0.3150  0.4905  0.4912
    1PC     H3A10629   5.270   2.451   3.226 -0.8744 -0.9653  0.5250
    1PC     H3B10630   5.307   2.521   3.055 -2.3853  0.4552 -2.4160
    1PC     H3C10631   5.157   2.554   3.133 -0.8016 -0.2495 -2.8563
    1PC     C3410632   5.293   2.254   3.066 -0.1403  0.2514  0.0144
    1PC     H4A10633   5.255   2.165   3.015  1.9141 -1.1413  0.8305
    1PC     H4B10634   5.383   2.290   3.016  0.1496  0.1602  0.4664
    1PC     H4C10635   5.322   2.234   3.169  1.0144  0.4221 -0.2624
    1PC     C3510636   5.160   2.390   2.922 -0.0056 -0.9015 -0.3058
    1PC     H5A10637   5.129   2.301   2.867 -1.1684 -0.1778 -0.8515
    1PC     H5B10638   5.256   2.425   2.882 -0.4657  0.7211 -0.0437
    1PC     H5C10639   5.095   2.478   2.924  1.8904  0.5583  1.0582
    1PC     O3310640   5.016   2.269   3.414 -0.1784 -0.1114 -0.5785
    1PC     O3410641   4.769   2.215   3.452  0.4038  0.2970  0.1185
    1PC     O2110642   4.753   2.378   3.813  0.5181  0.1237 -0.0470
    1PC     C2110643   4.790   2.306   3.922 -0.0008  0.0280  0.3872
    1PC     O2210644   4.888   2.239   3.935 -0.1037 -0.2040 -0.9884
    1OL     C1210645   4.707   2.352   4.038  0.0812 -0.8068 -0.4170
    1OL     H2R10646   4.609   2.305   4.032 -1.0248  1.2467  0.6338
    1OL     H2S10647   4.704   2.460   4.025  0.3165 -0.8152 -0.5566
    1OL     C1310648   4.776   2.329   4.171  0.1998  0.0385 -0.5748
    1OL     H3R10649   4.876   2.370   4.182  0.6304 -1.4270  1.5224
    1OL     H3S10650   4.782   2.220   4.181 -0.4358 -0.0671 -1.2607
    1OL     C1410651   4.679   2.377   4.287 -0.3577 -0.7987  0.5516
    1OL     H4R10652   4.600   2.301   4.291 -1.7187  0.5870  1.0094
    1OL     H4S10653   4.651   2.478   4.255  0.7032  0.3882  3.0754
    1OL     C1510654   4.743   2.370   4.433 -0.0951  0.1131 -0.1757
    1OL     H5R10655   4.844   2.411   4.425 -0.1415  0.2562 -0.0403
    1OL     H5S10656   4.759   2.265   4.461  0.7584  0.0063 -1.0120
    1OL     C1610657   4.664   2.456   4.530  0.3886  0.2160 -0.4285
    1OL     H6R10658   4.703   2.434   4.630 -1.5329  0.2113  0.3475
    1OL     H6S10659   4.559   2.428   4.528  1.0037 -2.3878  0.3086
    1OL     C1710660   4.674   2.603   4.511  0.0700  0.3132  0.5314
    1OL     H7R10661   4.662   2.625   4.405 -0.8338 -0.8116  0.3758
    1OL     H7S10662   4.778   2.625   4.534  0.7065 -2.2665  0.4767
    1OL     C1810663   4.579   2.689   4.596  0.5044 -0.2943 -0.7731
    1OL     H8R10664   4.606   2.794   4.600  0.2701 -0.2626  1.7249
    1OL     H8S10665   4.593   2.657   4.699 -2.1325 -1.0063 -0.5602
    1OL     C1910666   4.432   2.666   4.573 -1.2019  0.5333 -0.0931
    1OL     H9R10667   4.386   2.693   4.478 -0.2041 -0.8896 -1.0294
    1OL    C11010668   4.344   2.642   4.667 -0.2140 -0.1041  0.0664
    1OL    H10R10669   4.241   2.639   4.632  0.0942 -0.8067 -0.8302
    1OL    C11110670   4.362   2.614   4.814 -0.5185  0.0466 -0.7294
    1OL    H11R10671   4.437   2.684   4.851  0.1961 -0.6048 -0.9185
    1OL    H11S10672   4.401   2.513   4.830 -0.5796  0.1153 -0.1382
    1OL    C11210673   4.226   2.634   4.892  0.9454  0.6231 -0.4292
    1OL    H12R10674   4.148   2.574   4.847 -0.0388  2.8030 -1.8197
    1OL    H12S10675   4.191   2.732   4.859 -2.1842  0.0382  0.8268
    1OL    C11310676   4.220   2.622   5.044 -0.2993  0.0573 -0.1968
    1OL    H13R10677   4.272   2.703   5.096 -0.9925 -0.0192  0.6250
    1OL    H13S10678   4.266   2.527   5.072 -0.3615  0.1154  0.1009
    1OL    C11410679   4.076   2.605   5.099  0.0837  0.7515  0.3481
    1OL    H14R10680   4.087   2.588   5.206  0.0179 -1.0765  0.0887
    1OL    H14S10681   4.042   2.517   5.045 -1.9941  1.7508 -0.0949
    1OL    C11510682   3.979   2.718   5.064  0.7772  0.1936  0.3283
    1OL    H15R10683   3.874   2.689   5.070  0.9232 -0.4049  0.1009
    1OL    H15S10684   3.987   2.741   4.958 -0.0072 -2.0242 -0.2625
    1OL    C11610685   4.011   2.849   5.149 -0.2334  0.3105 -0.2960
    1OL    H16R10686   4.108   2.897   5.136 -1.2315  2.0329 -1.8910
    1OL    H16S10687   4.013   2.812   5.252 -1.7104 -1.5049 -0.8630
    1OL    C11710688   3.909   2.958   5.144 -0.2744  0.3852 -0.3145
    1OL    H17R10689   3.811   2.910   5.151  1.3346 -3.2623 -0.6102
    1OL    H17S10690   3.916   3.010   5.048  2.9871 -0.1737 -0.4885
    1OL    C11810691   3.923   3.056   5.258  0.2735  0.1876 -0.1902
    1OL    H18R10692   4.027   3.089   5.255  0.9450 -1.8946 -1.5136
    1OL    H18S10693   3.897   3.034   5.362  1.0294  0.7038  0.1214
    1OL    H18T10694   3.871   3.147   5.227  1.2130  1.5050  1.8732
    1PA    C11610695   1.250   1.568   5.068  0.0158  0.2165 -0.4118
    1PA    H16R10696   1.270   1.593   4.964  1.2849 -0.2460 -0.2883
    1PA    H16S10697   1.343   1.547   5.120 -0.1876 -2.2187 -0.9028
    1PA    H16T10698   1.198   1.648   5.121 -1.7748 -0.3192 -1.2852
    1PA    C11510699   1.175   1.432   5.055 -0.1086  0.4583 -0.2033
    1PA    H15R10700   1.194   1.379   5.149  2.2505  0.5984 -0.5385
    1PA    H15S10701   1.067   1.448   5.068  0.1939  1.9559  0.7449
    1PA    C11410702   1.217   1.353   4.928 -0.6893  0.3515 -0.1307
    1PA    H14R10703   1.207   1.418   4.841 -0.2604 -1.2743 -1.4423
    1PA    H14S10704   1.324   1.336   4.941 -0.0330  4.1349  0.5727
    1PA    C11310705   1.129   1.232   4.899 -0.4333 -0.2534  0.2387
    1PA    H13R10706   1.180   1.160   4.834  1.8593  1.1912  0.2918
    1PA    H13S10707   1.107   1.167   4.984 -0.3279 -0.9467 -0.2555
    1PA    C11210708   1.000   1.275   4.833 -0.1816  0.2378  0.7515
    1PA    H12R10709   0.932   1.193   4.856  1.8449 -1.4263  1.1290
    1PA    H12S10710   0.946   1.355   4.884 -1.7329 -0.6690  0.5960
    1PA    C11110711   1.000   1.319   4.685 -0.3348 -0.2925 -0.1709
    1PA    H11R10712   1.062   1.410   4.682 -0.9978  0.1520 -2.1649
    1PA    H11S10713   1.039   1.233   4.629  0.1928 -0.8399  1.0183
    1PA    C11010714   0.864   1.359   4.630  0.1030  0.4097  0.3529
    1PA    H10R10715   0.795   1.287   4.675  0.8353  0.7452  2.1091
    1PA    H10S10716   0.836   1.456   4.672  1.0325  0.5019  0.7767
    1PA     C1910717   0.852   1.359   4.474 -0.0941 -0.3388 -0.2009
    1PA     H9R10718   0.746   1.377   4.456  0.1587  1.3528 -0.1803
    1PA     H9S10719   0.907   1.444   4.432  0.3834 -0.0333  0.9838
    1PA     C1810720   0.892   1.226   4.406 -0.6395  0.3200  0.5600
    1PA     H8R10721   1.000   1.232   4.416 -0.5978  1.3106 -0.2502
    1PA     H8S10722   0.862   1.132   4.453 -0.5616  1.3020  2.6825
    1PA     C1710723   0.843   1.217   4.252 -0.0137  0.4318 -0.4034
    1PA     H7R10724   0.742   1.257   4.245  0.0667  0.4945 -1.3106
    1PA     H7S10725   0.903   1.289   4.197  0.9903 -1.2262 -1.5664
    1PA     C1610726   0.873   1.084   4.185 -0.3163  0.1381  0.3247
    1PA     H6R10727   0.981   1.072   4.177 -0.1395 -0.8758  3.0850
    1PA     H6S10728   0.829   1.003   4.244  0.0778 -0.5437 -0.2998
    1PA     C1510729   0.823   1.088   4.040  0.4860 -0.4158  0.3213
    1PA     H5R10730   0.713   1.088   4.045  0.2232 -2.8066 -2.4742
    1PA     H5S10731   0.844   1.182   3.989 -2.1712  1.2887  2.1036
    1PA     C1410732   0.871   0.961   3.962 -0.3127 -0.4786 -0.4732
    1PA     H4R10733   0.980   0.966   3.957 -0.3138 -0.4800 -0.4997
    1PA     H4S10734   0.827   0.874   4.010 -1.8625 -0.1844 -1.2896
    1PA     C1310735   0.812   0.950   3.816  0.1918  0.4736  0.2932
    1PA     H3R10736   0.846   1.043   3.770 -0.3398  1.8676  2.5565
    1PA     H3S10737   0.867   0.870   3.766  1.4348  0.5940  1.4074
    1PA     C1210738   0.657   0.930   3.802  0.4816  0.3506  0.0893
    1PA     H2R10739   0.626   0.833   3.840 -0.4425  0.8370  0.6094
    1PA     H2S10740   0.598   1.004   3.857  1.0715 -0.8129  2.3993
    1PC     C1110741   0.614   0.931   3.655 -0.0248  0.0467  0.8241
    1PC     O1210742   0.600   0.828   3.589 -0.5039 -0.0279 -0.1680
    1PC     O1110743   0.585   1.055   3.605  0.7905  0.7311 -0.0334
    1PC      C110744   0.529   1.051   3.472  0.0080  0.1296 -0.1169
    1PC      HR10745   0.598   1.009   3.399 -1.7559 -0.9836 -1.2129
    1PC      HS10746   0.438   0.994   3.453 -1.4370  2.3654 -0.1743
    1PC      C210747   0.490   1.194   3.419 -0.1420  0.1469 -0.1336
    1PC      HX10748   0.420   1.188   3.336  0.7106  1.5617 -1.0016
    1PC      C310749   0.623   1.271   3.385 -0.5285  0.2453 -0.6937
    1PC      HA10750   0.696   1.251   3.465  0.3233 -0.3962 -1.6131
    1PC      HB10751   0.676   1.228   3.300 -0.4296  1.0471 -1.0462
    1PC     O3110752   0.615   1.414   3.361 -0.0992 -0.7001  0.6122
    1PC     P3110753   0.523   1.469   3.245 -0.1989  0.4120  0.1069
    1PC     O3210754   0.372   1.477   3.299 -0.1585 -0.0530 -0.0439
    1PC     C3110755   0.332   1.557   3.415  0.0000  0.1237 -0.3749
    1PC     H1A10756   0.235   1.524   3.453  0.3602  0.4347  0.8605
    1PC     H1B10757   0.407   1.537   3.492 -0.7466 -0.9708  0.0862
    1PC     C3210758   0.332   1.703   3.370 -0.0600 -0.4957 -0.4780
    1PC     H2A10759   0.329   1.765   3.460 -1.0655 -0.5413 -0.4791
    1PC     H2B10760   0.421   1.731   3.312  0.0414  1.2447  0.4609
    1PC     N3110761   0.209   1.752   3.294  0.3169 -0.4890  0.0106
    1PC     C3310762   0.242   1.893   3.250  0.1678  0.4485 -0.8225
    1PC     H3A10763   0.185   1.919   3.160  0.4593  0.9420 -0.8662
    1PC     H3B10764   0.228   1.972   3.324  1.0370  1.0238 -1.2561
    1PC     H3C10765   0.349   1.898   3.232  0.1970  2.0162 -0.3233
    1PC     C3410766   0.173   1.670   3.180 -0.0874 -0.3845 -0.5124
    1PC     H4A10767   0.075   1.687   3.134  0.8227 -0.6741 -2.6903
    1PC     H4B10768   0.238   1.684   3.093 -0.5811  0.3676 -0.7657
    1PC     H4C10769   0.178   1.565   3.209  2.5306 -0.1633  0.0041
    1PC     C3510770   0.089   1.768   3.389 -1.7438  0.3024  0.1967
    1PC     H5A10771   0.005   1.819   3.342 -2.4504  1.1739  2.3011
    1PC     H5B10772   0.117   1.830   3.474  0.1708  1.2181 -1.0651
    1PC     H5C10773   0.056   1.671   3.429  0.1124 -0.2093  0.5554
    1PC     O3310774   0.575   1.606   3.206  0.1962 -0.3343  0.2608
    1PC     O3410775   0.516   1.362   3.138 -0.0430 -0.9329 -0.1930
    1PC     O2110776   0.418   1.266   3.524 -0.4194 -0.1559  0.5884
    1PC     C2110777   0.287   1.229   3.537 -0.6382 -0.7258  0.2458
    1PC     O2210778   0.231   1.157   3.456 -0.1999 -0.4664 -0.4692
    1OL     C1210779   0.220   1.271   3.663  0.5783  0.1709  0.1758
    1OL     H2R10780   0.210   1.380   3.657 -1.2694  0.0187 -0.1393
    1OL     H2S10781   0.293   1.248   3.740 -0.7133 -1.7938  0.8719
    1OL     C1310782   0.084   1.203   3.699  0.1796 -0.0435  0.1571
    1OL     H3R10783   0.105   1.096   3.697 -0.5015 -0.1855 -2.2386
    1OL     H3S10784  -0.001   1.208   3.631 -0.5295 -1.9574  0.8462
    1OL     C1410785   0.022   1.251   3.831 -0.2774  0.1156  0.2017
    1OL     H4R10786   0.010   1.360   3.837 -1.1035  0.0063  0.6128
    1OL     H4S10787   0.088   1.223   3.914  0.0405  0.6677  0.1423
    1OL     C1510788  -0.115   1.181   3.849  0.0460  0.5896 -0.4619
    1OL     H5R10789  -0.141   1.111   3.769  0.4973 -1.9649  1.4931
    1OL     H5S10790  -0.197   1.253   3.843 -1.5547 -1.2330 -1.7415
    1OL     C1610791  -0.129   1.097   3.980 -0.5658  0.4730  0.2245
    1OL     H6R10792  -0.037   1.038   3.972  0.7505  2.5425 -0.7465
    1OL     H6S10793  -0.218   1.034   3.983  0.1131 -0.6558 -1.5509
    1OL     C1710794  -0.102   1.175   4.112 -0.1179 -0.7914  0.0137
    1OL     H7R10795  -0.176   1.254   4.102 -1.0233 -1.7825 -1.7919
    1OL     H7S10796  -0.013   1.238   4.119 -1.3878  1.0410  0.1878
    1OL     C1810797  -0.119   1.091   4.235  0.6002 -0.5539 -0.0683
    1OL     H8R10798  -0.215   1.038   4.230  0.7525 -0.8283 -0.1257
    1OL     H8S10799  -0.110   1.160   4.319  1.6074  0.8144 -1.2699
    1OL     C1910800  -0.021   0.976   4.250 -0.3867  0.3493  0.0651
    1OL     H9R10801  -0.011   0.914   4.160  0.6071 -3.2636  2.4305
    1OL    C11010802   0.057   0.952   4.356 -0.1780 -0.6175  0.1953
    1OL    H10R10803   0.132   0.874   4.345  0.8284  0.3804 -0.1334
    1OL    C11110804   0.040   1.022   4.494  0.0769 -0.1175  0.8911
    1OL    H11R10805  -0.062   1.058   4.503 -0.3888 -0.6977 -1.4125
    1OL    H11S10806   0.097   1.114   4.503 -2.4120  1.5024  0.8803
    1OL    C11210807   0.095   0.927   4.600  0.0864 -0.1248  0.1713
    1OL    H12R10808   0.202   0.922   4.584  0.2769  0.8536  0.9948
    1OL    H12S10809   0.058   0.826   4.584  0.5372 -0.3585  0.5981
    1OL    C11310810   0.074   0.982   4.747 -0.3933 -0.3015 -0.2097
    1OL    H13R10811   0.096   1.088   4.757  0.8763 -0.4868 -0.8066
    1OL    H13S10812   0.145   0.927   4.809 -0.0945  1.3996  1.0279
    1OL    C11410813  -0.061   0.967   4.820  0.6995  0.6608 -0.4191
    1OL    H14R10814  -0.137   1.002   4.749 -0.8702 -1.5795  0.0360
    1OL    H14S10815  -0.057   1.016   4.917 -2.0205 -3.1449  1.8778
    1OL    C11510816  -0.108   0.822   4.854  0.3563 -0.1205  0.0994
    1OL    H15R10817  -0.066   0.765   4.938  0.7858  0.4530  0.2775
    1OL    H15S10818  -0.078   0.753   4.775  1.3580  1.2793 -0.7807
    1OL    C11610819  -0.260   0.810   4.868  0.8372  0.0626  0.7990
    1OL    H16R10820  -0.306   0.851   4.778 -0.3662  1.3007  1.9350
    1OL    H16S10821  -0.305   0.865   4.950 -2.8391  1.1566 -1.6871
    1OL    C11710822  -0.311   0.665   4.886 -0.7435  0.3324 -0.2694
    1OL    H17R10823  -0.280   0.633   4.986  0.7798  1.5672 -0.3089
    1OL    H17S10824  -0.264   0.601   4.811 -1.9389 -0.2081 -0.5699
    1OL    C11810825  -0.461   0.661   4.869  0.6237  0.5553  0.3497
    1OL    H18R10826  -0.523   0.714   4.941 -0.5652 -0.1227 -0.1538
    1OL    H18S10827  -0.501   0.561   4.889  0.6541  0.0585 -1.8119
    1OL    H18T10828  -0.474   0.691   4.764 -0.8635 -0.6576  0.1584
    1PA    C11610829   4.546   0.214   5.245  0.3495  0.1631  0.3374
    1PA    H16R10830   4.572   0.201   5.350  0.8049 -1.5180  0.0565
    1PA    H16S10831   4.445   0.171   5.239  0.0826  0.8533 -0.3333
    1PA    H16T10832   4.535   0.321   5.231 -0.8080  0.3409  2.1745
    1PA    C11510833   4.651   0.138   5.164  0.0843  0.3547  0.4729
    1PA    H15R10834   4.753   0.173   5.179 -0.0925  0.7984  0.6579
    1PA    H15S10835   4.656   0.038   5.208  4.2370 -0.1720 -0.8122
    1PA    C11410836   4.613   0.119   5.011  0.1200  0.6250 -0.0430
    1PA    H14R10837   4.684   0.056   4.957 -0.6486 -1.0619  0.8473
    1PA    H14S10838   4.511   0.080   5.000  0.4936 -0.4720  0.3206
    1PA    C11310839   4.616   0.256   4.940  0.0949 -0.1246 -0.5763
    1PA    H13R10840   4.541   0.318   4.990 -0.4778  0.1030 -1.6877
    1PA    H13S10841   4.714   0.299   4.960  0.5664 -2.4632  2.9867
    1PA    C11210842   4.588   0.250   4.783 -0.1131 -0.3019  0.6094
    1PA    H12R10843   4.542   0.153   4.764  0.9349 -1.0075  1.5167
    1PA    H12S10844   4.519   0.332   4.764 -0.0401 -0.1670  0.9214
    1PA    C11110845   4.715   0.265   4.700  0.1765  0.0315 -0.6852
    1PA    H11R10846   4.764   0.358   4.729  1.4544 -0.8298  0.0591
    1PA    H11S10847   4.777   0.181   4.735  1.3686  0.8625 -0.7374
    1PA    C11010848   4.693   0.278   4.550 -0.1523  0.3035 -0.1266
    1PA    H10R10849   4.631   0.195   4.517  0.4875 -0.3864  0.3551
    1PA    H10S10850   4.645   0.373   4.526  1.0931  1.6733  2.3659
    1PA     C1910851   4.837   0.265   4.492 -0.7027 -0.3375  0.1184
    1PA     H9R10852   4.885   0.354   4.534 -0.2637 -0.7230  0.4378
    1PA     H9S10853   4.886   0.176   4.532  1.3862  1.5873  2.1276
    1PA     C1810854   4.846   0.275   4.338 -0.7946  0.0226 -0.0373
    1PA     H8R10855   4.767   0.340   4.298  0.1553  0.9138 -0.4936
    1PA     H8S10856   4.943   0.319   4.318 -0.0978 -1.1231  0.6692
    1PA     C1710857   4.845   0.129   4.278 -0.4578 -0.6873  0.3811
    1PA     H7R10858   4.758   0.077   4.320 -0.3957 -0.4293  0.8446
    1PA     H7S10859   4.838   0.147   4.171 -0.0437 -0.2582  0.4258
    1PA     C1610860   4.975   0.048   4.301 -0.2593 -0.3323  0.4255
    1PA     H6R10861   5.000   0.056   4.406 -1.1284  2.8242  0.5099
    1PA     H6S10862   4.951  -0.057   4.285 -1.1588 -0.1094  0.1967
    1PA     C1510863   5.097   0.089   4.217  0.2250 -0.3561 -0.1892
    1PA     H5R10864   5.133   0.182   4.262 -1.5889  0.4554 -0.3457
    1PA     H5S10865   5.177   0.019   4.242  0.1526 -0.2527  0.3548
    1PA     C1410866   5.073   0.104   4.070  0.6636 -0.5817  0.3064
    1PA     H4R10867   5.000   0.182   4.047 -0.6083 -2.0823 -0.9844
    1PA     H4S10868   5.170   0.138   4.031  0.2764  1.2881  0.8823
    1PA     C1310869   5.042  -0.026   3.991 -0.1822 -0.0965  0.0861
    1PA     H3R10870   5.074  -0.019   3.887  1.1645 -1.3938  0.3773
    1PA     H3S10871   5.093  -0.113   4.032 -1.4506 -0.7802  0.2517
    1PA     C1210872   4.889  -0.056   3.979  0.0891  1.1695  0.7770
    1PA     H2R10873   4.873  -0.156   3.940 -1.7926  2.6562 -2.7446
    1PA     H2S10874   4.842  -0.049   4.077 -0.0880  0.9748  0.7045
    1PC     C1110875   4.810   0.035   3.890  0.7401  0.7532  0.1144
    1PC     O1210876   4.777   0.146   3.924  0.1897 -0.6754 -0.1176
    1PC     O1110877   4.771  -0.028   3.778  0.3758  0.4748  0.4767
    1PC      C110878   4.694   0.044   3.673 -0.6444 -0.7074  0.3673
    1PC      HR10879   4.641  -0.034   3.618  0.4373 -0.0661 -1.6795
    1PC      HS10880   4.625   0.120   3.711 -0.9073 -1.3786  1.2712
    1PC      C210881   4.801   0.102   3.571 -0.0838  0.6411 -0.5747
    1PC      HX10882   4.752   0.154   3.488 -1.7213  1.9125  1.1034
    1PC      C310883   4.902  -0.007   3.520  1.1059  0.3521 -0.1775
    1PC      HA10884   4.949  -0.063   3.601  1.3905 -1.8604 -1.7762
    1PC      HB10885   4.860  -0.082   3.452  1.7835  0.6182 -0.9208
    1PC     O3110886   5.016   0.059   3.450  0.4758  0.1351 -0.3360
    1PC     P3110887   4.998   0.088   3.293  0.1501 -0.1583  0.1763
    1PC     O3210888   4.956   0.244   3.305  0.8965 -0.3444  0.3116
    1PC     C3110889   5.042   0.355   3.343  0.0054  0.4863  0.8319
    1PC     H1A10890   4.986   0.439   3.386  2.4415  3.0477 -0.6758
    1PC     H1B10891   5.102   0.314   3.425 -1.2606 -2.5386  0.4131
    1PC     C3210892   5.125   0.405   3.227 -0.8097 -0.1463 -0.7063
    1PC     H2A10893   5.202   0.469   3.268 -1.8297 -0.7523  2.3795
    1PC     H2B10894   5.179   0.319   3.187 -0.0529 -0.3917  0.7748
    1PC     N3110895   5.060   0.467   3.108  0.9972  0.6796  0.1523
    1PC     C3310896   5.149   0.564   3.049  0.9930 -0.3285  0.6852
    1PC     H3A10897   5.175   0.640   3.123  0.3874 -1.0377  1.6565
    1PC     H3B10898   5.244   0.514   3.031  0.8297 -1.0510  1.7031
    1PC     H3C10899   5.105   0.609   2.961  3.4327 -1.1624 -1.0627
    1PC     C3410900   5.031   0.358   3.008  0.7452 -0.2916  0.9404
    1PC     H4A10901   4.960   0.400   2.937 -1.2594 -1.0656  2.3782
    1PC     H4B10902   5.129   0.349   2.962  0.6644  0.1671  0.6705
    1PC     H4C10903   5.008   0.264   3.059  0.1936 -0.1095  1.0294
    1PC     C3510904   4.937   0.544   3.148 -0.7597 -0.0630  0.3820
    1PC     H5A10905   4.864   0.490   3.208 -0.7078  0.3494  0.8245
    1PC     H5B10906   4.885   0.580   3.059 -0.6872 -1.6025 -0.3070
    1PC     H5C10907   4.964   0.629   3.210 -0.4188 -0.8761  1.3745
    1PC     O3310908   5.133   0.073   3.233 -0.6522  0.3602  0.8768
    1PC     O3410909   4.883   0.023   3.227 -0.1491 -0.1064 -1.0035
    1PC     O2110910   4.880   0.201   3.644 -0.1412  0.3714  0.5698
    1PC     C2110911   4.822   0.328   3.643 -0.4212  0.8641  0.5434
    1PC     O2210912   4.725   0.367   3.588  0.2900 -0.3592 -0.1963
    1OL     C1210913   4.917   0.419   3.723  0.0584 -0.4425  0.7250
    1OL     H2R10914   4.946   0.497   3.652  0.0570 -1.6220 -0.6009
    1OL     H2S10915   5.011   0.374   3.754  0.2298  0.7827  2.0994
    1OL     C1310916   4.846   0.479   3.853 -0.2865  0.3548  0.0218
    1OL     H3R10917   4.823   0.398   3.922 -0.1843 -0.0744 -0.4411
    1OL     H3S10918   4.749   0.523   3.830 -1.1688 -1.1227  0.7526
    1OL     C1410919   4.932   0.585   3.930  0.2054  0.2717 -0.1554
    1OL     H4R10920   4.875   0.653   3.994 -1.3283 -0.4390 -0.7149
    1OL     H4S10921   4.969   0.654   3.854 -0.9443 -0.4308 -1.3828
    1OL     C1510922   5.040   0.516   4.017  0.4859  0.0928  0.7329
    1OL     H5R10923   5.111   0.474   3.945  2.9893  3.6338  0.8980
    1OL     H5S10924   5.001   0.432   4.074  0.6833 -0.4337  0.1063
    1OL     C1610925   5.107   0.615   4.116 -0.3891  0.8079  0.4760
    1OL     H6R10926   5.037   0.651   4.192 -0.3161  0.4429  0.7187
    1OL     H6S10927   5.145   0.700   4.057  3.4091 -2.2242 -1.9682
    1OL     C1710928   5.222   0.543   4.185 -0.5143 -0.4403 -0.6084
    1OL     H7R10929   5.295   0.512   4.110  1.8664  0.3366  1.2706
    1OL     H7S10930   5.185   0.460   4.246 -1.5917  0.3328 -0.1690
    1OL     C1810931   5.295   0.650   4.270  0.5124 -0.0069  0.5572
    1OL     H8R10932   5.221   0.708   4.326 -0.0351 -0.0768 -0.0707
    1OL     H8S10933   5.341   0.721   4.202 -0.5529  0.9301  0.7728
    1OL     C1910934   5.398   0.586   4.360 -0.3922  0.3585  0.1005
    1OL     H9R10935   5.495   0.577   4.313  0.7963  0.6805  2.3864
    1OL    C11010936   5.373   0.527   4.478 -0.0020 -0.1405 -0.4934
    1OL    H10R10937   5.461   0.491   4.531  0.7786 -0.4978 -1.9843
    1OL    C11110938   5.251   0.526   4.569 -0.4517 -1.0223 -0.7302
    1OL    H11R10939   5.171   0.593   4.537 -0.5800 -0.2409  1.1096
    1OL    H11S10940   5.269   0.556   4.672  0.6428 -0.3827 -1.0895
    1OL    C11210941   5.181   0.386   4.556 -0.3844  0.2094  0.5143
    1OL    H12R10942   5.169   0.364   4.449  0.0285  0.9121  0.3137
    1OL    H12S10943   5.082   0.385   4.600 -0.6932  0.2991 -0.1606
    1OL    C11310944   5.272   0.275   4.611  0.4861  0.4988 -0.7786
    1OL    H13R10945   5.370   0.274   4.563  0.6296  0.1479 -0.4862
    1OL    H13S10946   5.225   0.178   4.589 -2.3125  1.2399  1.2356
    1OL    C11410947   5.301   0.253   4.761  0.8118 -0.1993 -0.4174
    1OL    H14R10948   5.368   0.327   4.806 -2.5534  0.8091  3.6172
    1OL    H14S10949   5.339   0.152   4.775  1.5790  0.1600  0.2003
    1OL    C11510950   5.164   0.259   4.837 -0.3030 -0.0864 -0.6817
    1OL    H15R10951   5.089   0.208   4.776  0.4938 -1.1628 -0.7932
    1OL    H15S10952   5.128   0.361   4.848 -1.3340 -0.6143  1.3196
    1OL    C11610953   5.175   0.199   4.982  0.9541  0.4653 -0.4507
    1OL    H16R10954   5.249   0.259   5.037  1.7358 -0.6934 -0.1905
    1OL    H16S10955   5.204   0.093   4.981 -1.5276 -0.2791 -1.7714
    1OL    C11710956   5.037   0.207   5.061 -0.1738  0.7459 -0.5088
    1OL    H17R10957   4.968   0.139   5.011  0.8378 -2.0548  1.6592
    1OL    H17S10958   4.986   0.303   5.049  0.5218  1.0404 -1.2377
    1OL    C11810959   5.052   0.171   5.213 -0.0313 -0.3881  0.3790
    1OL    H18R10960   5.086   0.068   5.226  1.1172  0.0082  0.6524
    1OL    H18S10961   4.952   0.179   5.255 -0.6894  2.0971 -1.4142
    1OL    H18T10962   5.118   0.245   5.258 -0.9598 -0.6183  2.2084
    1PA    C11610963   2.731   4.992   4.867  0.2006  0.0253  0.2802
    1PA    H16R10964   2.784   4.924   4.934  0.1451  0.8752  1.2179
    1PA    H16S10965   2.651   5.030   4.931 -0.4236  0.0730 -0.5257
    1PA    H16T10966   2.807   5.066   4.842  0.8090 -0.8953 -0.6631
    1PA    C11510967   2.685   4.910   4.739 -0.4704  0.2177  0.4940
    1PA    H15R10968   2.771   4.856   4.699  1.5104  0.4794  3.9713
    1PA    H15S10969   2.623   4.826   4.769  0.0506 -0.4259 -0.1881
    1PA    C11410970   2.616   4.992   4.630 -0.3946  0.0939 -0.1857
    1PA    H14R10971   2.683   5.066   4.587 -1.3227  0.6391 -0.6961
    1PA    H14S10972   2.591   4.918   4.554  0.3267 -1.4474  1.0108
    1PA    C11310973   2.491   5.068   4.680  0.2347  0.0489 -0.4923
    1PA    H13R10974   2.418   5.000   4.724 -0.9161  0.3852 -1.8146
    1PA    H13S10975   2.520   5.143   4.754 -0.5182  0.2498 -0.3972
    1PA    C11210976   2.419   5.143   4.563  0.3321  0.2285 -0.2224
    1PA    H12R10977   2.336   5.202   4.601  1.2136  1.5040 -0.1910
    1PA    H12S10978   2.490   5.209   4.512  0.9590 -1.4285 -1.6156
    1PA    C11110979   2.363   5.042   4.459 -0.1318 -0.4003 -0.4978
    1PA    H11R10980   2.433   4.979   4.405 -0.0083  0.8222 -1.8269
    1PA    H11S10981   2.299   4.974   4.517 -0.2045 -1.0708 -1.3511
    1PA    C11010982   2.274   5.121   4.363  0.0040  0.2256  0.4751
    1PA    H10R10983   2.194   5.159   4.428 -0.4075 -0.7180  0.5310
    1PA    H10S10984   2.335   5.193   4.309 -0.8953 -1.5331 -3.1821
    1PA     C1910985   2.195   5.031   4.260  0.3583 -0.2177  0.3095
    1PA     H9R10986   2.259   5.007   4.174 -1.3106 -0.2668 -0.9743
    1PA     H9S10987   2.174   4.937   4.311  2.6907  0.0652  1.9266
    1PA     C1810988   2.067   5.098   4.209  0.7891 -0.9430  0.4551
    1PA     H8R10989   2.026   5.152   4.294  0.9512  1.4130 -0.8818
    1PA     H8S10990   2.086   5.170   4.129 -0.0532 -0.1358  0.9582
    1PA     C1710991   1.964   4.997   4.153  0.3502  0.2299 -0.0160
    1PA     H7R10992   2.011   4.920   4.092  1.5849  0.1412  1.0024
    1PA     H7S10993   1.931   4.939   4.239  2.7496 -3.3915 -1.3203
    1PA     C1610994   1.853   5.067   4.077  0.3237  0.4542  0.3283
    1PA     H6R10995   1.819   5.144   4.147 -0.4532 -0.9880  1.5976
    1PA     H6S10996   1.897   5.114   3.989  1.5669 -2.2343 -0.6080
    1PA     C1510997   1.744   4.971   4.033  0.5447  0.7229  0.2292
    1PA     H5R10998   1.671   4.948   4.110 -1.7131  1.1403 -1.6734
    1PA     H5S10999   1.676   5.010   3.958 -0.4674 -2.3551 -0.6098
    1PA     C1411000   1.779   4.838   3.967  0.2236  0.2649  0.3633
    1PA     H4R11001   1.870   4.845   3.906 -0.7077 -0.3419 -1.1407
    1PA     H4S11002   1.804   4.764   4.043  2.7757  1.2725  0.6332
    1PA     C1311003   1.660   4.783   3.889  0.8035 -0.2310 -0.0049
    1PA     H3R11004   1.580   4.758   3.959  0.0778 -1.1903 -1.1317
    1PA     H3S11005   1.629   4.848   3.807  1.2790 -2.0569 -1.7055
    1PA     C1211006   1.707   4.651   3.826 -0.2063 -0.5503 -0.6126
    1PA     H2R11007   1.786   4.669   3.753  0.5481 -1.1004  0.0597
    1PA     H2S11008   1.754   4.587   3.900  0.8509 -1.6939 -2.2100
    1PC     C1111009   1.592   4.584   3.760  0.2828 -0.1188  0.1720
    1PC     O1211010   1.528   4.500   3.820 -0.1597  0.6979 -0.0887
    1PC     O1111011   1.585   4.612   3.631  0.8554  0.1704  0.5639
    1PC      C111012   1.466   4.582   3.557  0.6617 -0.0594 -0.1810
    1PC      HR11013   1.491   4.558   3.453  1.2347 -1.3292  0.2280
    1PC      HS11014   1.419   4.491   3.595 -1.0575 -0.0816 -2.2285
    1PC      C211015   1.355   4.686   3.554 -0.0059  0.1441 -0.0358
    1PC      HX11016   1.273   4.653   3.491  0.3322  0.4348 -0.6395
    1PC      C311017   1.416   4.811   3.491  0.3001 -0.2078 -0.0377
    1PC      HA11018   1.343   4.893   3.500  1.2413  0.4938  1.7373
    1PC      HB11019   1.512   4.835   3.538  0.1429  1.0246 -0.2905
    1PC     O3111020   1.435   4.780   3.351 -0.3686  0.1520 -0.1362
    1PC     P3111021   1.453   4.889   3.234 -0.1363  0.7928  0.1144
    1PC     O3211022   1.596   4.941   3.269  0.6015 -1.0530  0.4106
    1PC     C3111023   1.620   5.059   3.342  0.5152 -0.0092 -0.5045
    1PC     H1A11024   1.575   5.060   3.442  2.4015  3.4504  0.4946
    1PC     H1B11025   1.726   5.056   3.367 -0.4356  0.2235  4.4582
    1PC     C3211026   1.591   5.193   3.263  0.2589 -0.7458 -0.2325
    1PC     H2A11027   1.491   5.195   3.221  0.8353  1.8761 -1.7637
    1PC     H2B11028   1.597   5.280   3.329  0.4573 -0.0990 -1.0848
    1PC     N3111029   1.682   5.238   3.153  0.4404 -0.1524 -0.4410
    1PC     C3311030   1.651   5.153   3.030 -0.2998  0.1610  0.0198
    1PC     H3A11031   1.646   5.048   3.059 -1.0473  0.1782 -0.0313
    1PC     H3B11032   1.555   5.174   2.983 -1.3132 -0.4810  1.7088
    1PC     H3C11033   1.730   5.185   2.963 -0.0749  1.2275  0.7652
    1PC     C3411034   1.641   5.383   3.120  0.0258  0.5897  0.4524
    1PC     H4A11035   1.691   5.416   3.029 -1.0207 -0.4692 -0.5364
    1PC     H4B11036   1.536   5.376   3.093  0.0171  1.0248  0.3656
    1PC     H4C11037   1.651   5.447   3.208 -3.5163  0.5645  1.0317
    1PC     C3511038   1.817   5.230   3.197  0.3866  0.0760  0.5992
    1PC     H5A11039   1.845   5.302   3.274 -0.3423  2.3201 -1.1459
    1PC     H5B11040   1.883   5.257   3.114  0.6743 -1.8444  0.1517
    1PC     H5C11041   1.848   5.129   3.224 -0.7888 -0.4600 -0.0100
    1PC     O3311042   1.457   4.813   3.108  0.2438 -0.3262  0.0799
    1PC     O3411043   1.358   4.996   3.254 -0.2728  0.2011  0.3485
    1PC     O2111044   1.318   4.706   3.694  0.8699 -0.2045  0.1814
    1PC     C2111045   1.219   4.632   3.750  0.1891 -0.2691  0.3815
    1PC     O2211046   1.161   4.539   3.687  0.3706  0.1757  0.0340
    1OL     C1211047   1.189   4.686   3.881  0.1301  0.3041 -0.5581
    1OL     H2R11048   1.087   4.721   3.894 -0.0329 -0.8356  1.5941
    1OL     H2S11049   1.257   4.766   3.913  1.2289 -1.0571  0.6203
    1OL     C1311050   1.193   4.564   3.975  0.0074 -0.3239 -0.0455
    1OL     H3R11051   1.294   4.522   3.978 -0.4973 -1.6195 -0.3806
    1OL     H3S11052   1.135   4.484   3.927 -0.9996  0.3663 -0.0040
    1OL     C1411053   1.148   4.588   4.118  0.2309 -0.1813 -0.6171
    1OL     H4R11054   1.076   4.518   4.162  2.1365 -0.6596  1.9861
    1OL     H4S11055   1.100   4.686   4.126 -0.8108 -0.5864 -1.6263
    1OL     C1511056   1.266   4.581   4.222 -0.2033 -0.1427  1.3389
    1OL     H5R11057   1.310   4.482   4.219 -2.0828 -0.9959  0.4918
    1OL     H5S11058   1.222   4.590   4.321 -0.8646  1.1331  0.9551
    1OL     C1611059   1.384   4.673   4.189 -0.0179 -0.1445 -0.8757
    1OL     H6R11060   1.344   4.768   4.152 -1.3007 -0.8062 -1.2566
    1OL     H6S11061   1.448   4.633   4.110  0.5504  1.0751 -1.0594
    1OL     C1711062   1.460   4.698   4.325  0.4166 -0.0046  0.4754
    1OL     H7R11063   1.388   4.735   4.398 -0.5682 -0.4011 -0.2804
    1OL     H7S11064   1.525   4.785   4.311  1.4350 -0.8185 -0.0298
    1OL     C1811065   1.539   4.579   4.374 -0.2880  0.2471  0.2247
    1OL     H8R11066   1.464   4.502   4.394 -0.4906  0.5041  0.4633
    1OL     H8S11067   1.595   4.608   4.463 -0.0833  2.8682 -0.6743
    1OL     C1911068   1.635   4.525   4.269  0.2437 -0.9234  0.3803
    1OL     H9R11069   1.589   4.494   4.176  1.1262  2.1269 -1.2029
    1OL    C11011070   1.765   4.509   4.287 -0.5725  0.5575 -0.3252
    1OL    H10R11071   1.831   4.464   4.214  1.3032 -0.2990  1.7922
    1OL    C11111072   1.838   4.556   4.410 -0.7398 -0.4164  0.4743
    1OL    H11R11073   1.936   4.509   4.413 -0.2504  0.5849  0.7651
    1OL    H11S11074   1.778   4.521   4.494 -2.7189  0.2781 -0.5673
    1OL    C11211075   1.852   4.715   4.416 -0.0507  0.0088 -0.7408
    1OL    H12R11076   1.768   4.763   4.365  0.6778 -0.6781 -2.7060
    1OL    H12S11077   1.943   4.740   4.361  0.2594 -0.2782 -0.3647
    1OL    C11311078   1.874   4.751   4.569  0.3493 -0.1671  0.2879
    1OL    H13R11079   1.956   4.692   4.610  0.5549  0.9234  1.5001
    1OL    H13S11080   1.784   4.735   4.628  0.4872 -2.5745 -0.0601
    1OL    C11411081   1.922   4.897   4.571  0.3434  0.9787  0.1233
    1OL    H14R11082   1.843   4.953   4.520 -0.3818 -2.4273 -2.9290
    1OL    H14S11083   1.999   4.922   4.498 -0.9018  0.7584 -1.3269
    1OL    C11511084   1.950   4.961   4.702  0.4501 -0.0477 -0.2187
    1OL    H15R11085   2.017   4.899   4.763  0.0171 -0.2813  0.0261
    1OL    H15S11086   1.856   4.968   4.756 -0.5783 -0.3435 -1.9232
    1OL    C11611087   2.006   5.101   4.685  0.6081 -0.3305  0.0120
    1OL    H16R11088   1.944   5.156   4.614  3.2135 -1.1691 -3.1867
    1OL    H16S11089   2.103   5.102   4.634  1.2242 -1.0462  1.1367
    1OL    C11711090   2.018   5.176   4.816  0.4224  0.0493 -1.3384
    1OL    H17R11091   2.103   5.133   4.870  1.3014  1.5684 -1.4608
    1OL    H17S11092   1.931   5.163   4.881  0.6169 -0.8292 -1.2404
    1OL    C11811093   2.042   5.325   4.784 -0.6008 -0.2219 -0.9553
    1OL    H18R11094   2.032   5.389   4.871  0.0264  1.3599 -2.0036
    1OL    H18S11095   1.970   5.361   4.710 -2.8391 -2.8787 -0.2348
    1OL    H18T11096   2.145   5.337   4.748  0.7706 -0.6922  2.5008
    1PA    C11611097   0.510   3.975   4.792  0.3554  0.2690 -0.2186
    1PA    H16R11098   0.450   4.049   4.739 -2.2662 -0.4598  1.5361
    1PA    H16S11099   0.528   4.002   4.896 -0.0932  0.7019 -0.2541
    1PA    H16T11100   0.443   3.889   4.786  1.5713 -0.7223 -0.1019
    1PA    C11511101   0.641   3.948   4.714  0.2154 -0.5238 -0.3092
    1PA    H15R11102   0.622   3.899   4.618  0.0109 -1.2502  0.0919
    1PA    H15S11103   0.667   4.053   4.699 -0.3568 -0.0349  1.7342
    1PA    C11411104   0.730   3.859   4.803  0.2661 -0.3953 -0.2469
    1PA    H14R11105   0.827   3.860   4.752  0.2323 -0.0918 -0.3089
    1PA    H14S11106   0.743   3.915   4.896  4.2054  0.1986 -0.9831
    1PA    C11311107   0.681   3.719   4.848  0.3031  0.3122  0.0836
    1PA    H13R11108   0.602   3.729   4.923  0.9247  1.7751  0.5844
    1PA    H13S11109   0.630   3.679   4.760  0.4900 -2.7912  1.2841
    1PA    C11211110   0.786   3.632   4.900 -0.1624  0.3370  0.2569
    1PA    H12R11111   0.862   3.615   4.824 -1.6447  0.0174 -1.2170
    1PA    H12S11112   0.822   3.676   4.993  1.6494 -0.0841 -0.1985
    1PA    C11111113   0.717   3.498   4.935  0.2343 -0.5265 -0.9703
    1PA    H11R11114   0.790   3.431   4.981  0.3328 -0.1587 -0.5771
    1PA    H11S11115   0.634   3.506   5.007  1.0753 -1.2486  0.1208
    1PA    C11011116   0.664   3.419   4.820  0.3329  0.2182 -0.1885
    1PA    H10R11117   0.642   3.322   4.865  2.4275 -0.3003 -0.2214
    1PA    H10S11118   0.578   3.476   4.783  1.6170  1.8103 -0.8165
    1PA     C1911119   0.767   3.387   4.710 -0.0648 -1.3757 -0.1659
    1PA     H9R11120   0.785   3.482   4.658  0.2970 -1.3240  0.0510
    1PA     H9S11121   0.866   3.368   4.753  1.7004 -0.7591 -3.5573
    1PA     C1811122   0.742   3.281   4.610  0.6686 -0.4904  0.4712
    1PA     H8R11123   0.824   3.273   4.539 -0.3175  0.1557 -0.7881
    1PA     H8S11124   0.717   3.184   4.655 -0.7841  0.3564  1.5693
    1PA     C1711125   0.612   3.312   4.529 -0.6038  0.0604 -0.5818
    1PA     H7R11126   0.532   3.327   4.603 -0.9583 -1.3456 -0.6565
    1PA     H7S11127   0.615   3.413   4.488 -1.6082  0.5284  0.4454
    1PA     C1611128   0.571   3.207   4.418  0.1614  0.1903  0.1392
    1PA     H6R11129   0.662   3.185   4.362  1.7686  1.2795  2.1535
    1PA     H6S11130   0.532   3.113   4.456 -2.2135  1.3518  0.7726
    1PA     C1511131   0.472   3.277   4.318  0.4719  0.3436 -0.4277
    1PA     H5R11132   0.378   3.299   4.369 -0.4019  0.2103 -1.8986
    1PA     H5S11133   0.504   3.372   4.273 -0.2048  1.3200  1.0875
    1PA     C1411134   0.438   3.175   4.205  0.1221  0.1802  0.5018
    1PA     H4R11135   0.533   3.168   4.152  0.9005  3.3152  1.2487
    1PA     H4S11136   0.414   3.077   4.245 -0.1970  0.5145  1.1463
    1PA     C1311137   0.330   3.223   4.102  0.4036 -0.0136 -0.5476
    1PA     H3R11138   0.365   3.311   4.048  0.4364  1.2069  1.3686
    1PA     H3S11139   0.317   3.143   4.029  0.7863 -0.2375 -0.3736
    1PA     C1211140   0.190   3.259   4.170  0.6354 -0.6361 -0.3102
    1PA     H2R11141   0.160   3.179   4.238 -0.9920  0.7579  0.6689
    1PA     H2S11142   0.202   3.346   4.235  0.1708 -0.3140 -0.6458
    1PC     C1111143   0.074   3.284   4.072  0.7172  0.6301 -0.1197
    1PC     O1211144   0.085   3.354   3.978 -0.4395 -0.3266  0.2322
    1PC     O1111145  -0.039   3.217   4.102  0.0165 -0.0876 -0.9081
    1PC      C111146  -0.143   3.192   4.006 -0.2237 -0.0664  0.3129
    1PC      HR11147  -0.157   3.295   3.970 -0.5415  1.1356  3.5357
    1PC      HS11148  -0.093   3.128   3.933  2.5236 -0.4621  2.3576
    1PC      C211149  -0.280   3.136   4.055  0.5639  0.7084 -0.5147
    1PC      HX11150  -0.270   3.035   4.095  2.9976  0.3340 -1.8308
    1PC      C311151  -0.379   3.146   3.946  0.3023  0.2201 -0.2299
    1PC      HA11152  -0.471   3.095   3.974  1.1897 -2.0791 -1.2634
    1PC      HB11153  -0.387   3.253   3.926  0.7162  0.2292 -0.3509
    1PC     O3111154  -0.331   3.076   3.823  0.0406 -0.1092  1.3245
    1PC     P3111155  -0.321   3.141   3.676 -0.4271 -0.4212 -0.0100
    1PC     O3211156  -0.189   3.217   3.661 -0.6373  0.1675  0.6271
    1PC     C3111157  -0.186   3.364   3.643  0.0249  0.3483  0.0977
    1PC     H1A11158  -0.200   3.395   3.539  2.4282 -0.8863 -0.6662
    1PC     H1B11159  -0.263   3.403   3.710 -1.8897  0.1957 -1.8927
    1PC     C3211160  -0.053   3.413   3.691  0.3395 -0.0692 -0.6124
    1PC     H2A11161  -0.063   3.521   3.700  1.3035 -0.0568  0.7410
    1PC     H2B11162  -0.035   3.385   3.795  2.6840 -1.2247 -1.2514
    1PC     N3111163   0.063   3.382   3.610  0.0924  0.0792  0.9672
    1PC     C3311164   0.052   3.437   3.472  0.3154 -0.3835 -0.5483
    1PC     H3A11165   0.147   3.432   3.420  0.2033 -1.3591 -0.6708
    1PC     H3B11166  -0.034   3.382   3.433 -0.9243  0.0787  1.3811
    1PC     H3C11167   0.014   3.539   3.478  1.1862 -0.1338  1.2104
    1PC     C3411168   0.180   3.453   3.663 -0.1008 -0.9059 -0.0763
    1PC     H4A11169   0.201   3.395   3.753  0.9235 -0.5037 -0.0489
    1PC     H4B11170   0.252   3.432   3.584  0.6520 -3.3674  1.1898
    1PC     H4C11171   0.158   3.559   3.679  1.5746 -0.1446 -2.3109
    1PC     C3511172   0.091   3.235   3.603 -0.4582  0.0027 -0.4572
    1PC     H5A11173   0.126   3.192   3.697  1.2643  2.3212  0.0431
    1PC     H5B11174   0.167   3.224   3.526 -1.2641  1.8477 -1.6030
    1PC     H5C11175  -0.005   3.192   3.574 -0.9681  0.7304  0.1160
    1PC     O3311176  -0.319   3.034   3.573  0.2059 -0.6213  0.5402
    1PC     O3411177  -0.433   3.235   3.669 -0.4214 -0.2657 -0.2814
    1PC     O2111178  -0.326   3.230   4.160 -0.6530  0.2022  0.5621
    1PC     C2111179  -0.421   3.186   4.243  0.2032 -0.4594  0.0752
    1PC     O2211180  -0.463   3.070   4.253  0.4796 -0.0965  0.7749
    1OL     C1211181  -0.451   3.280   4.348  0.1940 -0.4444 -0.8671
    1OL     H2R11182  -0.522   3.352   4.307  0.0731  0.5198  0.9305
    1OL     H2S11183  -0.360   3.329   4.381 -0.6230 -0.0388  0.9034
    1OL     C1311184  -0.518   3.229   4.474  0.1872  0.3761  0.5595
    1OL     H3R11185  -0.607   3.168   4.458 -1.0402  2.6725 -2.1255
    1OL     H3S11186  -0.553   3.314   4.533 -0.3417 -0.4451  1.4635
    1OL     C1411187  -0.421   3.142   4.568  0.1913 -0.3201 -0.4935
    1OL     H4R11188  -0.335   3.201   4.599 -1.2715  0.8297  1.5818
    1OL     H4S11189  -0.387   3.049   4.520 -2.2424 -1.7603  0.3934
    1OL     C1511190  -0.487   3.096   4.702  0.5256 -0.1726 -0.3999
    1OL     H5R11191  -0.585   3.047   4.694  0.2819  0.2737 -0.2091
    1OL     H5S11192  -0.514   3.181   4.766 -1.0988  0.4907 -1.8686
    1OL     C1611193  -0.396   2.999   4.779  0.2604 -0.5569  0.5158
    1OL     H6R11194  -0.348   2.947   4.696 -2.1424  1.7663 -2.5330
    1OL     H6S11195  -0.444   2.930   4.849 -0.8579  0.5319  0.8426
    1OL     C1711196  -0.287   3.079   4.850  0.2389  0.1501 -0.9150
    1OL     H7R11197  -0.326   3.141   4.931  2.7138  1.1658 -0.4275
    1OL     H7S11198  -0.226   3.148   4.791  0.2433  0.6172 -0.3739
    1OL     C1811199  -0.189   2.979   4.928  0.0959 -0.0766 -0.1066
    1OL     H8R11200  -0.139   2.911   4.859  1.0990  1.3444 -0.8453
    1OL     H8S11201  -0.233   2.913   5.002 -0.8382  0.9073  0.2419
    1OL     C1911202  -0.083   3.071   4.987 -0.0368 -0.2711 -0.7293
    1OL     H9R11203  -0.071   3.169   4.943 -0.1006 -0.5090 -1.2845
    1OL    C11011204  -0.023   3.052   5.107 -0.5305 -0.6469  0.9391
    1OL    H10R11205   0.047   3.130   5.133 -0.1152 -0.8088  0.3205
    1OL    C11111206  -0.030   2.932   5.194 -0.1570 -0.1310  0.0739
    1OL    H11R11207  -0.048   2.843   5.134  2.1503 -0.9677  0.5122
    1OL    H11S11208  -0.117   2.942   5.259 -0.0780  0.9116  0.0391
    1OL    C11211209   0.098   2.926   5.284  0.6717  0.0321  0.1558
    1OL    H12R11210   0.081   2.840   5.349 -0.2034 -1.0074 -1.3702
    1OL    H12S11211   0.093   3.014   5.347 -0.0381  1.7171 -2.1176
    1OL    C11311212   0.228   2.918   5.201  0.0690 -0.0700 -0.1712
    1OL    H13R11213   0.312   2.921   5.271 -0.7605 -0.8715  0.8847
    1OL    H13S11214   0.236   3.005   5.136  2.0745 -1.1219 -1.4325
    1OL    C11411215   0.237   2.788   5.126 -0.2886 -0.1424 -0.4627
    1OL    H14R11216   0.156   2.780   5.053 -1.0234  1.6939  0.1060
    1OL    H14S11217   0.221   2.711   5.202  1.9233 -0.7758 -0.5594
    1OL    C11511218   0.373   2.773   5.053 -0.0653  0.0527 -0.5308
    1OL    H15R11219   0.376   2.686   4.987  1.6254  1.3679 -2.3053
    1OL    H15S11220   0.446   2.761   5.133 -1.1745  0.3944  0.5534
    1OL    C11611221   0.415   2.900   4.974 -0.4254  0.6800  0.6305
    1OL    H16R11222   0.425   2.990   5.034  2.6587 -0.1478  1.5480
    1OL    H16S11223   0.344   2.921   4.894 -2.5565  2.5065  2.8862
    1OL    C11711224   0.562   2.894   4.914  0.0275  0.2947 -0.0725
    1OL    H17R11225   0.569   2.797   4.863  0.0119  0.3907 -0.2579
    1OL    H17S11226   0.629   2.891   5.000 -0.1743 -1.9830  0.0813
    1OL    C11811227   0.606   3.015   4.821 -0.0628 -0.2436  0.6182
    1OL    H18R11228   0.568   3.110   4.861 -1.7808 -0.7177  0.1899
    1OL    H18S11229   0.582   3.003   4.715  0.6039  0.2822  0.3939
    1OL    H18T11230   0.715   3.023   4.819  0.1183 -1.4494  2.5518
    1PA    C11611231   0.616   5.035   4.559 -0.6225 -0.1000 -0.0605
    1PA    H16R11232   0.543   5.048   4.478 -1.4204 -0.2380  0.6234
    1PA    H16S11233   0.719   5.058   4.532  0.1228 -2.7927  0.2029
    1PA    H16T11234   0.587   5.105   4.637  0.1167 -1.4419  1.4745
    1PA    C11511235   0.599   4.903   4.636 -0.1934 -0.0471  0.6021
    1PA    H15R11236   0.498   4.898   4.678 -0.2486  1.1454  0.6581
    1PA    H15S11237   0.591   4.819   4.567  2.4840  0.5538 -0.5538
    1PA    C11411238   0.707   4.880   4.741 -0.1504  0.2349  0.2501
    1PA    H14R11239   0.799   4.888   4.682 -0.5961  1.9256 -0.2672
    1PA    H14S11240   0.731   4.967   4.802  0.1777  0.6234 -0.4117
    1PA    C11311241   0.700   4.755   4.825  0.5054 -0.2465 -0.1828
    1PA    H13R11242   0.780   4.765   4.899  0.5605  1.5918 -0.4433
    1PA    H13S11243   0.606   4.755   4.881  1.3692 -0.0745  1.3219
    1PA    C11211244   0.692   4.619   4.747 -0.0278  0.0983 -0.5554
    1PA    H12R11245   0.587   4.612   4.715  0.1220  0.2529 -1.0869
    1PA    H12S11246   0.738   4.624   4.648  1.0586  0.7204 -0.0318
    1PA    C11111247   0.737   4.496   4.828 -0.4105  0.6311 -0.2590
    1PA    H11R11248   0.845   4.488   4.839 -0.3680  1.5191  0.0449
    1PA    H11S11249   0.706   4.512   4.931  1.0834  1.8516  0.0297
    1PA    C11011250   0.686   4.364   4.769 -0.5247  0.8385  0.6349
    1PA    H10R11251   0.740   4.285   4.822  1.9230  1.0326 -1.3576
    1PA    H10S11252   0.578   4.359   4.781 -0.9666  0.1156 -2.6753
    1PA     C1911253   0.707   4.330   4.617  0.5206  0.2299  0.1364
    1PA     H9R11254   0.656   4.235   4.598 -2.2524  1.8133 -0.9542
    1PA     H9S11255   0.667   4.411   4.556  0.1334 -0.5419 -0.6656
    1PA     C1811256   0.858   4.319   4.575 -0.2541 -0.4727 -0.9259
    1PA     H8R11257   0.911   4.413   4.594 -0.4243 -0.8152  1.5118
    1PA     H8S11258   0.904   4.247   4.643 -3.3373  0.6672  2.6713
    1PA     C1711259   0.882   4.288   4.423 -0.0511  0.2212 -0.2175
    1PA     H7R11260   0.988   4.268   4.407 -0.3630 -2.8049  0.8133
    1PA     H7S11261   0.824   4.200   4.393  2.3961 -0.2809 -4.1343
    1PA     C1611262   0.834   4.395   4.325 -0.3336 -0.2299 -0.4574
    1PA     H6R11263   0.727   4.409   4.342  0.2266  1.1136  2.6820
    1PA     H6S11264   0.891   4.487   4.340  0.8369 -0.8637 -0.9508
    1PA     C1511265   0.835   4.360   4.178 -0.2820 -0.2388 -0.6616
    1PA     H5R11266   0.930   4.326   4.137  0.8008  0.5754  1.1026
    1PA     H5S11267   0.763   4.280   4.160 -0.5945 -0.0582 -0.2262
    1PA     C1411268   0.791   4.474   4.083  0.0393  0.1096  0.6490
    1PA     H4R11269   0.689   4.508   4.103  0.3871  2.0014 -0.6345
    1PA     H4S11270   0.855   4.560   4.104 -0.0417  1.0649 -2.4970
    1PA     C1311271   0.795   4.427   3.939 -0.0733  0.6886 -0.0552
    1PA     H3R11272   0.899   4.407   3.913  0.6463  1.3223  2.1225
    1PA     H3S11273   0.748   4.328   3.933  0.6811  0.4130 -3.0136
    1PA     C1211274   0.747   4.532   3.838 -0.5134  0.5578 -0.7844
    1PA     H2R11275   0.664   4.587   3.882  1.7479  2.4573  1.4135
    1PA     H2S11276   0.823   4.608   3.819 -1.7013  1.1580 -3.6153
    1PC     C1111277   0.697   4.464   3.710  0.4500  0.0525  0.1267
    1PC     O1211278   0.772   4.427   3.624 -0.4699  0.0871 -0.1586
    1PC     O1111279   0.561   4.451   3.694  0.4451  0.6841 -0.4477
    1PC      C111280   0.509   4.397   3.568 -0.2218 -0.8107 -0.1424
    1PC      HR11281   0.404   4.422   3.549 -0.0937 -0.7641 -0.7823
    1PC      HS11282   0.566   4.435   3.484  0.6105 -1.3948  0.1426
    1PC      C211283   0.510   4.241   3.558  0.1401 -0.0502  0.1928
    1PC      HX11284   0.609   4.194   3.554 -0.1285 -0.8977  2.2321
    1PC      C311285   0.422   4.182   3.442 -0.7329 -0.2099  0.1484
    1PC      HA11286   0.419   4.073   3.447  3.0476 -0.5673 -1.8727
    1PC      HB11287   0.324   4.225   3.460 -0.3621  1.4893 -1.5624
    1PC     O3111288   0.475   4.225   3.315 -0.6789  0.2209 -0.0586
    1PC     P3111289   0.612   4.153   3.263 -0.2508 -0.0350  0.1688
    1PC     O3211290   0.721   4.264   3.302 -0.1687  0.2396 -0.2546
    1PC     C3111291   0.755   4.374   3.214  0.2848  0.1381 -0.0426
    1PC     H1A11292   0.859   4.352   3.187  0.2459 -0.7198  0.4872
    1PC     H1B11293   0.696   4.375   3.122  0.1495  0.4492  0.0462
    1PC     C3211294   0.750   4.514   3.277 -0.0221 -0.2531 -0.4919
    1PC     H2A11295   0.646   4.528   3.306  0.1094  1.5945 -0.8006
    1PC     H2B11296   0.815   4.518   3.364  1.6540  1.5777 -1.7306
    1PC     N3111297   0.780   4.634   3.188  0.3378  0.5429  0.6354
    1PC     C3311298   0.658   4.653   3.105  0.1467 -0.5982  0.2890
    1PC     H3A11299   0.570   4.667   3.167 -0.0260 -1.6782  0.3070
    1PC     H3B11300   0.667   4.741   3.040 -3.6256  0.6032  1.1168
    1PC     H3C11301   0.645   4.568   3.037 -0.0066 -0.3076 -0.0484
    1PC     C3411302   0.794   4.753   3.273  0.6343 -0.5754  0.2052
    1PC     H4A11303   0.869   4.732   3.349  1.6185 -2.2909 -1.1649
    1PC     H4B11304   0.814   4.838   3.206  2.7148 -1.3212 -0.2000
    1PC     H4C11305   0.695   4.772   3.315  0.6540  1.8537 -0.6459
    1PC     C3511306   0.904   4.624   3.107 -0.1740  0.8828  0.3869
    1PC     H5A11307   0.978   4.618   3.187  0.4269 -0.9836 -0.2534
    1PC     H5B11308   0.922   4.715   3.049 -0.0682  0.9749  0.5656
    1PC     H5C11309   0.898   4.535   3.044 -1.6115  0.3632  1.2179
    1PC     O3311310   0.645   4.030   3.330 -0.0959  0.4059  0.0486
    1PC     O3411311   0.594   4.159   3.116  0.2349 -0.1822  0.3201
    1PC     O2111312   0.446   4.191   3.683 -0.5469  0.3350  0.7853
    1PC     C2111313   0.508   4.150   3.793  0.0698  0.1321  0.4912
    1PC     O2211314   0.625   4.141   3.800  0.1839 -0.1815  0.0610
    1OL     C1211315   0.406   4.108   3.896  0.4239 -0.6196 -0.2104
    1OL     H2R11316   0.450   4.049   3.976  0.0891  0.1329  0.5538
    1OL     H2S11317   0.329   4.050   3.843  0.0043 -0.1221 -0.1553
    1OL     C1311318   0.337   4.232   3.961 -0.9790 -0.7746 -0.6991
    1OL     H3R11319   0.255   4.193   4.021 -0.1274 -2.3083 -0.4680
    1OL     H3S11320   0.274   4.292   3.895 -1.8374 -2.9665 -1.9557
    1OL     C1411321   0.428   4.334   4.035 -0.0398  0.1579  0.3967
    1OL     H4R11322   0.498   4.380   3.966  0.4860 -0.1916  0.6826
    1OL     H4S11323   0.490   4.277   4.106 -1.3020 -0.4383  1.0689
    1OL     C1511324   0.344   4.440   4.102 -0.1276  0.0752  0.0738
    1OL     H5R11325   0.274   4.399   4.175  0.8459  0.6630  1.3769
    1OL     H5S11326   0.295   4.495   4.021 -2.1455 -0.1375  1.0898
    1OL     C1611327   0.433   4.548   4.178 -0.6982  0.0263 -0.3365
    1OL     H6R11328   0.492   4.609   4.110 -1.1982 -0.4309 -1.1953
    1OL     H6S11329   0.501   4.492   4.243  2.3505  1.6976 -1.8914
    1OL     C1711330   0.345   4.633   4.275 -0.2044  0.2950  0.0375
    1OL     H7R11331   0.282   4.574   4.342 -0.7387  1.8586  0.9786
    1OL     H7S11332   0.271   4.675   4.207 -0.2414 -0.5075 -0.4282
    1OL     C1811333   0.420   4.740   4.363  0.1876 -0.1618  0.2506
    1OL     H8R11334   0.528   4.722   4.360  1.3450  5.2246 -1.5734
    1OL     H8S11335   0.385   4.735   4.466  1.5065  0.2672  0.7458
    1OL     C1911336   0.398   4.877   4.309 -0.4933 -0.8882  0.1519
    1OL     H9R11337   0.462   4.896   4.223 -0.3619 -1.8458  0.0335
    1OL    C11011338   0.312   4.974   4.352  1.0475  0.7898  0.1870
    1OL    H10R11339   0.298   5.071   4.307 -2.1011  1.1197  1.6103
    1OL    C11111340   0.221   4.953   4.466 -0.2912 -0.0449  0.0120
    1OL    H11R11341   0.261   4.870   4.525 -1.4840 -0.7412 -0.1352
    1OL    H11S11342   0.125   4.914   4.432  0.5502 -2.3751  0.1047
    1OL    C11211343   0.207   5.083   4.550  0.2521  0.0955  0.8414
    1OL    H12R11344   0.162   5.159   4.487 -0.7679  0.3507  1.8339
    1OL    H12S11345   0.304   5.119   4.584 -0.4202  2.2525  0.6454
    1OL    C11311346   0.117   5.058   4.674 -1.1407  0.1151  0.2026
    1OL    H13R11347   0.157   5.127   4.749  2.2698 -2.1295  0.6518
    1OL    H13S11348   0.129   4.954   4.705  0.3583  0.2628  0.1903
    1OL    C11411349  -0.029   5.086   4.637  0.7246 -1.2009  0.0936
    1OL    H14R11350  -0.073   5.014   4.568 -0.2802 -0.8981  0.4091
    1OL    H14S11351  -0.027   5.186   4.593 -1.8667 -1.5506 -0.9727
    1OL    C11511352  -0.121   5.101   4.760  0.1179  0.3593  0.6045
    1OL    H15R11353  -0.216   5.145   4.728  0.6533  0.9311 -0.2505
    1OL    H15S11354  -0.078   5.155   4.844  1.3836  0.7963 -0.2946
    1OL    C11611355  -0.155   4.964   4.818  0.2342 -0.7815  0.2730
    1OL    H16R11356  -0.062   4.909   4.834 -1.0435 -3.0363  0.3496
    1OL    H16S11357  -0.209   4.899   4.749  1.1288 -1.1890 -0.0577
    1OL    C11711358  -0.235   4.969   4.949 -1.1912  0.2075  0.2364
    1OL    H17R11359  -0.295   4.878   4.963  1.7927 -1.6924  1.7753
    1OL    H17S11360  -0.303   5.054   4.945 -0.6635  0.6557  0.6416
    1OL    C11811361  -0.140   4.982   5.068 -0.1678 -0.3635  0.0509
    1OL    H18R11362  -0.109   4.882   5.095  0.0362  0.0267  1.2993
    1OL    H18S11363  -0.189   5.026   5.155  1.0870 -0.0018  0.6022
    1OL    H18T11364  -0.046   5.034   5.047 -0.4930  0.5323  0.7625
    1PA    C11611365   4.013   4.861   4.539 -0.6313  0.1287  0.5710
    1PA    H16R11366   4.072   4.778   4.579  1.2640  1.4832  0.7273
    1PA    H16S11367   3.984   4.845   4.435  2.5792  1.0314 -0.5808
    1PA    H16T11368   3.928   4.885   4.603 -1.2332 -2.4772  0.8553
    1PA    C11511369   4.114   4.974   4.534 -0.1681 -0.1521  0.5756
    1PA    H15R11370   4.198   4.964   4.465  0.8768  2.3656  1.3621
    1PA    H15S11371   4.071   5.068   4.499  0.3784 -0.8827 -2.3462
    1PA    C11411372   4.176   4.996   4.671 -0.4107 -0.7885 -0.3846
    1PA    H14R11373   4.211   5.098   4.660 -0.4949 -0.7534 -0.3294
    1PA    H14S11374   4.093   5.000   4.742 -0.2187  1.7814 -0.2437
    1PA    C11311375   4.290   4.911   4.734  0.1000  0.5574  1.0016
    1PA    H13R11376   4.301   4.943   4.838 -1.1134  0.2634  1.2374
    1PA    H13S11377   4.273   4.804   4.726  0.3109  0.6744 -3.2368
    1PA    C11211378   4.420   4.945   4.660 -0.0836  0.1155 -0.1085
    1PA    H12R11379   4.408   4.911   4.557  1.5730  1.3820 -0.7811
    1PA    H12S11380   4.428   5.054   4.653 -3.2152  0.4457  0.0935
    1PA    C11111381   4.549   4.875   4.711 -0.0182  0.1486 -0.3192
    1PA    H11R11382   4.591   4.925   4.799  0.1895 -0.1086 -0.2711
    1PA    H11S11383   4.535   4.768   4.728  4.8046 -0.7004 -0.1835
    1PA    C11011384   4.672   4.874   4.621 -0.7351  0.5688  0.2596
    1PA    H10R11385   4.742   4.797   4.656 -0.0523 -0.4183 -2.9549
    1PA    H10S11386   4.634   4.841   4.524  1.2309 -1.1095 -0.0306
    1PA     C1911387   4.735   5.012   4.610 -1.1499 -0.7903 -0.7852
    1PA     H9R11388   4.659   5.085   4.582 -0.4356  0.9733  1.4982
    1PA     H9S11389   4.775   5.041   4.707 -2.1440 -0.6538 -0.4101
    1PA     C1811390   4.835   5.016   4.493  0.0787 -0.1193  0.5876
    1PA     H8R11391   4.777   5.042   4.404  1.1198  0.2172 -0.0048
    1PA     H8S11392   4.902   5.102   4.500  0.0681 -0.2574  4.2842
    1PA     C1711393   4.908   4.885   4.458  0.2654 -0.1501 -0.0399
    1PA     H7R11394   4.973   4.856   4.541  0.6767 -0.0567 -0.3267
    1PA     H7S11395   4.835   4.804   4.450  0.4229 -0.2062 -0.9924
    1PA     C1611396   4.976   4.901   4.317 -0.0351  0.0299 -0.5527
    1PA     H6R11397   4.890   4.916   4.252 -1.7582  0.5039  1.7012
    1PA     H6S11398   5.028   4.997   4.307 -0.3662  0.0270 -2.7237
    1PA     C1511399   5.061   4.782   4.277  0.2605  0.7877  0.2583
    1PA     H5R11400   5.130   4.751   4.355  0.7519 -1.1022 -0.8472
    1PA     H5S11401   4.979   4.710   4.273  1.3022 -0.5379  1.6852
    1PA     C1411402   5.144   4.802   4.145  0.0814 -0.5120 -0.7506
    1PA     H4R11403   5.209   4.889   4.149  0.0388 -0.5273  0.6293
    1PA     H4S11404   5.215   4.720   4.131  2.4008  1.3031 -0.1305
    1PA     C1311405   5.061   4.819   4.015  0.6517 -0.2151  0.5893
    1PA     H3R11406   5.007   4.725   4.007 -3.1026  1.5087  2.9887
    1PA     H3S11407   4.986   4.898   4.026  0.9375 -0.0547  1.4797
    1PA     C1211408   5.138   4.845   3.890 -0.8063 -0.1696  0.2841
    1PA     H2R11409   5.213   4.924   3.902 -0.3627 -0.4590 -0.5040
    1PA     H2S11410   5.197   4.758   3.858 -0.0891 -0.0997  1.3661
    1PC     C1111411   5.053   4.891   3.772 -0.1504  0.2970 -0.7856
    1PC     O1211412   5.076   4.994   3.713  0.9814 -0.9752 -0.0967
    1PC     O1111413   4.941   4.817   3.758  0.5167 -0.4463  0.0771
    1PC      C111414   4.827   4.877   3.687  0.5629 -0.2611  0.1935
    1PC      HR11415   4.815   4.979   3.724  1.0409 -0.0922 -0.1059
    1PC      HS11416   4.856   4.881   3.582  1.4956 -0.3021  0.4410
    1PC      C211417   4.697   4.797   3.713  0.1832 -0.8093 -0.1407
    1PC      HX11418   4.708   4.692   3.683 -0.3400 -1.2188  1.0418
    1PC      C311419   4.570   4.868   3.650  0.0957  0.0679 -0.3959
    1PC      HA11420   4.491   4.794   3.633  1.0916 -0.9301 -0.8220
    1PC      HB11421   4.530   4.939   3.722 -0.0371  0.1417 -0.5430
    1PC     O3111422   4.599   4.934   3.527 -0.4791 -0.5213 -0.3309
    1PC     P3111423   4.622   4.842   3.397  0.1223 -0.2225  0.1092
    1PC     O3211424   4.471   4.821   3.345 -0.2183  0.4961 -0.0662
    1PC     C3111425   4.397   4.934   3.294 -0.3636  0.2010  0.6726
    1PC     H1A11426   4.292   4.930   3.322 -0.6844 -0.0295 -0.5325
    1PC     H1B11427   4.447   5.025   3.328 -1.5066 -0.0954  3.3979
    1PC     C3211428   4.406   4.927   3.136  0.0979 -0.1427  0.0487
    1PC     H2A11429   4.353   5.009   3.089 -2.4567 -0.7561  1.6061
    1PC     H2B11430   4.512   4.936   3.115  0.3180 -0.6746  0.8768
    1PC     N3111431   4.356   4.807   3.061  0.6677 -0.1160 -1.2409
    1PC     C3311432   4.346   4.845   2.920  0.3006  0.2729  0.0212
    1PC     H3A11433   4.279   4.931   2.923  0.7661  0.6757 -0.7932
    1PC     H3B11434   4.443   4.869   2.877  0.5560 -1.4432 -0.4271
    1PC     H3C11435   4.303   4.759   2.869 -1.4596  1.3567 -0.4121
    1PC     C3411436   4.437   4.694   3.090 -0.0204  0.3816 -0.3618
    1PC     H4A11437   4.436   4.681   3.198  2.3695  1.1132 -0.2128
    1PC     H4B11438   4.388   4.614   3.034 -1.5835 -1.8514  3.7565
    1PC     H4C11439   4.538   4.720   3.058  0.0616  1.0359  0.4211
    1PC     C3511440   4.215   4.775   3.111 -0.2937 -0.1673  0.1278
    1PC     H5A11441   4.169   4.688   3.064  0.1460 -0.6115  0.5155
    1PC     H5B11442   4.149   4.861   3.098  0.1818  0.8064  3.1750
    1PC     H5C11443   4.227   4.757   3.218  0.7221  1.9293  0.4249
    1PC     O3311444   4.695   4.926   3.298  0.3854  0.3195  1.0408
    1PC     O3411445   4.681   4.711   3.433 -0.6595  0.4376 -0.4147
    1PC     O2111446   4.667   4.812   3.859  0.5224  0.3379 -0.3041
    1PC     C2111447   4.693   4.709   3.942 -0.4902 -0.2742  0.2327
    1PC     O2211448   4.715   4.593   3.909 -0.6040  0.3055 -0.4154
    1OL     C1211449   4.704   4.759   4.078 -0.3641 -0.2119 -0.1725
    1OL     H2R11450   4.797   4.816   4.088 -1.5851  1.9789 -0.5897
    1OL     H2S11451   4.709   4.675   4.147 -0.5872 -0.2639 -0.2178
    1OL     C1311452   4.594   4.860   4.127 -0.3596 -0.3300  0.1999
    1OL     H3R11453   4.608   4.956   4.077  2.4081 -0.3587  0.7534
    1OL     H3S11454   4.615   4.876   4.233  2.6088 -2.6230  0.0813
    1OL     C1411455   4.453   4.802   4.102 -0.7944  0.1037 -0.2247
    1OL     H4R11456   4.444   4.766   4.000 -2.2169 -0.7765  0.1853
    1OL     H4S11457   4.379   4.879   4.127 -2.7071 -1.7433  0.0571
    1OL     C1511458   4.413   4.673   4.183 -0.0167 -0.1191 -0.1633
    1OL     H5R11459   4.472   4.584   4.158 -1.3313 -1.8231  2.4058
    1OL     H5S11460   4.312   4.649   4.148  0.1409 -0.4037 -0.4340
    1OL     C1611461   4.400   4.693   4.336 -0.4201  0.3209  0.4540
    1OL     H6R11462   4.358   4.792   4.353 -1.3914  0.3008 -1.5760
    1OL     H6S11463   4.504   4.697   4.370  0.1702  0.6651 -1.3212
    1OL     C1711464   4.329   4.566   4.399  0.6719  0.5158 -0.0838
    1OL     H7R11465   4.239   4.529   4.350  2.6237 -3.2530 -1.2012
    1OL     H7S11466   4.303   4.599   4.500 -1.5006 -2.5046  0.5005
    1OL     C1811467   4.419   4.448   4.422 -0.2340  0.2264 -0.3130
    1OL     H8R11468   4.442   4.404   4.325 -0.3397 -0.0684 -0.2051
    1OL     H8S11469   4.363   4.365   4.466  1.3546  0.0038  1.4479
    1OL     C1911470   4.552   4.480   4.491  0.4599  0.1944 -0.1905
    1OL     H9R11471   4.612   4.559   4.448  0.2665  0.9707  0.9226
    1OL    C11011472   4.595   4.420   4.604  0.0426  0.3246  0.5317
    1OL    H10R11473   4.684   4.463   4.649 -0.8543  0.9594  1.7473
    1OL    C11111474   4.536   4.308   4.688 -0.1897 -0.2913 -0.7286
    1OL    H11R11475   4.614   4.241   4.726  0.0747  1.1057  1.3704
    1OL    H11S11476   4.467   4.246   4.632  0.2768 -1.4130 -0.0901
    1OL    C11211477   4.460   4.369   4.811 -0.4508 -0.1816 -0.3824
    1OL    H12R11478   4.390   4.293   4.846  1.1969 -1.3293  0.5710
    1OL    H12S11479   4.417   4.459   4.768  2.9831  1.2388 -1.1945
    1OL    C11311480   4.533   4.427   4.935  0.0041 -0.1431 -0.5554
    1OL    H13R11481   4.601   4.510   4.912  1.9646 -0.9890  1.7836
    1OL    H13S11482   4.598   4.352   4.980 -1.0019 -0.4373  0.4438
    1OL    C11411483   4.452   4.471   5.059  0.0608 -0.0621 -0.2860
    1OL    H14R11484   4.405   4.383   5.103  1.6158 -0.6424  0.2652
    1OL    H14S11485   4.359   4.524   5.034 -1.8681 -2.4679  1.3351
    1OL    C11511486   4.532   4.548   5.166  0.4643  0.2170 -0.6275
    1OL    H15R11487   4.554   4.642   5.117  0.4735  1.4576  1.6050
    1OL    H15S11488   4.620   4.495   5.203  0.3425 -1.4776 -2.5905
    1OL    C11611489   4.452   4.575   5.299 -0.6326 -0.3189 -0.4964
    1OL    H16R11490   4.370   4.643   5.277  1.3667  2.0105 -1.0313
    1OL    H16S11491   4.510   4.633   5.371  0.2637 -1.4743 -0.2523
    1OL    C11711492   4.393   4.450   5.362  0.0753  0.1659  0.6324
    1OL    H17R11493   4.471   4.379   5.386  0.8124  0.8355  0.2725
    1OL    H17S11494   4.321   4.408   5.292 -0.0286  2.7523 -0.9767
    1OL    C11811495   4.325   4.483   5.498 -0.1154 -0.1034  0.7715
    1OL    H18R11496   4.262   4.572   5.496  1.5495  1.1192  0.0425
    1OL    H18S11497   4.394   4.491   5.582  0.6307 -4.9581  0.9058
    1OL    H18T11498   4.256   4.401   5.518  0.7364 -1.5543 -1.7931
    1PA    C11611499   1.090   0.020   4.754  0.3471 -0.4201  0.3258
    1PA    H16R11500   1.016   0.030   4.833  0.7543 -1.8763  0.9335
    1PA    H16S11501   1.153   0.108   4.743  2.4136 -1.9879 -1.4757
    1PA    H16T11502   1.153  -0.067   4.778  2.4799  0.7655 -0.6764
    1PA    C11511503   1.029  -0.009   4.615  0.1501  0.5061 -0.6230
    1PA    H15R11504   1.088  -0.070   4.547 -0.7517  1.3703 -2.2503
    1PA    H15S11505   0.941  -0.074   4.619 -0.0393  0.6105 -2.3606
    1PA    C11411506   1.000   0.105   4.522 -0.4652 -0.4504 -0.0641
    1PA    H14R11507   0.935   0.178   4.571 -3.8507 -1.8887 -1.9972
    1PA    H14S11508   1.096   0.153   4.501 -0.6009  0.0152  0.3660
    1PA    C11311509   0.929   0.073   4.392  0.2266  0.7762  0.0149
    1PA    H13R11510   1.005   0.021   4.333  1.7016  1.0352  1.6165
    1PA    H13S11511   0.838   0.017   4.411 -0.1151  1.4921  0.5346
    1PA    C11211512   0.892   0.191   4.303 -0.3733  0.1480  0.7651
    1PA    H12R11513   0.829   0.266   4.350 -1.6282  1.4187 -2.6589
    1PA    H12S11514   0.985   0.236   4.267  1.2948 -2.4580  1.5438
    1PA    C11111515   0.810   0.148   4.182  0.6033 -0.2014 -0.6126
    1PA    H11R11516   0.869   0.065   4.143 -0.7022 -0.7702 -1.4443
    1PA    H11S11517   0.710   0.115   4.211  0.0910  1.6188 -0.1666
    1PA    C11011518   0.793   0.264   4.076  0.2772  0.5631 -0.3109
    1PA    H10R11519   0.892   0.307   4.059  0.5008  0.6475  1.0848
    1PA    H10S11520   0.756   0.215   3.986 -2.7717 -0.5052  1.3869
    1PA     C1911521   0.695   0.372   4.121 -0.3991  0.3530  0.0945
    1PA     H9R11522   0.594   0.335   4.143 -0.5858  0.8819  0.1459
    1PA     H9S11523   0.743   0.418   4.207 -2.1586 -1.5616  2.2411
    1PA     C1811524   0.682   0.477   4.001  0.4951  0.0064 -0.1632
    1PA     H8R11525   0.628   0.564   4.037  1.1162  0.8420 -1.1719
    1PA     H8S11526   0.780   0.518   3.977  0.5975 -0.2816 -0.2415
    1PA     C1711527   0.623   0.431   3.868 -0.0221 -0.3090 -0.2072
    1PA     H7R11528   0.598   0.520   3.810  0.7326  0.5251  0.7311
    1PA     H7S11529   0.681   0.357   3.812 -0.5674  1.0773 -2.7760
    1PA     C1611530   0.481   0.370   3.890 -1.0810  0.5258 -0.5556
    1PA     H6R11531   0.509   0.271   3.926 -0.7538  0.9271  0.3170
    1PA     H6S11532   0.432   0.420   3.974 -0.3235  0.0334  0.1943
    1PA     C1511533   0.383   0.363   3.772  0.2201  0.1855 -0.0616
    1PA     H5R11534   0.373   0.462   3.725  2.2379 -0.0445 -1.0718
    1PA     H5S11535   0.432   0.299   3.699  0.2399 -0.8960  0.8682
    1PA     C1411536   0.245   0.308   3.814  0.2128  0.5333  0.4039
    1PA     H4R11537   0.258   0.217   3.872 -0.9439 -1.0726 -1.7194
    1PA     H4S11538   0.189   0.382   3.872  0.3536  1.4986 -0.6531
    1PA     C1311539   0.152   0.262   3.695 -0.0873  0.7118  0.2324
    1PA     H3R11540   0.193   0.168   3.657  2.6200  0.4552  3.4239
    1PA     H3S11541   0.053   0.242   3.738  0.1498  0.6362  0.7483
    1PA     C1211542   0.138   0.357   3.568 -0.0182  0.1069 -0.0372
    1PA     H2R11543   0.236   0.388   3.531  1.4990 -4.5768 -0.6002
    1PA     H2S11544   0.088   0.303   3.487 -1.7958  3.0686 -1.0987
    1PC     C1111545   0.053   0.484   3.600  0.0221  0.3551  0.0543
    1PC     O1211546   0.030   0.526   3.713 -0.1637  0.0625  0.1917
    1PC     O1111547  -0.003   0.531   3.490 -0.1381 -0.6291  0.4923
    1PC      C111548  -0.058   0.667   3.478 -0.1684  0.2868 -0.1512
    1PC      HR11549  -0.116   0.670   3.385  1.5174 -1.2057 -1.3243
    1PC      HS11550  -0.113   0.674   3.572  0.5980 -4.9165  0.9733
    1PC      C211551   0.044   0.785   3.464 -0.3420 -0.1240 -0.3222
    1PC      HX11552  -0.010   0.880   3.474  1.4285  1.1625 -2.0722
    1PC      C311553   0.125   0.801   3.336  0.0626 -0.4033 -0.6089
    1PC      HA11554   0.081   0.885   3.282 -0.6373 -1.9093 -2.5173
    1PC      HB11555   0.226   0.824   3.371 -0.5114  0.6465  0.4036
    1PC     O3111556   0.132   0.671   3.249 -0.4713 -0.0273 -0.1648
    1PC     P3111557   0.267   0.615   3.192 -0.2147 -0.0953  0.0647
    1PC     O3211558   0.333   0.562   3.319 -0.2045 -0.0677  0.2530
    1PC     C3111559   0.417   0.645   3.399  0.4104  0.4148 -0.1511
    1PC     H1A11560   0.467   0.724   3.342 -1.1217 -0.0003 -2.2005
    1PC     H1B11561   0.356   0.690   3.478 -0.4935  0.2607 -0.7492
    1PC     C3211562   0.517   0.548   3.467 -0.6645  0.0865  0.0034
    1PC     H2A11563   0.534   0.590   3.566  1.3045 -0.1342 -0.2055
    1PC     H2B11564   0.466   0.453   3.484 -0.8718  0.2225  0.1463
    1PC     N3111565   0.650   0.522   3.404  0.0821 -0.5516  0.3416
    1PC     C3311566   0.733   0.415   3.465 -0.1507  0.2777  0.0560
    1PC     H3A11567   0.828   0.422   3.412  0.2004 -1.3450  0.4210
    1PC     H3B11568   0.752   0.426   3.572  1.3911  0.2239 -0.1865
    1PC     H3C11569   0.684   0.323   3.435 -0.8194  0.6530 -0.0120
    1PC     C3411570   0.629   0.482   3.260 -0.4262 -0.1634  0.9167
    1PC     H4A11571   0.561   0.397   3.250 -0.9607  0.3861 -0.3117
    1PC     H4B11572   0.585   0.568   3.210 -1.3216  1.6701  4.4797
    1PC     H4C11573   0.729   0.463   3.221 -0.2123 -0.2771  1.4959
    1PC     C3511574   0.731   0.642   3.389 -0.4159  0.3430 -0.4649
    1PC     H5A11575   0.760   0.672   3.490 -4.2867 -1.2989  1.3057
    1PC     H5B11576   0.665   0.718   3.347  0.4111  2.6211  2.0182
    1PC     H5C11577   0.822   0.625   3.332 -0.1183  2.8037 -0.8691
    1PC     O3311578   0.246   0.492   3.112 -0.4625 -0.2546 -0.7414
    1PC     O3411579   0.347   0.734   3.141 -0.0450  0.2417  0.1319
    1PC     O2111580   0.136   0.787   3.574  0.2081  0.2001  0.2011
    1PC     C2111581   0.106   0.834   3.692  0.3116 -0.1551  0.4005
    1PC     O2211582  -0.004   0.876   3.723  0.5493  0.2036 -0.3631
    1OL     C1211583   0.225   0.829   3.789  0.1204 -0.2387  0.1022
    1OL     H2R11584   0.258   0.933   3.798  0.6640 -0.3924 -0.0415
    1OL     H2S11585   0.300   0.773   3.733 -1.3373 -1.2740 -0.8818
    1OL     C1311586   0.199   0.765   3.922  1.1314 -0.2888 -0.5247
    1OL     H3R11587   0.156   0.667   3.902 -0.2571 -0.0024  0.8134
    1OL     H3S11588   0.128   0.821   3.983  0.1343 -1.3625 -0.6569
    1OL     C1411589   0.334   0.746   4.004  0.1367 -0.8811  0.1332
    1OL     H4R11590   0.415   0.702   3.945  0.5600 -1.1616  0.9052
    1OL     H4S11591   0.309   0.674   4.082  0.8138 -2.1940 -0.8111
    1OL     C1511592   0.388   0.869   4.075  0.4565 -0.4960 -0.0407
    1OL     H5R11593   0.315   0.900   4.150  2.0030  1.0582  0.8919
    1OL     H5S11594   0.389   0.946   3.998 -0.9198 -0.7948 -0.3832
    1OL     C1611595   0.521   0.851   4.148  0.1148 -0.0776  0.6306
    1OL     H6R11596   0.552   0.942   4.200 -1.4761  0.4839  0.6317
    1OL     H6S11597   0.602   0.816   4.084 -0.2317 -0.3429  0.3342
    1OL     C1711598   0.512   0.746   4.255  0.0422  0.3913 -0.2736
    1OL     H7R11599   0.471   0.655   4.210 -0.3348  0.2259  0.3925
    1OL     H7S11600   0.439   0.766   4.333 -1.3474 -2.0347 -0.8316
    1OL     C1811601   0.649   0.729   4.315 -0.6061  0.1599 -0.3431
    1OL     H8R11602   0.688   0.819   4.363 -0.6542 -0.6194  1.2288
    1OL     H8S11603   0.712   0.692   4.234 -1.9893 -1.9665 -0.5301
    1OL     C1911604   0.653   0.619   4.419 -0.0524  0.0003 -0.4284
    1OL     H9R11605   0.706   0.529   4.390  0.4476 -1.3273  3.8969
    1OL    C11011606   0.622   0.624   4.548  0.2794  0.1525  0.5355
    1OL    H10R11607   0.637   0.531   4.603 -1.2722 -0.4330  0.0264
    1OL    C11111608   0.554   0.732   4.623 -0.0426  0.1088 -0.2977
    1OL    H11R11609   0.448   0.705   4.616 -0.0439  0.1284 -0.3593
    1OL    H11S11610   0.576   0.830   4.578  1.7467  0.5735  1.4744
    1OL    C11211611   0.592   0.727   4.771 -0.6180  0.2678 -0.5745
    1OL    H12R11612   0.574   0.622   4.796 -0.5553  0.0941 -1.2575
    1OL    H12S11613   0.526   0.783   4.837  1.1600 -0.6188  2.1362
    1OL    C11311614   0.742   0.760   4.809  0.0205  0.4621 -0.3169
    1OL    H13R11615   0.763   0.864   4.785 -1.5854  0.2890 -2.8305
    1OL    H13S11616   0.806   0.694   4.749 -2.9633 -1.6567 -1.4099
    1OL    C11411617   0.785   0.738   4.960  0.1951  0.3723 -0.2788
    1OL    H14R11618   0.833   0.640   4.960 -0.1984 -0.0024  3.7245
    1OL    H14S11619   0.703   0.743   5.032 -0.0484 -1.4440 -0.3750
    1OL    C11511620   0.890   0.843   5.013  0.1187  0.9942  0.7236
    1OL    H15R11621   0.842   0.942   5.011 -1.7534  0.1152 -0.2087
    1OL    H15S11622   0.980   0.836   4.951 -0.6428  0.4201 -0.3360
    1OL    C11611623   0.933   0.813   5.161  0.2041 -0.2368  0.7997
    1OL    H16R11624   0.990   0.719   5.169 -1.5830 -1.8398 -2.9564
    1OL    H16S11625   0.840   0.800   5.215 -0.5208 -0.3745 -0.4481
    1OL    C11711626   0.995   0.934   5.231  0.6502  0.6838  0.2453
    1OL    H17R11627   0.924   1.016   5.214  0.0484  0.0071 -0.5882
    1OL    H17S11628   1.095   0.953   5.190  1.8870 -0.6735  2.4688
    1OL    C11811629   1.004   0.908   5.380 -0.1832 -0.1660  0.9153
    1OL    H18R11630   0.906   0.899   5.425 -0.4534  1.9681  0.8754
    1OL    H18S11631   1.057   0.994   5.424  0.2696 -0.0188  0.1063
    1OL    H18T11632   1.066   0.820   5.396 -2.3816 -1.9550  0.0604
    1PA    C11611633   1.462   5.096   5.170  0.4681 -0.1547  0.2438
    1PA    H16R11634   1.570   5.111   5.160  0.6855 -1.2599  0.8013
    1PA    H16S11635   1.430   5.101   5.274  0.0558  0.9438  0.0757
    1PA    H16T11636   1.421   5.189   5.131  0.4913 -0.3446 -0.2523
    1PA    C11511637   1.431   4.957   5.103  0.1992  0.0592  0.1531
    1PA    H15R11638   1.492   4.888   5.161  0.3207  0.7956  0.9340
    1PA    H15S11639   1.329   4.922   5.122  0.9097 -2.0023  0.4128
    1PA    C11411640   1.473   4.965   4.959  0.2702 -0.0011 -0.7188
    1PA    H14R11641   1.421   5.050   4.914  3.1890  2.8527  0.8432
    1PA    H14S11642   1.576   5.003   4.951 -0.1899  1.2676 -0.8708
    1PA    C11311643   1.467   4.831   4.886  0.0793  1.0361 -0.2190
    1PA    H13R11644   1.535   4.821   4.801 -2.2231  2.7007 -2.3974
    1PA    H13S11645   1.497   4.751   4.954 -1.0791  1.1916  0.4864
    1PA    C11211646   1.323   4.796   4.827  0.6339  1.0771  0.7479
    1PA    H12R11647   1.253   4.783   4.909 -2.2854  1.2641 -1.5576
    1PA    H12S11648   1.290   4.885   4.773  0.8151  0.0033 -1.2284
    1PA    C11111649   1.299   4.680   4.730 -0.6203  0.4954  0.1195
    1PA    H11R11650   1.371   4.671   4.648 -1.6750 -2.8981 -0.5831
    1PA    H11S11651   1.321   4.589   4.786 -0.9530  0.3543  0.0209
    1PA    C11011652   1.159   4.675   4.659 -0.4081  0.0417 -0.2726
    1PA    H10R11653   1.150   4.581   4.605 -1.9881 -0.1129  0.2246
    1PA    H10S11654   1.081   4.698   4.731 -0.4915  2.3904 -1.0008
    1PA     C1911655   1.139   4.788   4.556  0.2831  0.7719 -0.1631
    1PA     H9R11656   1.126   4.880   4.614 -1.9182 -0.3692  1.2623
    1PA     H9S11657   1.223   4.794   4.486  0.0981  1.0156 -0.3663
    1PA     C1811658   1.012   4.756   4.476  0.2625 -0.9856 -0.3744
    1PA     H8R11659   1.020   4.653   4.441  2.9410 -1.3981  1.1649
    1PA     H8S11660   0.935   4.760   4.554 -0.4938  0.9539 -1.1527
    1PA     C1711661   0.968   4.845   4.359 -0.4306 -0.5522  0.1182
    1PA     H7R11662   0.972   4.950   4.389 -4.0653  0.3648 -1.9258
    1PA     H7S11663   1.042   4.834   4.279 -1.3180 -3.0819 -0.4386
    1PA     C1611664   0.823   4.813   4.307 -0.1007 -0.1658  0.0339
    1PA     H6R11665   0.797   4.707   4.306 -0.5715 -0.0504 -0.2098
    1PA     H6S11666   0.749   4.851   4.377 -0.8651  0.2834 -1.0035
    1PA     C1511667   0.788   4.871   4.164  0.8603  0.2027 -0.0788
    1PA     H5R11668   0.707   4.815   4.117  0.0904  0.9969  0.2802
    1PA     H5S11669   0.756   4.976   4.169 -2.8929 -0.7356 -1.3655
    1PA     C1411670   0.897   4.862   4.056  0.0021 -0.3399 -0.2936
    1PA     H4R11671   0.994   4.892   4.095  0.0076  0.7851 -1.1361
    1PA     H4S11672   0.905   4.758   4.024 -2.3363 -0.7370  0.1718
    1PA     C1311673   0.870   4.946   3.929 -0.3785 -0.4707 -0.5140
    1PA     H3R11674   0.859   5.049   3.963  1.4147 -0.6373  0.6816
    1PA     H3S11675   0.964   4.940   3.874  0.8078 -0.3770  1.4044
    1PA     C1211676   0.749   4.909   3.847  0.3293  0.4748  0.4212
    1PA     H2R11677   0.772   4.812   3.804 -0.0222  1.6154 -2.6202
    1PA     H2S11678   0.654   4.899   3.901 -0.7315 -0.2773 -1.4852
    1PC     C1111679   0.725   5.013   3.732 -0.4082  0.2990 -0.4198
    1PC     O1211680   0.655   5.108   3.727  0.6450  0.4601 -0.4434
    1PC     O1111681   0.811   4.985   3.632  0.0269 -0.4725  0.0924
    1PC      C111682   0.819   5.079   3.514  0.1447  0.2811 -0.3018
    1PC      HR11683   0.863   5.020   3.433  0.3493 -0.1996  0.1521
    1PC      HS11684   0.727   5.132   3.486 -0.1648  0.7004  1.3803
    1PC      C211685   0.923   5.189   3.552  0.8098  0.5031  0.0023
    1PC      HX11686   0.895   5.227   3.650 -1.1390 -0.5039 -0.1145
    1PC      C311687   0.931   5.302   3.442  0.1412  0.7192  0.1330
    1PC      HA11688   0.843   5.367   3.447 -0.5778 -0.0553 -1.6291
    1PC      HB11689   1.014   5.372   3.444  0.5020  0.3197 -0.6478
    1PC     O3111690   0.918   5.253   3.305  0.4234 -0.3545 -0.5924
    1PC     P3111691   0.786   5.271   3.213  0.0372  0.4328 -0.1630
    1PC     O3211692   0.807   5.428   3.163 -0.2496 -0.1004 -0.4983
    1PC     C3111693   0.902   5.461   3.063  0.2851 -0.1776 -0.1782
    1PC     H1A11694   0.933   5.563   3.087 -3.3161  1.0670 -0.1619
    1PC     H1B11695   0.986   5.393   3.078 -1.4026 -2.3554 -0.0132
    1PC     C3211696   0.836   5.448   2.920  0.2684 -0.2857 -0.5625
    1PC     H2A11697   0.799   5.347   2.898  0.5376 -0.5234  0.0545
    1PC     H2B11698   0.747   5.510   2.916  0.9831  0.7943 -0.0995
    1PC     N3111699   0.923   5.485   2.805 -0.0179 -0.3805 -0.0383
    1PC     C3311700   1.065   5.419   2.819 -0.1809  0.6918  0.2439
    1PC     H3A11701   1.115   5.428   2.722 -0.7803  0.2817 -0.1148
    1PC     H3B11702   1.115   5.472   2.899 -1.7339  2.7325 -0.0436
    1PC     H3C11703   1.052   5.314   2.845  0.8714  0.8994  1.6814
    1PC     C3411704   0.854   5.441   2.677  0.0534  0.4138  0.2647
    1PC     H4A11705   0.828   5.335   2.689  0.3700  0.0872 -1.5320
    1PC     H4B11706   0.763   5.500   2.669 -0.4215 -0.1755  1.1140
    1PC     H4C11707   0.919   5.460   2.591  0.5776 -2.7235 -0.1651
    1PC     C3511708   0.949   5.631   2.791  0.6351 -0.2153 -0.3628
    1PC     H5A11709   1.011   5.663   2.875  2.9207  0.7092 -2.2801
    1PC     H5B11710   0.852   5.680   2.791 -0.2853 -1.9448 -0.4018
    1PC     H5C11711   1.000   5.648   2.696 -1.4680 -0.2014 -1.5313
    1PC     O3311712   0.790   5.183   3.094  0.4831  0.5321  0.4695
    1PC     O3411713   0.668   5.268   3.301 -0.5003 -0.1485  0.5526
    1PC     O2111714   1.049   5.128   3.578  0.3190 -0.2447  0.1021
    1PC     C2111715   1.145   5.211   3.619 -0.6713  0.2919 -0.3371
    1PC     O2211716   1.123   5.330   3.654 -0.0362 -0.3669  0.1214
    1OL     C1211717   1.272   5.145   3.634  0.0561  0.5105 -0.2602
    1OL     H2R11718   1.337   5.220   3.680 -0.7718  0.0037  1.8636
    1OL     H2S11719   1.318   5.119   3.538  1.7522  0.2763  0.5682
    1OL     C1311720   1.263   5.034   3.751 -0.8132 -0.0427  0.5654
    1OL     H3R11721   1.356   4.975   3.751 -1.5178 -1.1889  1.4255
    1OL     H3S11722   1.193   4.954   3.727  1.0945 -1.3857 -0.9217
    1OL     C1411723   1.226   5.067   3.898  0.2796  0.1890 -0.5004
    1OL     H4R11724   1.193   4.981   3.956  1.8130  1.0462  1.7919
    1OL     H4S11725   1.142   5.137   3.892 -0.1229  0.1789  3.0004
    1OL     C1511726   1.330   5.153   3.980  0.1549  0.4940  0.0033
    1OL     H5R11727   1.366   5.241   3.927 -3.0188  1.5524 -0.5844
    1OL     H5S11728   1.409   5.082   4.006 -0.5334 -0.2137  0.1986
    1OL     C1611729   1.280   5.192   4.122  0.5726 -0.6085 -0.3413
    1OL     H6R11730   1.266   5.102   4.183  0.3408 -0.0256  0.4827
    1OL     H6S11731   1.183   5.240   4.114  1.2430  0.9269  0.2732
    1OL     C1711732   1.376   5.293   4.178  0.7121  0.2645  0.4908
    1OL     H7R11733   1.457   5.314   4.107 -0.0491 -1.3024 -0.8939
    1OL     H7S11734   1.417   5.262   4.275  0.0557 -4.2614 -0.4979
    1OL     C1811735   1.309   5.431   4.206 -0.3030 -0.6415  0.4064
    1OL     H8R11736   1.222   5.416   4.270 -1.0439 -0.5221 -0.5337
    1OL     H8S11737   1.267   5.465   4.111 -1.8258  0.5193  1.4380
    1OL     C1911738   1.416   5.526   4.260  0.2170  0.2404  0.2632
    1OL     H9R11739   1.508   5.542   4.204  1.0237  0.3400  1.5866
    1OL    C11011740   1.417   5.566   4.384 -0.0250 -0.5389 -0.2482
    1OL    H10R11741   1.506   5.612   4.426 -1.4641  0.9625  1.3215
    1OL    C11111742   1.303   5.573   4.481  0.2852  0.6443  0.0093
    1OL    H11R11743   1.298   5.489   4.549 -2.0224 -0.6420 -1.6024
    1OL    H11S11744   1.217   5.562   4.414  0.0930 -0.9848  0.5022
    1OL    C11211745   1.302   5.701   4.568 -0.3659  0.7220 -0.1381
    1OL    H12R11746   1.334   5.788   4.510  2.3180  1.2322  1.9015
    1OL    H12S11747   1.378   5.686   4.645 -0.7406 -1.8061 -0.1987
    1OL    C11311748   1.171   5.718   4.639  0.7068  0.4571  0.4520
    1OL    H13R11749   1.180   5.792   4.719  1.2957 -2.4848  3.3511
    1OL    H13S11750   1.145   5.641   4.713  2.0844 -0.7521 -0.2633
    1OL    C11411751   1.036   5.727   4.556 -0.2822 -0.5749  0.7941
    1OL    H14R11752   0.951   5.752   4.620 -0.6759 -2.1076  0.9266
    1OL    H14S11753   1.016   5.630   4.511 -1.9664  0.2591 -0.3595
    1OL    C11511754   1.034   5.830   4.439 -0.2628  0.5087 -0.4028
    1OL    H15R11755   0.952   5.796   4.375  1.4760 -3.2779 -0.8917
    1OL    H15S11756   1.122   5.810   4.378 -0.2335  3.4563 -1.4833
    1OL    C11611757   1.019   5.980   4.469 -0.0659 -0.0407  0.0222
    1OL    H16R11758   0.913   6.007   4.478  0.1673  0.5543  1.1809
    1OL    H16S11759   1.048   6.026   4.375 -0.7442 -2.1156 -1.2803
    1OL    C11711760   1.086   6.036   4.590 -0.7782  0.2755 -0.3332
    1OL    H17R11761   1.195   6.032   4.581 -0.4388  2.8250  1.7173
    1OL    H17S11762   1.062   5.987   4.684 -0.9975  1.2740  0.1449
    1OL    C11811763   1.048   6.181   4.604  0.6319 -0.6099 -0.0626
    1OL    H18R11764   1.051   6.245   4.515 -1.0551 -0.2180  0.1193
    1OL    H18S11765   1.107   6.229   4.682  1.8430  0.8912 -1.8118
    1OL    H18T11766   0.942   6.182   4.629  0.7021 -0.9915  0.2527
    1PA    C11611767   0.917   0.349   4.948  0.0114  0.4611 -0.3371
    1PA    H16R11768   0.962   0.282   5.022  0.8287  0.0073 -1.2334
    1PA    H16S11769   0.963   0.445   4.974  0.3396  0.1481  0.2726
    1PA    H16T11770   0.942   0.320   4.846  2.6802  0.1195  0.3172
    1PA    C11511771   0.765   0.356   4.959  0.3552  0.0711 -0.0657
    1PA    H15R11772   0.738   0.396   5.058 -0.8886 -1.6017  0.3100
    1PA    H15S11773   0.723   0.434   4.895  1.7851  0.1604 -0.9268
    1PA    C11411774   0.702   0.220   4.939 -0.3720 -0.1541  0.2271
    1PA    H14R11775   0.760   0.171   4.861  0.6344  0.4742  0.5571
    1PA    H14S11776   0.726   0.166   5.031  0.4704  0.6313  0.4814
    1PA    C11311777   0.549   0.229   4.931 -0.8240 -0.0697  0.0931
    1PA    H13R11778   0.503   0.131   4.920 -1.8197  0.4130 -0.1532
    1PA    H13S11779   0.509   0.266   5.025  0.4364  2.1188 -0.1772
    1PA    C11211780   0.481   0.313   4.820 -0.6131 -0.4275  0.0711
    1PA    H12R11781   0.372   0.307   4.825 -0.6648  0.9738  1.2165
    1PA    H12S11782   0.512   0.418   4.821  0.9178 -0.8620  0.2561
    1PA    C11111783   0.520   0.251   4.685 -1.0397 -0.1511  0.3614
    1PA    H11R11784   0.613   0.274   4.633 -2.1992  1.1758 -1.2319
    1PA    H11S11785   0.522   0.144   4.708 -0.2594 -0.7021 -1.9274
    1PA    C11011786   0.405   0.269   4.588 -0.6435  0.4414  0.3361
    1PA    H10R11787   0.319   0.215   4.629  0.2151  1.4578  3.8131
    1PA    H10S11788   0.376   0.375   4.583  0.6375  0.8251  0.6437
    1PA     C1911789   0.443   0.232   4.439  0.1162  0.0476 -0.6916
    1PA     H9R11790   0.470   0.327   4.392  0.5898  0.3677  0.2000
    1PA     H9S11791   0.533   0.169   4.445 -1.0429 -1.5369  3.3535
    1PA     C1811792   0.338   0.163   4.362  0.4596 -0.3104 -0.4285
    1PA     H8R11793   0.289   0.080   4.413 -0.9164  1.0442  0.5682
    1PA     H8S11794   0.268   0.244   4.340  1.1641  1.2157  2.3516
    1PA     C1711795   0.399   0.109   4.232  0.1923 -0.0495 -0.4273
    1PA     H7R11796   0.468   0.179   4.184  1.2445  0.1725  1.3159
    1PA     H7S11797   0.452   0.020   4.268 -2.3124 -0.7193  2.0103
    1PA     C1611798   0.289   0.055   4.140  0.5886 -0.5330 -0.3222
    1PA     H6R11799   0.202   0.013   4.192  0.6222 -1.5331 -1.0563
    1PA     H6S11800   0.243   0.142   4.093  2.0491  0.7396  0.5022
    1PA     C1511801   0.338  -0.059   4.043 -0.8656  0.1453  0.7117
    1PA     H5R11802   0.424  -0.023   3.986 -1.2135 -1.1518 -0.7127
    1PA     H5S11803   0.369  -0.143   4.105  1.9076 -0.6818 -1.5934
    1PA     C1411804   0.229  -0.099   3.940  0.3259 -0.3612 -0.1886
    1PA     H4R11805   0.144  -0.123   4.004  0.4764 -1.0192 -0.2308
    1PA     H4S11806   0.200  -0.005   3.892  1.4052 -0.5013 -1.1542
    1PA     C1311807   0.256  -0.204   3.841  0.8904  0.1729 -0.1007
    1PA     H3R11808   0.164  -0.215   3.784  0.4928 -2.8478  0.9427
    1PA     H3S11809   0.335  -0.169   3.774 -0.2031  3.1345  0.0200
    1PA     C1211810   0.284  -0.341   3.910  0.4287 -0.7161 -0.1797
    1PA     H2R11811   0.366  -0.332   3.981  1.2696 -0.0772 -1.2047
    1PA     H2S11812   0.192  -0.368   3.963  0.5127  0.5368  0.6573
    1PC     C1111813   0.310  -0.445   3.810  0.0706  0.1705  0.2800
    1PC     O1211814   0.420  -0.479   3.772  0.0170  0.2491  0.4362
    1PC     O1111815   0.196  -0.506   3.772 -0.0991  0.2718 -0.2949
    1PC      C111816   0.203  -0.617   3.680  0.1135  0.1469  0.2293
    1PC      HR11817   0.267  -0.592   3.595  1.7856 -0.1064  1.3646
    1PC      HS11818   0.236  -0.706   3.736  2.5996  1.0338  0.3139
    1PC      C211819   0.065  -0.640   3.605 -0.5486 -0.3751  0.0391
    1PC      HX11820   0.079  -0.724   3.536 -0.4669  0.3396 -0.8241
    1PC      C311821  -0.001  -0.525   3.529 -0.1999  0.3325 -0.2712
    1PC      HA11822  -0.046  -0.459   3.603 -2.0732  0.4848 -1.4721
    1PC      HB11823   0.076  -0.478   3.466 -0.1090 -0.1884 -0.5537
    1PC     O3111824  -0.114  -0.576   3.442 -0.6035  0.0176 -0.3267
    1PC     P3111825  -0.104  -0.598   3.285 -0.2249  0.0042 -0.0082
    1PC     O3211826  -0.114  -0.447   3.243 -1.2472  0.2029 -0.0260
    1PC     C3111827  -0.239  -0.372   3.252  0.3093  0.0360  0.7612
    1PC     H1A11828  -0.311  -0.426   3.190 -0.6019  3.6947 -1.7213
    1PC     H1B11829  -0.275  -0.368   3.355  0.1062 -0.3891  0.7086
    1PC     C3211830  -0.215  -0.241   3.177 -0.0266 -0.2987 -0.5074
    1PC     H2A11831  -0.312  -0.194   3.160  0.8974  1.5656 -0.8613
    1PC     H2B11832  -0.167  -0.166   3.238 -1.6158  0.1320  0.2753
    1PC     N3111833  -0.140  -0.242   3.044 -0.0647  0.4407 -0.2387
    1PC     C3311834   0.011  -0.258   3.066  1.3498 -0.1032  0.7908
    1PC     H3A11835   0.075  -0.251   2.978 -0.5431  0.4504 -0.6010
    1PC     H3B11836   0.035  -0.181   3.140 -3.8904  2.1498  0.5566
    1PC     H3C11837   0.025  -0.346   3.129  0.7480 -0.1662  0.8387
    1PC     C3411838  -0.186  -0.365   2.965 -0.1137  0.4597 -0.0590
    1PC     H4A11839  -0.112  -0.388   2.889  2.3220  1.2317  1.9481
    1PC     H4B11840  -0.195  -0.456   3.024 -1.6342  1.3505  1.1792
    1PC     H4C11841  -0.281  -0.348   2.914  0.1097  1.4198 -0.1654
    1PC     C3511842  -0.171  -0.110   2.980  0.4257  0.3390  0.5463
    1PC     H5A11843  -0.118  -0.113   2.885 -0.2206  0.3915  0.1737
    1PC     H5B11844  -0.132  -0.030   3.043  1.1294 -0.2583  0.8719
    1PC     H5C11845  -0.279  -0.099   2.967  0.3329 -1.3272 -0.3215
    1PC     O3311846   0.036  -0.651   3.265  0.5595  0.3296 -0.5789
    1PC     O3411847  -0.224  -0.672   3.238 -0.2811 -0.4911 -0.0648
    1PC     O2111848  -0.029  -0.673   3.709  0.5985 -0.3358 -0.3128
    1PC     C2111849  -0.021  -0.791   3.772  0.0369  0.4427 -0.6502
    1PC     O2211850   0.058  -0.880   3.750  0.3389 -0.1944 -0.6429
    1OL     C1211851  -0.103  -0.784   3.899 -0.5092  0.5781 -0.0711
    1OL     H2R11852  -0.197  -0.732   3.879  0.7922  2.8182 -0.6718
    1OL     H2S11853  -0.054  -0.714   3.966 -0.9464  0.2931  0.5583
    1OL     C1311854  -0.116  -0.924   3.961 -0.3209  0.0642  0.3103
    1OL     H3R11855  -0.025  -0.952   4.016  0.6019 -2.4446 -2.2441
    1OL     H3S11856  -0.136  -1.005   3.891 -1.5516  0.3104  0.3536
    1OL     C1411857  -0.232  -0.930   4.061  0.6009  0.2504 -0.7450
    1OL     H4R11858  -0.225  -1.026   4.112 -1.8628 -0.4225 -1.5583
    1OL     H4S11859  -0.329  -0.929   4.010 -0.6667  1.9503  1.5179
    1OL     C1511860  -0.243  -0.819   4.174 -0.5055  0.6071  0.1107
    1OL     H5R11861  -0.262  -0.717   4.141  1.3959  0.7666 -0.5675
    1OL     H5S11862  -0.144  -0.816   4.220 -0.6203 -0.3407  0.4450
    1OL     C1611863  -0.347  -0.866   4.275  0.2313  0.1367 -0.9345
    1OL     H6R11864  -0.331  -0.970   4.305 -0.7431 -0.1744 -1.4533
    1OL     H6S11865  -0.443  -0.853   4.225  0.6451  0.1380 -1.7385
    1OL     C1711866  -0.344  -0.780   4.410  0.6874  0.1751  0.1510
    1OL     H7R11867  -0.401  -0.837   4.484 -2.0999  2.1412 -0.3259
    1OL     H7S11868  -0.398  -0.686   4.400 -1.0447 -0.6717  1.0600
    1OL     C1811869  -0.205  -0.769   4.474 -0.0053 -0.3285 -0.2038
    1OL     H8R11870  -0.155  -0.697   4.409  1.2459 -0.3428  0.7141
    1OL     H8S11871  -0.158  -0.867   4.478 -2.8223 -1.8133 -0.6693
    1OL     C1911872  -0.225  -0.702   4.610 -0.0622 -0.4530  0.5542
    1OL     H9R11873  -0.319  -0.729   4.658 -0.5130 -3.4371 -1.7015
    1OL    C11011874  -0.137  -0.626   4.679  0.4319  0.3285 -0.0257
    1OL    H10R11875  -0.167  -0.584   4.774 -0.9001  0.5118 -0.5005
    1OL    C11111876  -0.003  -0.585   4.630 -0.2540  0.3060  0.2185
    1OL    H11R11877   0.001  -0.477   4.611  2.4607  0.4291  1.1171
    1OL    H11S11878   0.021  -0.634   4.535  0.5604 -0.7076  0.9310
    1OL    C11211879   0.120  -0.621   4.724 -0.2080  0.1623 -0.2686
    1OL    H12R11880   0.088  -0.606   4.827 -0.7725  1.0969 -0.5641
    1OL    H12S11881   0.206  -0.560   4.695 -0.7472  0.6919 -0.7713
    1OL    C11311882   0.167  -0.768   4.721 -0.2537 -1.3604  0.3586
    1OL    H13R11883   0.090  -0.838   4.752 -0.2627 -0.6530  2.0636
    1OL    H13S11884   0.248  -0.771   4.794 -0.5091 -0.8322  0.6725
    1OL    C11411885   0.228  -0.798   4.582  0.1694  1.1165 -0.0011
    1OL    H14R11886   0.296  -0.721   4.546  1.6093 -0.3705 -0.5708
    1OL    H14S11887   0.155  -0.801   4.500  1.1881  0.2793 -0.9013
    1OL    C11511888   0.299  -0.932   4.577  0.3302  0.6747 -0.3413
    1OL    H15R11889   0.231  -1.017   4.586  1.9382 -0.4709  2.8335
    1OL    H15S11890   0.356  -0.946   4.670  1.8524  1.2244 -1.1555
    1OL    C11611891   0.390  -0.958   4.453  0.4428 -0.7974 -0.4915
    1OL    H16R11892   0.465  -0.879   4.453 -0.7435  0.3799  0.7803
    1OL    H16S11893   0.326  -0.940   4.366 -4.5201 -1.1673  2.6648
    1OL    C11711894   0.440  -1.099   4.445  0.1793 -0.4219  1.0356
    1OL    H17R11895   0.353  -1.162   4.466 -0.1719 -0.8878 -1.4957
    1OL    H17S11896   0.515  -1.117   4.522  0.0272  0.2349  1.3428
    1OL    C11811897   0.502  -1.143   4.306 -0.3662  0.8147 -0.7087
    1OL    H18R11898   0.437  -1.138   4.218 -0.8689  0.4716 -0.3641
    1OL    H18S11899   0.542  -1.244   4.317 -0.3221  0.9220  0.1922
    1OL    H18T11900   0.591  -1.089   4.274 -1.0801  1.4500 -1.6905
    7Na+    Na+11901   3.966   2.739   1.315 -0.0045  0.5856  0.4476
    8Na+    Na+11902   0.146   1.496  10.210 -0.2263 -0.0681 -0.2296
    9Na+    Na+11903   0.992   1.322   7.263 -0.0375 -0.3348  0.1916
   10Na+    Na+11904   2.609   3.871   8.868 -0.1288 -0.3383 -0.8352
   11Na+    Na+11905   3.971   3.501   3.205  0.3668 -0.1422  0.0618
   12Na+    Na+11906   3.314   4.422   9.220 -0.1436  0.1125 -0.7454
   13Na+    Na+11907   1.469   4.038   0.305 -0.1243 -0.1014 -0.1582
   14Na+    Na+11908   3.398   4.760   9.651 -0.2434 -0.2066 -0.1968
   15Na+    Na+11909   3.622   0.741   0.903 -0.0077 -0.4979 -0.2285
   16Na+    Na+11910   2.991   0.315   2.388 -0.0029 -0.0007  0.3839
   17Na+    Na+11911   2.984   4.821   3.283  0.3640  0.2559 -0.1732
   18Na+    Na+11912   0.100   0.382   2.671 -0.5255  0.3562  0.2368
   19Na+    Na+11913   0.596   1.032   9.482 -0.1924  0.2413 -0.1803
   20Na+    Na+11914   0.663   4.474   8.216 -0.6474  0.2626 -0.1246
   21Cl-    Cl-11915   0.972   4.330   8.878  0.1918 -0.0928  0.1578
   22Cl-    Cl-11916   1.304   1.742   1.347  0.0887 -0.0034 -0.1799
   23Cl-    Cl-11917   2.804   3.945   2.392 -0.0378  0.0861 -0.5406
   24Cl-    Cl-11918   2.489   1.284   2.534  0.3974  0.0172 -0.2548
   25Cl-    Cl-11919   3.189   0.957  10.158 -0.0349  0.1735 -0.3203
   26Cl-    Cl-11920   0.892   1.039   1.115 -0.2917 -0.2185  0.2798
   27Cl-    Cl-11921   1.801   2.422   2.416  0.0431  0.4373  0.2139
   28Cl-    Cl-11922   1.005   0.595   0.517 -0.1703 -0.0668 -0.0508
   29Cl-    Cl-11923   4.692   4.157   1.161  0.1232  0.0024 -0.1030
   30Cl-    Cl-11924   0.633   1.624   9.787 -0.4891  0.1043  0.3668
   31Cl-    Cl-11925   4.258   0.218   2.408  0.1985  0.0653  0.2509
   32Cl-    Cl-11926   4.503   1.613   8.611 -0.0012  0.2424 -0.2755
   33Cl-    Cl-11927   3.435   2.314   9.444  0.3880 -0.0376 -0.2255
   34Cl-    Cl-11928   4.161   0.773   1.202  0.1244  0.3265  0.0377
   35Cl-    Cl-11929   0.367   1.092   2.101  0.2382 -0.3010 -0.2516
   36Cl-    Cl-11930   5.205   3.218   2.240 -0.4607 -0.4805  0.1330
   37Cl-    Cl-11931   2.895   1.054   9.001 -0.3005  0.2352 -0.0006
   38TP3      O11932   0.828   1.569   8.125  0.4519 -0.2473  0.5695
   38TP3     H111933   0.887   1.621   8.070  1.3597 -1.3302  0.4692
   38TP3     H211934   0.822   1.618   8.207  0.0418  0.7827 -0.0749
   39TP3      O11935   3.876   0.261   0.183  0.0103 -0.0544  0.1300
   39TP3     H111936   3.895   0.327   0.250 -0.3313 -2.0884  2.3558
   39TP3     H211937   3.817   0.199   0.226 -0.3173 -1.4413 -2.1171
   40TP3      O11938   1.644   2.148   0.248 -0.4034 -0.3344 -0.1518
   40TP3     H111939   1.666   2.177   0.160  0.6251 -2.2901 -0.5913
   40TP3     H211940   1.726   2.159   0.298 -0.9607  0.7138  0.5750
   41TP3      O11941   1.750   3.116   7.404  0.2469 -0.6195  0.1043
   41TP3     H111942   1.733   3.164   7.485 -0.1424 -0.2361 -0.2041
   41TP3     H211943   1.802   3.040   7.432  1.9405  0.6138  0.4394
   42TP3      O11944   3.729   1.942   0.722 -0.0997 -0.5453 -0.5997
   42TP3     H111945   3.758   1.913   0.808  0.2762  1.0156 -0.1614
   42TP3     H211946   3.806   1.983   0.683 -0.1598 -1.5809 -1.8532
   43TP3      O11947   3.822   3.864   9.124 -0.2822 -0.5767 -0.2419
   43TP3     H111948   3.889   3.870   9.192  0.5189 -1.0104 -0.9708
   43TP3     H211949   3.782   3.778   9.138  0.7993 -1.2567 -1.1118
   44TP3      O11950   3.101   0.409   2.187  0.6492  0.0527  0.3243
   44TP3     H111951   3.062   0.437   2.105 -0.8632  0.7632  1.2513
   44TP3     H211952   3.196   0.414   2.171  0.4847  3.3349 -0.3831
   45TP3      O11953   2.693   0.584   8.035  0.2331  0.1092  0.2361
   45TP3     H111954   2.727   0.628   7.957  0.4731 -0.5805 -0.0478
   45TP3     H211955   2.770   0.541   8.073 -0.1130 -0.5657  0.1815
   46TP3      O11956   2.091   2.860   8.449  0.0593  0.0445  0.1979
   46TP3     H111957   2.018   2.820   8.496  1.3971 -1.3767  1.1448
   46TP3     H211958   2.155   2.790   8.438  1.7608  1.4752  0.3454
   47TP3      O11959   2.863   0.660   1.350  0.0295 -0.0054 -0.2354
   47TP3     H111960   2.798   0.625   1.290  0.4932 -1.9862  0.3450
   47TP3     H211961   2.819   0.733   1.394 -1.5082 -0.7671 -0.4519
   48TP3      O11962   1.285   1.014   8.918 -0.3303 -0.4506  0.0378
   48TP3     H111963   1.190   1.027   8.923 -0.1343  0.8033  1.4194
   48TP3     H211964   1.307   0.973   9.002  0.2989 -1.1314 -0.4563
   49TP3      O11965   4.352   2.047   2.229  0.0869  0.1565 -0.2145
   49TP3     H111966   4.399   1.977   2.274  0.4928 -0.2643 -1.2811
   49TP3     H211967   4.396   2.127   2.256  0.2249 -0.0715  0.2536
   50TP3      O11968   1.757   1.075   2.868 -0.1019  0.6613 -0.2773
   50TP3     H111969   1.805   0.994   2.853 -0.2493  0.8162 -1.7434
   50TP3     H211970   1.803   1.118   2.939  0.2140 -0.5174  0.2529
   51TP3      O11971   5.183   0.328   7.584 -0.0468  0.1772  0.4200
   51TP3     H111972   5.129   0.356   7.510 -0.3331 -0.4447  0.3883
   51TP3     H211973   5.124   0.277   7.639 -0.0171  1.2286  1.4585
   52TP3      O11974   3.829   0.537   7.969 -0.4440  0.4162 -0.1486
   52TP3     H111975   3.740   0.571   7.961 -0.6149 -0.3459 -1.9506
   52TP3     H211976   3.873   0.598   8.028 -2.2562  0.5777  1.1096
   53TP3      O11977   0.007   2.784   9.786 -0.0870  0.3572  0.2115
   53TP3     H111978  -0.066   2.845   9.773  1.1111  1.8445  0.2161
   53TP3     H211979   0.012   2.735   9.704 -0.6249  0.7615 -0.0686
   54TP3      O11980   1.747   4.190   2.153 -0.2447 -0.2746 -0.2964
   54TP3     H111981   1.681   4.252   2.182 -1.6323 -1.6221 -0.4385
   54TP3     H211982   1.740   4.191   2.057 -2.0896 -2.4336 -0.2631
   55TP3      O11983   0.654   0.631   9.278  0.1034  0.1324 -0.1242
   55TP3     H111984   0.748   0.616   9.270  0.4032  0.5051  2.0228
   55TP3     H211985   0.616   0.587   9.202  1.7980 -2.2658  0.2933
   56TP3      O11986   4.350   0.375   9.906  0.2670  0.1168 -0.2715
   56TP3     H111987   4.303   0.441   9.855 -0.8549 -1.2783 -1.1322
   56TP3     H211988   4.362   0.416   9.992  0.8925  1.9594 -1.1807
   57TP3      O11989   4.851   4.717   8.114 -0.2651 -0.4515  0.3388
   57TP3     H111990   4.908   4.794   8.110  0.1827 -0.8267 -0.7174
   57TP3     H211991   4.911   4.644   8.132 -0.6566 -0.6037  1.0791
   58TP3      O11992   3.356   3.599   2.428 -0.0881 -0.4663 -0.0216
   58TP3     H111993   3.266   3.626   2.407 -0.8415 -2.9768 -0.3892
   58TP3     H211994   3.359   3.597   2.523 -0.4689 -0.4312 -0.0064
   59TP3      O11995   2.317   4.928   2.407  0.9627 -0.4971 -0.2400
   59TP3     H111996   2.261   4.934   2.484  1.6620  0.2670  0.2184
   59TP3     H211997   2.403   4.904   2.442  1.3692  0.2099 -0.7429
   60TP3      O11998   4.818   2.316   8.956 -0.2955  0.1536  0.5412
   60TP3     H111999   4.770   2.234   8.971 -1.2165  0.6844  0.5543
   60TP3     H212000   4.909   2.288   8.949 -0.5983 -0.8897  0.4545
   61TP3      O12001   1.454   3.809   0.360 -0.2735  0.0241 -0.4637
   61TP3     H112002   1.456   3.748   0.287 -0.2798 -0.8305  0.2327
   61TP3     H212003   1.458   3.754   0.438  1.6298  0.9743  0.1943
   62TP3      O12004   4.180   1.813  10.256  0.2787 -0.5145  0.0302
   62TP3     H112005   4.123   1.737  10.246 -1.6117  0.7999  0.2407
   62TP3     H212006   4.209   1.809  10.347 -0.7984 -0.3527  0.3965
   63TP3      O12007   4.445   0.517   8.128 -0.2262  0.8188 -0.8515
   63TP3     H112008   4.396   0.478   8.056 -2.3453 -0.9932  1.3991
   63TP3     H212009   4.537   0.501   8.106 -0.8538 -0.8738 -2.4968
   64TP3      O12010   1.145   0.573   1.125 -0.5809 -0.3577  0.2642
   64TP3     H112011   1.092   0.643   1.161 -0.3872  0.0734 -0.2762
   64TP3     H212012   1.130   0.578   1.030 -0.2214 -0.7594  0.1835
   65TP3      O12013   3.418   1.186   7.091 -0.2409 -0.3179  0.5102
   65TP3     H112014   3.463   1.102   7.094 -0.6187 -0.5092  0.9185
   65TP3     H212015   3.329   1.166   7.120 -0.2614  0.2692  0.8532
   66TP3      O12016   0.224   3.646   1.531  0.4289  0.1195  0.0291
   66TP3     H112017   0.232   3.720   1.591  1.7738  0.3830 -0.4586
   66TP3     H212018   0.251   3.570   1.583  0.1908  0.1362  0.1798
   67TP3      O12019   1.685   2.235   9.807  0.2125  0.1834 -0.2273
   67TP3     H112020   1.622   2.216   9.877 -0.1889  0.0421 -0.6247
   67TP3     H212021   1.680   2.330   9.796 -1.7452 -0.0358 -1.9142
   68TP3      O12022   4.375   2.656   2.484  0.1676 -0.1920  0.0540
   68TP3     H112023   4.346   2.599   2.555 -2.7895  1.7608  0.5549
   68TP3     H212024   4.348   2.610   2.404 -1.9320  0.3171  0.4389
   69TP3      O12025   0.785   1.033   7.795  0.2968  0.3495 -0.5575
   69TP3     H112026   0.751   1.062   7.710  0.2077  1.0793 -0.2807
   69TP3     H212027   0.877   1.058   7.793  0.5851 -0.6903 -0.8945
   70TP3      O12028   2.164   4.667   8.984 -0.4676 -0.0405  0.1501
   70TP3     H112029   2.212   4.687   9.064 -0.9472  0.0565  0.4165
   70TP3     H212030   2.109   4.592   9.006 -0.0011 -0.5364 -0.3301
   71TP3      O12031   3.245   0.914   9.154  0.1611  0.5387 -0.0529
   71TP3     H112032   3.327   0.893   9.108  0.0741 -1.5512  0.6849
   71TP3     H212033   3.177   0.867   9.106 -0.1916 -0.1001  1.0327
   72TP3      O12034   0.322   2.185   9.208 -0.0471 -0.2913  0.0166
   72TP3     H112035   0.318   2.254   9.142 -0.7175  0.3250  0.6757
   72TP3     H212036   0.231   2.156   9.217  0.0212 -0.2879  0.7430
   73TP3      O12037   2.034   3.496   2.672  0.6979 -0.3528  0.1500
   73TP3     H112038   2.084   3.553   2.730  2.3840 -1.8541  0.2497
   73TP3     H212039   2.021   3.547   2.592  1.1933  0.5585  0.6465
   74TP3      O12040   4.051   4.809   0.788 -0.8458  0.8131  0.2038
   74TP3     H112041   3.967   4.763   0.790  0.4520 -1.7449  0.4200
   74TP3     H212042   4.116   4.740   0.804  1.3893  2.4634 -1.1621
   75TP3      O12043   4.445   4.990   1.660 -0.4690  0.2124  0.3687
   75TP3     H112044   4.458   5.034   1.576  1.1645 -0.0453  0.4413
   75TP3     H212045   4.398   4.910   1.638 -3.1416  1.7123  0.1882
   76TP3      O12046   2.538   1.878   9.882 -0.7613  0.0433  0.1265
   76TP3     H112047   2.459   1.898   9.832 -1.5176  0.4177  1.4065
   76TP3     H212048   2.571   1.964   9.909  0.2907 -0.0907 -0.6797
   77TP3      O12049   2.977   2.030   9.610 -0.7611 -0.1161 -0.5003
   77TP3     H112050   3.025   2.105   9.645 -1.4085 -0.6777  1.7875
   77TP3     H212051   2.891   2.064   9.589 -1.4019 -0.3295  1.5171
   78TP3      O12052   1.082   0.297   0.410 -0.1536 -0.0758  0.1659
   78TP3     H112053   1.096   0.391   0.423  2.1166 -0.2696 -0.5783
   78TP3     H212054   1.073   0.262   0.498  1.6031  0.5052  0.6113
   79TP3      O12055   2.062   1.697   7.806 -0.4917 -0.1535 -0.1954
   79TP3     H112056   2.112   1.649   7.872 -1.6138 -0.8083  0.2217
   79TP3     H212057   2.127   1.727   7.743  0.3428 -1.6758 -0.1189
   80TP3      O12058   2.756   4.568   7.992  0.2275 -0.2544 -0.2646
   80TP3     H112059   2.731   4.517   7.914 -2.5014 -0.1629  0.4276
   80TP3     H212060   2.715   4.521   8.065  1.7320  0.3152  0.9896
   81TP3      O12061   4.850   2.832   0.511 -0.1712  0.5036  0.1247
   81TP3     H112062   4.857   2.832   0.607 -0.2325 -0.4389  0.1359
   81TP3     H212063   4.847   2.925   0.487 -1.3543  0.7464  1.1220
   82TP3      O12064   0.419   4.548   8.860  0.3712  1.1293 -0.3856
   82TP3     H112065   0.434   4.580   8.949 -2.3659 -0.1255  0.6384
   82TP3     H212066   0.330   4.576   8.840 -0.3316 -1.5033 -1.3291
   83TP3      O12067   0.194   2.137   9.972  0.2407  0.3384 -0.0725
   83TP3     H112068   0.272   2.190   9.955  0.7114  0.3435  1.8706
   83TP3     H212069   0.122   2.201   9.973  0.3753  0.5050 -0.6896
   84TP3      O12070   0.774   4.007   8.904  0.4992 -0.3955 -0.4515
   84TP3     H112071   0.864   4.007   8.938  0.3268 -0.0330  0.0299
   84TP3     H212072   0.769   3.930   8.848  1.5680  0.4068 -1.7148
   85TP3      O12073   1.042   0.152   1.874  0.0821  0.1997 -0.3954
   85TP3     H112074   1.104   0.087   1.909 -0.2171  0.1468  0.0377
   85TP3     H212075   1.066   0.234   1.917 -1.3749 -0.1983  1.2756
   86TP3      O12076   4.868   1.772   1.940 -0.2098  0.7158  0.0214
   86TP3     H112077   4.955   1.790   1.975  0.0860  2.3070 -1.4015
   86TP3     H212078   4.809   1.787   2.014  0.6420  0.4376  0.7828
   87TP3      O12079   0.561   1.899   0.404  0.5509 -0.3633 -0.0508
   87TP3     H112080   0.571   1.811   0.440 -2.9151 -0.1229  1.9213
   87TP3     H212081   0.473   1.901   0.367  0.3889  2.3289  0.2612
   88TP3      O12082   3.008   4.641   1.607  0.2799 -0.1009  0.5642
   88TP3     H112083   2.951   4.696   1.553 -1.2370 -2.5283 -0.4509
   88TP3     H212084   2.959   4.560   1.620  3.8896 -2.9335 -1.5002
   89TP3      O12085   2.879   2.655   7.429 -0.0320 -0.6047  0.1905
   89TP3     H112086   2.784   2.647   7.425 -0.2655  0.4827  2.4089
   89TP3     H212087   2.897   2.738   7.384  0.1196 -1.6382 -1.8094
   90TP3      O12088   2.690   3.217   0.854 -0.8376 -0.4329  0.4642
   90TP3     H112089   2.607   3.219   0.807 -0.4826  0.5761 -0.1408
   90TP3     H212090   2.749   3.170   0.795 -0.6437 -0.0110  0.3209
   91TP3      O12091   3.190   2.298   8.417  0.3400 -0.1577 -0.3669
   91TP3     H112092   3.173   2.347   8.336  1.1900  1.6650  0.5045
   91TP3     H212093   3.250   2.229   8.390  0.3916  0.2444 -1.3507
   92TP3      O12094   5.187   0.760   8.586  0.2838  0.0888 -0.3575
   92TP3     H112095   5.221   0.846   8.609 -0.5509  0.2692  0.2505
   92TP3     H212096   5.186   0.712   8.669 -0.9414  0.1003 -0.3425
   93TP3      O12097   3.859   0.452   1.928  0.1067 -0.0373 -0.0229
   93TP3     H112098   3.882   0.499   1.848 -1.5106  0.2574 -0.3484
   93TP3     H212099   3.942   0.415   1.958  0.9473  0.7795 -1.2141
   94TP3      O12100   1.719   0.370   8.018  0.0117  0.0828 -0.2937
   94TP3     H112101   1.720   0.425   7.940 -0.3420  1.1218  0.4063
   94TP3     H212102   1.811   0.363   8.044 -0.0597  1.6711  0.4844
   95TP3      O12103   0.903   2.528   8.720 -0.6113  0.2970  0.1776
   95TP3     H112104   0.918   2.623   8.727 -1.3382  0.5062 -0.8357
   95TP3     H212105   0.819   2.514   8.764 -1.1323  0.3396 -0.7703
   96TP3      O12106   1.509   3.895   2.254  0.0421  0.6545 -0.4828
   96TP3     H112107   1.434   3.856   2.299  1.4415 -0.7422  0.7656
   96TP3     H212108   1.476   3.977   2.218 -1.4585  1.3184  2.2014
   97TP3      O12109   3.615   3.283   2.496  0.3442 -0.2394 -0.2186
   97TP3     H112110   3.609   3.364   2.547  2.2204 -0.4605  0.4343
   97TP3     H212111   3.555   3.296   2.423  1.6243  2.3358 -0.9092
   98TP3      O12112   1.897   4.934   0.767  0.1546  0.4559  0.7916
   98TP3     H112113   1.855   5.020   0.770 -1.2652 -0.2257  2.6697
   98TP3     H212114   1.866   4.895   0.685 -1.1960  0.8336  1.0901
   99TP3      O12115   4.232   3.261   1.301  0.4072  0.4218  0.4715
   99TP3     H112116   4.181   3.240   1.223 -0.2635 -0.4006  1.1093
   99TP3     H212117   4.166   3.281   1.367  0.9701  1.2477  0.7968
  100TP3      O12118   1.670   3.556   1.821  0.3185 -0.5040 -0.2097
  100TP3     H112119   1.624   3.629   1.862 -3.5037 -1.7017 -1.9438
  100TP3     H212120   1.740   3.597   1.772  0.7566  1.5478  1.9235
  101TP3      O12121   3.764   3.204   0.844 -0.0446  0.3105  0.1838
  101TP3     H112122   3.859   3.194   0.832 -0.0092  1.2611 -0.4532
  101TP3     H212123   3.756   3.284   0.897 -0.4625 -0.3406  1.1293
  102TP3      O12124   2.391   4.403   9.240  0.0047  0.3213 -0.1083
  102TP3     H112125   2.460   4.449   9.288  0.9528  0.4205 -1.5066
  102TP3     H212126   2.431   4.320   9.216 -0.7330 -0.0536 -0.0588
  103TP3      O12127   0.084   1.148   7.034  0.5161 -0.3246 -0.4551
  103TP3     H112128   0.017   1.151   6.967  0.3107 -0.9945 -0.2875
  103TP3     H212129   0.084   1.057   7.064 -0.4882  0.2751  1.5374
  104TP3      O12130   1.339   1.277   0.872 -0.1764  0.3992 -0.4620
  104TP3     H112131   1.365   1.361   0.911 -0.6998 -0.0359  0.8706
  104TP3     H212132   1.249   1.291   0.845 -0.8881 -0.2360  1.4038
  105TP3      O12133   2.037   1.295   8.094 -0.1664  0.5310 -0.0101
  105TP3     H112134   2.061   1.294   8.186  0.3779  1.3292 -0.1328
  105TP3     H212135   2.111   1.338   8.050 -0.9381  1.2608 -0.6441
  106TP3      O12136   2.442   0.994   2.597 -0.6767 -0.4154  0.4562
  106TP3     H112137   2.444   1.089   2.589  0.0661 -0.3022  1.6392
  106TP3     H212138   2.368   0.976   2.656  0.3168 -0.3934  1.7705
  107TP3      O12139   1.772   3.571   9.177  0.0834 -0.0103 -0.7684
  107TP3     H112140   1.849   3.518   9.194 -0.7176 -0.9135  0.1630
  107TP3     H212141   1.774   3.640   9.244  0.6948  0.6957 -1.4856
  108TP3      O12142   3.701   2.181   7.786  0.1075 -0.0243 -0.2331
  108TP3     H112143   3.761   2.111   7.761 -2.0848 -2.3711  0.6508
  108TP3     H212144   3.619   2.161   7.740 -1.0415  1.0892  1.2038
  109TP3      O12145   0.924   4.586   8.484  0.3790 -0.2054 -0.2469
  109TP3     H112146   0.932   4.667   8.535 -2.1434  0.7186 -1.1433
  109TP3     H212147   0.977   4.601   8.406  1.6198 -0.2959  0.5638
  110TP3      O12148   2.697   2.419   9.868 -0.0171 -0.3937  1.0266
  110TP3     H112149   2.632   2.357   9.901 -0.4165 -1.1216 -1.0183
  110TP3     H212150   2.774   2.366   9.850 -0.1950 -0.2402 -0.2653
  111TP3      O12151   2.998   4.087   9.297  0.0499 -0.8342  0.2870
  111TP3     H112152   3.060   4.052   9.233 -0.6536 -2.7605  0.5948
  111TP3     H212153   3.012   4.033   9.375 -1.2087 -0.5252  0.7524
  112TP3      O12154   1.024   0.237   7.713 -0.2420  0.0819 -0.4069
  112TP3     H112155   1.071   0.253   7.631 -1.6218  0.4894 -1.1534
  112TP3     H212156   1.059   0.155   7.746  1.6873  0.8538 -0.4047
  113TP3      O12157   4.592   3.223   8.200 -0.0639  0.2554  0.2493
  113TP3     H112158   4.639   3.161   8.257 -1.1868 -1.6351 -0.7767
  113TP3     H212159   4.502   3.222   8.233 -0.8410 -1.2148 -1.7171
  114TP3      O12160   0.294   4.751   1.648  0.0424  0.0209  0.1709
  114TP3     H112161   0.342   4.831   1.624 -0.7282 -0.1469 -2.2255
  114TP3     H212162   0.282   4.757   1.742  1.1034  2.1085  0.2252
  115TP3      O12163   3.244   1.766   3.556 -0.0073 -0.1189  0.1384
  115TP3     H112164   3.177   1.751   3.489  0.3646 -1.8405  0.0989
  115TP3     H212165   3.319   1.799   3.509 -1.1231  2.9462  0.3216
  116TP3      O12166   0.814   0.002   6.898 -0.0143 -0.4000 -0.2645
  116TP3     H112167   0.886   0.035   6.953 -0.3197  0.3125 -0.2749
  116TP3     H212168   0.752  -0.036   6.960  0.2601 -0.8038 -0.2352
  117TP3      O12169   2.693   0.701   2.312  0.7427 -0.0772  0.1182
  117TP3     H112170   2.600   0.704   2.290  0.6431  0.3559  0.5676
  117TP3     H212171   2.716   0.608   2.311  0.6282 -0.1081 -1.2828
  118TP3      O12172   4.655   2.176   7.547 -0.2500  0.4744 -0.1464
  118TP3     H112173   4.570   2.182   7.503 -1.1316 -1.1495  1.2230
  118TP3     H212174   4.688   2.090   7.524 -1.4121 -1.0716  3.3234
  119TP3      O12175   1.391   0.919   8.326  0.2424 -0.3665  0.5415
  119TP3     H112176   1.415   0.966   8.406 -0.8687 -1.9214  1.8617
  119TP3     H212177   1.471   0.873   8.300  0.7619  0.5931  0.4315
  120TP3      O12178   2.777   0.774   6.836 -0.4272 -0.6479 -0.3061
  120TP3     H112179   2.838   0.826   6.784 -2.1348 -0.7749 -2.5902
  120TP3     H212180   2.751   0.702   6.778 -0.7792 -2.0912  1.5268
  121TP3      O12181   0.050   1.908   9.449  0.1346  0.2610  0.6215
  121TP3     H112182  -0.038   1.942   9.463 -0.5713 -1.3700  0.3646
  121TP3     H212183   0.068   1.855   9.527 -0.0525 -1.2316 -0.2996
  122TP3      O12184   2.766   4.732   9.423 -0.2173 -0.3444  0.3102
  122TP3     H112185   2.840   4.694   9.470  0.7368  0.4190 -0.5312
  122TP3     H212186   2.768   4.825   9.447 -1.2747 -0.4304  0.7513
  123TP3      O12187   0.770   1.775   0.576  0.8345 -0.2825  0.4851
  123TP3     H112188   0.786   1.864   0.545 -1.0238 -0.7773 -2.2512
  123TP3     H212189   0.771   1.782   0.671  3.5916  2.0530  0.4348
  124TP3      O12190   1.983   1.494   8.325  0.1413 -0.0072  0.5644
  124TP3     H112191   2.031   1.411   8.329  1.4555  0.7200  0.2994
  124TP3     H212192   2.031   1.546   8.261 -0.1643  1.2770  1.3526
  125TP3      O12193   3.976   3.348   1.119  0.0363  0.4232  0.1216
  125TP3     H112194   3.999   3.408   1.190 -0.5439  0.8334 -0.0336
  125TP3     H212195   3.913   3.396   1.066  0.3410  0.0589 -0.5896
  126TP3      O12196   1.565   1.198   1.179  0.1331 -0.9217 -0.4041
  126TP3     H112197   1.477   1.168   1.158 -0.5902 -0.6461  1.8724
  126TP3     H212198   1.595   1.137   1.247  0.0875  1.1789  1.6575
  127TP3      O12199   2.033   4.645   1.038  0.3584  0.2258  0.1358
  127TP3     H112200   2.072   4.694   0.966 -1.7362  2.6207  0.5064
  127TP3     H212201   2.076   4.679   1.117  0.6246 -0.3294  0.2360
  128TP3      O12202   2.203   3.932   0.334  0.2359  0.2564 -0.0634
  128TP3     H112203   2.280   3.942   0.389  0.8799 -0.2079 -0.8557
  128TP3     H212204   2.134   3.982   0.379  0.5225 -0.7591  1.5510
  129TP3      O12205   1.292   4.964   1.817  0.6815 -0.3219  0.5389
  129TP3     H112206   1.345   5.020   1.759 -1.3239  0.5421 -0.5508
  129TP3     H212207   1.254   5.024   1.880 -0.5715 -0.6023  0.0760
  130TP3      O12208   2.057   1.128   2.533  0.0868  0.4489 -0.3344
  130TP3     H112209   2.072   1.096   2.445 -0.0415 -0.3318 -0.0776
  130TP3     H212210   2.108   1.209   2.538 -3.3400  3.0344 -2.5935
  131TP3      O12211   1.195   4.750   8.566  0.4486 -0.1995  0.0331
  131TP3     H112212   1.235   4.673   8.607 -0.3254 -0.6932 -0.1130
  131TP3     H212213   1.110   4.760   8.610 -0.3203 -0.6288 -1.2749
  132TP3      O12214   3.649   0.400   8.498 -0.2095 -0.1668 -1.2610
  132TP3     H112215   3.660   0.334   8.429  1.6692 -2.5087  1.0731
  132TP3     H212216   3.737   0.435   8.512  0.0912 -1.7049  1.6007
  133TP3      O12217   1.231   4.409   2.060  0.0149  0.4571  0.1237
  133TP3     H112218   1.306   4.463   2.037  0.7388  0.1899  1.7707
  133TP3     H212219   1.207   4.436   2.148 -3.0891  1.8817 -1.0047
  134TP3      O12220   3.343   5.057   2.010 -0.4699  0.9789  0.0166
  134TP3     H112221   3.311   4.974   2.045 -2.0492  0.9421 -1.3476
  134TP3     H212222   3.265   5.096   1.969  1.0485  1.2680 -2.8392
  135TP3      O12223   0.957   3.182   1.596  0.9627 -0.2987 -0.0028
  135TP3     H112224   0.863   3.200   1.605  0.8018 -0.8443 -0.5598
  135TP3     H212225   0.994   3.264   1.563  0.5191 -0.3984 -0.7575
  136TP3      O12226   0.776   2.946   1.936  0.2370  0.3674  0.3361
  136TP3     H112227   0.849   2.896   1.901  0.7839  0.9598  0.6253
  136TP3     H212228   0.746   2.895   2.011 -0.6244 -0.6497 -0.6628
  137TP3      O12229   0.991   3.049   9.502  0.3097  0.1682 -0.0042
  137TP3     H112230   1.005   2.963   9.542 -0.6526 -0.0854 -0.1854
  137TP3     H212231   0.945   3.030   9.420  0.7894  0.8053 -0.4295
  138TP3      O12232   0.632   1.837   8.131  0.1182  0.1316 -0.3751
  138TP3     H112233   0.727   1.839   8.131  0.1162  0.7553  0.2973
  138TP3     H212234   0.607   1.919   8.089 -0.1209  0.0646 -0.3639
  139TP3      O12235   0.733   2.529   2.243  0.3491  0.3016 -0.1229
  139TP3     H112236   0.775   2.489   2.319  0.0154 -0.0221 -0.1004
  139TP3     H212237   0.779   2.491   2.167  2.4523  2.5857 -0.0928
  140TP3      O12238   0.043   1.960   7.120 -0.5387  0.1181 -0.5557
  140TP3     H112239   0.119   2.010   7.090 -0.1340 -1.7758 -2.9201
  140TP3     H212240  -0.010   1.946   7.042 -0.4436 -3.4286 -0.1426
  141TP3      O12241   2.041   4.358   1.837 -0.3619 -0.4273 -0.2863
  141TP3     H112242   1.990   4.301   1.895 -0.6810  1.1955  1.1178
  141TP3     H212243   2.030   4.319   1.750 -0.4616 -2.5352  0.5927
  142TP3      O12244   0.213   0.299   9.953  0.5992 -0.2165 -0.6508
  142TP3     H112245   0.167   0.255   9.881  1.1131 -1.1058 -0.4471
  142TP3     H212246   0.282   0.238   9.979  1.0378  0.5112 -0.0416
  143TP3      O12247   0.199   0.474   1.110 -0.7439 -0.2932 -0.6224
  143TP3     H112248   0.233   0.486   1.021  1.8189 -3.7140 -0.3138
  143TP3     H212249   0.158   0.387   1.108 -0.7609 -0.3792  1.4844
  144TP3      O12250   1.708   3.158   7.930  0.3715  0.6942 -0.0697
  144TP3     H112251   1.620   3.123   7.915  0.7151 -0.2518 -0.0069
  144TP3     H212252   1.703   3.199   8.016  0.4780 -1.1214  0.8498
  145TP3      O12253   1.575   2.821   1.881 -0.4986  0.4152 -0.4079
  145TP3     H112254   1.540   2.738   1.849 -1.1616  1.0503 -1.3687
  145TP3     H212255   1.511   2.886   1.853  0.1969  1.2999  0.0245
  146TP3      O12256   0.457   1.490   2.875 -0.0890  0.0630 -0.4212
  146TP3     H112257   0.543   1.453   2.891  0.1469  0.0190 -1.6645
  146TP3     H212258   0.399   1.444   2.936  0.7485  0.0837  0.4184
  147TP3      O12259   2.677   1.570   8.044 -0.2855 -0.3045  0.6569
  147TP3     H112260   2.683   1.475   8.056 -1.9234 -0.5998 -0.3807
  147TP3     H212261   2.707   1.607   8.126 -0.1378 -1.7559  1.2893
  148TP3      O12262   3.546   3.431   0.059 -0.8524  0.3611  0.3757
  148TP3     H112263   3.626   3.436   0.112  0.3261 -0.3097 -1.2705
  148TP3     H212264   3.575   3.393  -0.024 -2.1354  3.5550 -1.7166
  149TP3      O12265   4.522   3.978   0.320  0.0586  0.0617 -0.0063
  149TP3     H112266   4.491   4.051   0.266 -0.5333  0.5822  1.0011
  149TP3     H212267   4.608   4.006   0.351 -0.2639  0.4398  0.5613
  150TP3      O12268   4.817   4.507   8.464 -0.0622  0.0653  0.1539
  150TP3     H112269   4.866   4.488   8.543 -2.4444 -1.7744  1.3264
  150TP3     H212270   4.786   4.422   8.433 -3.1508  1.0695  0.0556
  151TP3      O12271   5.205   2.442   7.653 -0.1862 -1.2570 -0.4157
  151TP3     H112272   5.194   2.367   7.712 -2.3189  0.0275  0.9093
  151TP3     H212273   5.294   2.473   7.671 -0.7587 -0.9195  2.1553
  152TP3      O12274   0.444   0.920   9.323  0.2136  0.0290 -0.5051
  152TP3     H112275   0.431   0.826   9.314  1.3239 -0.1489 -0.3688
  152TP3     H212276   0.384   0.959   9.259 -2.5258 -0.5962  1.4756
  153TP3      O12277   4.669   4.343   9.143  0.4175 -0.1625  0.1268
  153TP3     H112278   4.675   4.249   9.125 -0.7097 -0.3852  0.8537
  153TP3     H212279   4.618   4.349   9.223 -0.2747  1.1196 -0.3915
  154TP3      O12280   0.707   1.202  10.169  0.2239  0.3440  0.9963
  154TP3     H112281   0.724   1.226  10.260  2.6723  1.0736  0.4238
  154TP3     H212282   0.680   1.284  10.127  2.6930  0.9047  0.3428
  155TP3      O12283   1.371   3.609   1.025  0.2126  0.0953  0.2691
  155TP3     H112284   1.404   3.527   0.989 -0.6567 -0.2027  0.1432
  155TP3     H212285   1.288   3.623   0.980 -1.3999 -0.7632  2.7852
  156TP3      O12286   1.532   2.789   7.286  0.1274  0.1732  0.3033
  156TP3     H112287   1.544   2.884   7.280 -1.6201  0.3267 -2.9460
  156TP3     H212288   1.587   2.753   7.216  1.2101 -1.3448  1.8344
  157TP3      O12289   4.568   2.471   1.272 -0.2822  0.3019 -0.4460
  157TP3     H112290   4.588   2.414   1.347  1.5902  0.2588 -0.9426
  157TP3     H212291   4.550   2.410   1.200  0.3722  0.3183 -0.6326
  158TP3      O12292   1.632   4.086   7.856  0.1106  0.1574  0.5166
  158TP3     H112293   1.681   4.157   7.814  1.7103  0.2710  2.3903
  158TP3     H212294   1.588   4.128   7.930  0.9538 -0.7185  1.5642
  159TP3      O12295   5.053   1.679   0.606  0.1257 -0.1715 -0.2967
  159TP3     H112296   4.961   1.658   0.621  0.5708 -0.6056  2.2121
  159TP3     H212297   5.092   1.595   0.581 -0.3152  0.2502 -2.6862
  160TP3      O12298   0.086   1.016   7.430 -0.1747 -0.4020  1.0814
  160TP3     H112299   0.026   0.953   7.391 -0.0439  0.4234 -0.5597
  160TP3     H212300   0.168   1.005   7.381  0.6844 -0.7274  2.5178
  161TP3      O12301   2.608   4.207   0.322  0.3386  0.4035 -0.3363
  161TP3     H112302   2.649   4.121   0.326  1.0598  0.6408 -1.7792
  161TP3     H212303   2.519   4.190   0.290 -0.9140 -0.1406  3.0551
  162TP3      O12304   4.660   3.811   1.119  0.2218 -0.2653  0.3140
  162TP3     H112305   4.708   3.886   1.153 -0.7942 -0.6094  2.6651
  162TP3     H212306   4.587   3.850   1.069 -0.7308  0.4013  2.1189
  163TP3      O12307   0.631   2.464   9.347 -0.0942  0.1945 -0.4657
  163TP3     H112308   0.696   2.445   9.279 -1.8743  1.7665 -2.7630
  163TP3     H212309   0.592   2.380   9.367  1.5864 -0.5483 -0.1464
  164TP3      O12310   0.807   3.130   7.350 -0.0980 -0.3393 -0.7294
  164TP3     H112311   0.842   3.092   7.431  0.6078  2.8738  0.6329
  164TP3     H212312   0.884   3.160   7.303 -0.6387  0.3510 -1.1953
  165TP3      O12313   3.640   1.170  10.019  0.6401 -0.6060 -0.0569
  165TP3     H112314   3.594   1.087  10.036  2.2139 -0.9060  3.7050
  165TP3     H212315   3.720   1.144   9.974  0.9421 -1.1244  0.7546
  166TP3      O12316   2.158   3.390   2.267 -0.1237  0.4091 -0.1798
  166TP3     H112317   2.194   3.474   2.295  0.8972  0.3414 -1.2002
  166TP3     H212318   2.154   3.337   2.347  1.6038  0.6014  0.0643
  167TP3      O12319   3.050   3.002   8.104 -0.2062  0.2973 -0.2680
  167TP3     H112320   3.118   3.002   8.172  1.0053 -0.8527 -1.4114
  167TP3     H212321   2.973   2.965   8.148  0.1754  0.7340  0.8033
  168TP3      O12322   4.011   4.563   8.040 -0.1205  0.2998  0.6876
  168TP3     H112323   4.039   4.477   8.073  1.1162  0.9573  1.4329
  168TP3     H212324   3.983   4.547   7.950  2.2302 -0.5302  0.0324
  169TP3      O12325   0.554   2.487   7.766 -0.3343 -0.4993  0.0722
  169TP3     H112326   0.585   2.573   7.797 -1.2782 -0.9655  2.5396
  169TP3     H212327   0.630   2.449   7.722  1.0179  0.4487  1.4909
  170TP3      O12328   0.065   2.391  10.191 -0.0244  0.4203  0.6831
  170TP3     H112329   0.092   2.320  10.249  0.1868 -0.0478  0.0270
  170TP3     H212330   0.146   2.437  10.170  0.1909 -0.4993 -0.6465
  171TP3      O12331   3.214   2.971   9.117  0.1140  0.0800 -0.1559
  171TP3     H112332   3.160   3.018   9.181  0.2623  0.7631 -0.5267
  171TP3     H212333   3.261   2.906   9.169  0.2519  0.6432  0.4398
  172TP3      O12334   2.479   4.589   2.128  0.2741 -0.8587 -0.0659
  172TP3     H112335   2.462   4.681   2.108  0.0061 -0.8387  0.2516
  172TP3     H212336   2.471   4.544   2.044  3.9380 -0.1148 -1.0031
  173TP3      O12337   4.544   3.580   8.229 -0.2514 -0.2258 -0.0915
  173TP3     H112338   4.638   3.588   8.243 -0.1804 -0.0895 -0.6292
  173TP3     H212339   4.517   3.667   8.199 -0.5223 -0.3093 -0.0936
  174TP3      O12340   3.067   0.070   9.548  0.1109  0.3771 -0.5355
  174TP3     H112341   3.148   0.078   9.497  1.8692  0.0815  2.0054
  174TP3     H212342   3.057  -0.025   9.561  0.3579  0.4855  0.5649
  175TP3      O12343   2.817   3.336   0.610 -0.2887  0.0127 -0.0554
  175TP3     H112344   2.867   3.355   0.531 -3.2646 -0.4871 -2.2690
  175TP3     H212345   2.804   3.421   0.652  0.8612  0.3725 -0.3922
  176TP3      O12346   2.494   3.166   1.354 -0.5087 -0.3201  0.0463
  176TP3     H112347   2.493   3.261   1.342  1.2579 -0.4429 -1.3702
  176TP3     H212348   2.512   3.130   1.267 -1.3303 -1.9961  0.5114
  177TP3      O12349   0.552   1.722   8.990  0.1904 -0.6037 -0.0768
  177TP3     H112350   0.601   1.692   9.066  0.3416  1.1813  0.5864
  177TP3     H212351   0.526   1.812   9.012 -0.2599 -0.2405 -1.8922
  178TP3      O12352   0.387   1.817   9.646 -0.3192 -0.0698 -0.6292
  178TP3     H112353   0.461   1.771   9.685 -0.2645 -1.1144 -1.8895
  178TP3     H212354   0.312   1.791   9.700 -0.3354 -1.9124 -1.4612
  179TP3      O12355   4.965   3.628   8.638 -0.0918 -0.1240  0.6658
  179TP3     H112356   5.024   3.686   8.686 -0.5444 -0.6877  1.9409
  179TP3     H212357   5.018   3.553   8.614 -0.0662 -0.2121  1.0011
  180TP3      O12358   2.285   3.576   0.342 -0.1292  0.0543  0.2292
  180TP3     H112359   2.309   3.608   0.254 -0.3124  2.2132  0.8961
  180TP3     H212360   2.198   3.614   0.357 -0.7569 -1.5274  0.7908
  181TP3      O12361   3.295   3.981   8.385 -0.0775 -0.2974  0.1464
  181TP3     H112362   3.317   3.914   8.321  0.3642 -1.1625  1.1872
  181TP3     H212363   3.352   4.055   8.364 -0.2357 -0.4038 -0.7039
  182TP3      O12364   4.224   1.099   0.929 -0.4295  0.4366  0.0999
  182TP3     H112365   4.293   1.032   0.922  0.6333  1.3539  1.2540
  182TP3     H212366   4.190   1.107   0.840 -0.0049 -1.0196 -0.2317
  183TP3      O12367   2.933   1.215   9.882 -0.7578  0.0404  0.6096
  183TP3     H112368   2.886   1.149   9.932  0.2598 -0.9043  0.3492
  183TP3     H212369   2.866   1.253   9.824 -1.5393 -0.1346  1.3710
  184TP3      O12370   2.763   2.182  10.126 -0.0694  0.7751 -0.0527
  184TP3     H112371   2.762   2.266  10.172 -0.6403 -0.9096  3.3565
  184TP3     H212372   2.845   2.140  10.154 -0.5679 -0.4599 -0.3617
  185TP3      O12373   3.128   3.717   2.349  0.1818  0.2309 -0.4318
  185TP3     H112374   3.113   3.810   2.329 -2.5358  0.6075  2.3685
  185TP3     H212375   3.052   3.672   2.312  0.4363 -0.5457 -0.0396
  186TP3      O12376   2.205   1.154   1.411 -0.1962  0.0590  0.2643
  186TP3     H112377   2.298   1.156   1.389 -0.3023  0.3039 -0.1865
  186TP3     H212378   2.198   1.212   1.486 -0.6432  4.0395 -2.5158
  187TP3      O12379   4.175   5.004   2.667  0.0497 -0.8912 -0.2413
  187TP3     H112380   4.204   5.059   2.595  0.1910 -0.5119  0.1001
  187TP3     H212381   4.245   4.940   2.679  1.6331  1.0743  1.7095
  188TP3      O12382   3.652   2.229   2.246 -0.2289  0.2348  0.0235
  188TP3     H112383   3.645   2.208   2.340  1.5113  0.9003  0.3377
  188TP3     H212384   3.733   2.186   2.218  0.5601  2.0286 -0.5836
  189TP3      O12385   2.744   1.582   9.334 -0.4577 -0.1415  0.2783
  189TP3     H112386   2.817   1.553   9.279 -0.8562  0.7883 -0.7750
  189TP3     H212387   2.785   1.633   9.404 -0.1385  1.1578 -0.8202
  190TP3      O12388   1.256   2.536   7.628  0.1608 -0.2776  0.7984
  190TP3     H112389   1.237   2.471   7.696  1.8557 -1.4744  0.1976
  190TP3     H212390   1.351   2.532   7.617 -0.0494 -0.2471 -1.7169
  191TP3      O12391   3.500   2.622   2.849  0.3874 -0.2187  0.2042
  191TP3     H112392   3.462   2.618   2.761  0.1453  0.7518  0.2488
  191TP3     H212393   3.594   2.614   2.835  0.4720  1.3523 -0.2996
  192TP3      O12394   4.431   1.078  10.049  0.1767 -0.2122 -0.1370
  192TP3     H112395   4.346   1.107  10.081  0.0404 -0.2252 -0.4731
  192TP3     H212396   4.412   0.998  10.000  0.3078  0.0628 -0.6486
  193TP3      O12397   3.346   3.362   1.602  0.2511  0.2392  1.1225
  193TP3     H112398   3.379   3.363   1.693  0.9094  1.9081  0.9046
  193TP3     H212399   3.424   3.344   1.549  0.2920  1.3242  0.7843
  194TP3      O12400   0.055   1.576  10.012 -0.2168  0.0091 -0.1070
  194TP3     H112401   0.029   1.665   9.990  0.4143  0.1452 -0.3397
  194TP3     H212402  -0.002   1.520   9.959 -0.7786  0.2614  0.2208
  195TP3      O12403   4.639   1.317   8.374  0.0600 -0.4092  0.1423
  195TP3     H112404   4.565   1.377   8.369  0.2561  0.2460  3.2180
  195TP3     H212405   4.716   1.373   8.371  0.4178 -0.9221 -0.9978
  196TP3      O12406   0.826   4.667   2.357  0.3006 -0.0677 -0.7558
  196TP3     H112407   0.799   4.582   2.393  1.0241 -0.6471 -1.5298
  196TP3     H212408   0.745   4.715   2.345  0.0115  0.1196  1.5048
  197TP3      O12409   3.126   2.833   1.880 -0.1458  0.1641  0.7199
  197TP3     H112410   3.114   2.913   1.931  1.0464  0.8493 -0.0387
  197TP3     H212411   3.068   2.844   1.804 -0.2656  0.1321  0.8059
  198TP3      O12412   4.698   2.877   8.828 -0.1147 -0.5599 -0.3089
  198TP3     H112413   4.639   2.930   8.776 -0.7593 -1.9216 -1.0259
  198TP3     H212414   4.642   2.835   8.893 -0.0419 -2.0666 -1.1607
  199TP3      O12415   2.651   1.987   9.578  0.1657 -0.4098  0.4525
  199TP3     H112416   2.570   1.998   9.628  0.9265  1.0675  1.4312
  199TP3     H212417   2.686   2.076   9.569  0.4161 -0.6819 -2.1805
  200TP3      O12418   2.661   2.101   2.242  0.0779 -0.4268  0.8423
  200TP3     H112419   2.639   2.007   2.239 -1.0622 -0.1711  0.6912
  200TP3     H212420   2.583   2.142   2.278  1.7301  0.1593  4.0499
  201TP3      O12421   0.289   2.396   9.505 -0.2721  0.4891  0.1234
  201TP3     H112422   0.213   2.416   9.558 -0.7059  1.2156 -0.7323
  201TP3     H212423   0.261   2.324   9.448  0.1080 -0.1183  0.6941
  202TP3      O12424   3.272   4.994   6.918  0.0434 -0.4391  0.0609
  202TP3     H112425   3.326   5.042   6.982 -1.5379  2.4162 -0.5699
  202TP3     H212426   3.186   5.034   6.925 -0.8202 -1.7393 -2.1780
  203TP3      O12427   0.135   5.192   3.305  0.1419 -0.0718  0.3199
  203TP3     H112428   0.043   5.207   3.282 -0.0915 -0.6054  0.8559
  203TP3     H212429   0.174   5.279   3.306 -0.8826  0.4244  2.2056
  204TP3      O12430   1.793   4.527   8.128 -0.1903  0.4261  0.3694
  204TP3     H112431   1.778   4.618   8.104 -1.1013  0.2685  0.3000
  204TP3     H212432   1.885   4.510   8.103 -0.1823  1.1598 -0.1242
  205TP3      O12433   3.081   0.762   7.640  0.4712  0.3194 -0.2920
  205TP3     H112434   3.053   0.775   7.550 -3.0949 -0.7976  0.4818
  205TP3     H212435   3.160   0.708   7.633 -0.4316 -0.8574 -2.7540
  206TP3      O12436   4.798   4.716   2.163  0.3334  0.2386  0.2700
  206TP3     H112437   4.797   4.622   2.183  0.4886  0.3003  0.5731
  206TP3     H212438   4.743   4.724   2.085  0.6300 -0.1548  0.0161
  207TP3      O12439   0.433   1.363   9.675  0.0350 -0.0879  0.3123
  207TP3     H112440   0.356   1.413   9.702  0.3343  1.7620 -1.9904
  207TP3     H212441   0.507   1.421   9.693  0.6070 -0.5522 -0.4749
  208TP3      O12442   0.280   0.061   2.290  0.0651 -0.3056 -0.1904
  208TP3     H112443   0.357   0.037   2.238  0.0433 -0.5187 -0.1270
  208TP3     H212444   0.207   0.054   2.229  0.1822  0.6457 -0.4547
  209TP3      O12445   4.167   3.872   0.631 -0.3285 -0.3657  0.6191
  209TP3     H112446   4.170   3.820   0.551  0.4875  1.7401 -0.7982
  209TP3     H212447   4.258   3.895   0.649 -0.5635 -0.2940  1.7980
  210TP3      O12448   2.436   1.391   8.978 -0.3287  0.2272  0.5000
  210TP3     H112449   2.479   1.306   8.962 -0.5697 -0.0710  1.3474
  210TP3     H212450   2.343   1.370   8.983 -0.3700  0.4986  0.9466
  211TP3      O12451   4.650   4.092  10.053 -0.3430 -0.2540 -0.9658
  211TP3     H112452   4.657   4.058  10.142 -2.2608 -0.3696 -0.8327
  211TP3     H212453   4.621   4.182  10.064 -1.2316 -0.4655 -1.4672
  212TP3      O12454   2.513   2.568   0.824  0.0719  0.6297 -0.4418
  212TP3     H112455   2.600   2.528   0.822  0.0080  0.3277  1.1010
  212TP3     H212456   2.527   2.656   0.859 -0.3978 -0.1068  1.8312
  213TP3      O12457   3.963   0.875   7.593 -0.0101 -0.1202  0.4490
  213TP3     H112458   4.058   0.879   7.602  0.0853  1.1441 -0.7126
  213TP3     H212459   3.929   0.917   7.672  0.5102  2.3018 -0.5430
  214TP3      O12460   0.591   0.594   1.871  0.3045 -0.6365  0.0965
  214TP3     H112461   0.571   0.506   1.904 -0.4977 -0.1839  0.8622
  214TP3     H212462   0.549   0.653   1.934  0.3287  0.2822 -0.7303
  215TP3      O12463   2.623   4.747   0.437 -0.3553  0.2757  0.2366
  215TP3     H112464   2.581   4.788   0.361  0.1040 -0.2540 -0.3226
  215TP3     H212465   2.551   4.708   0.486 -0.6006  0.0608 -0.2845
  216TP3      O12466   5.038   1.144   3.328  0.4788  0.1749 -0.0888
  216TP3     H112467   4.974   1.104   3.269  0.3050  0.6327 -0.2153
  216TP3     H212468   5.037   1.088   3.405  0.4356 -0.2176 -0.3710
  217TP3      O12469   3.375   1.295   0.481 -0.4452  0.5843  1.0121
  217TP3     H112470   3.469   1.281   0.469 -0.6426  0.4739 -0.6451
  217TP3     H212471   3.368   1.336   0.567  1.2295  1.6175  0.7065
  218TP3      O12472   1.562   3.230   2.767  0.0678 -0.5111  0.1503
  218TP3     H112473   1.643   3.280   2.779  0.1126  0.2322 -2.5746
  218TP3     H212474   1.525   3.222   2.855  2.1793  0.7022  1.2113
  219TP3      O12475   1.438   2.889   9.735 -0.3600 -0.1104 -0.0342
  219TP3     H112476   1.415   2.894   9.828  0.5981 -0.6110  0.2360
  219TP3     H212477   1.368   2.837   9.695 -0.5186 -0.3037  0.4931
  220TP3      O12478   5.050   2.781   7.017  0.1303 -0.2537 -0.3295
  220TP3     H112479   4.954   2.787   7.021  0.2091  0.6915  0.4270
  220TP3     H212480   5.072   2.708   7.075 -0.1414 -0.6737 -0.7444
  221TP3      O12481   2.869   1.423   1.288 -0.0247  0.2646 -0.0666
  221TP3     H112482   2.873   1.330   1.309 -4.2955  0.3815  2.4200
  221TP3     H212483   2.853   1.425   1.194  0.6331 -1.4644 -0.2551
  222TP3      O12484   5.193   2.628   0.711 -0.5089 -0.0938  0.1938
  222TP3     H112485   5.256   2.674   0.654 -1.2236 -0.1040 -0.6212
  222TP3     H212486   5.208   2.666   0.797  0.6145 -0.0885  0.0157
  223TP3      O12487   2.551   0.788   7.029  0.1760 -0.3922 -0.8493
  223TP3     H112488   2.579   0.789   6.937  0.1400 -0.8762 -0.8632
  223TP3     H212489   2.603   0.857   7.070 -0.7480  0.7404 -1.5146
  224TP3      O12490   4.660   4.040   9.268 -0.5416 -0.0863 -0.1350
  224TP3     H112491   4.629   4.025   9.179 -0.1127  0.7020 -0.4284
  224TP3     H212492   4.752   4.015   9.265 -0.6271 -0.4440  0.1951
  225TP3      O12493   3.631   1.182   0.421 -0.2507  0.3517 -0.2528
  225TP3     H112494   3.607   1.107   0.475 -0.9427  0.9232  0.2759
  225TP3     H212495   3.721   1.165   0.394 -0.2667 -0.4800  0.1726
  226TP3      O12496   2.632   0.445   9.564  0.0888 -0.0202  0.4289
  226TP3     H112497   2.695   0.407   9.625 -0.4340  1.7033  2.1651
  226TP3     H212498   2.552   0.457   9.616 -1.0988 -0.4685 -1.2125
  227TP3      O12499   0.646   2.494   6.613 -0.1161  0.2264 -0.4984
  227TP3     H112500   0.553   2.482   6.593  0.1622 -1.4461 -0.9103
  227TP3     H212501   0.691   2.433   6.555  1.1864  0.3241  0.3672
  228TP3      O12502   1.782   1.099   0.455  0.4327  0.2742  1.0130
  228TP3     H112503   1.807   1.009   0.478  0.5441  0.0603  0.1107
  228TP3     H212504   1.695   1.110   0.495  0.2359 -0.3870  0.7893
  229TP3      O12505   2.920   0.886   1.713 -0.4670 -0.4823 -0.4346
  229TP3     H112506   2.863   0.957   1.743 -1.1597 -1.3251  0.3134
  229TP3     H212507   2.894   0.872   1.622 -0.1450  0.3807 -0.6671
  230TP3      O12508   0.608   2.927   0.983 -0.5486 -0.3385 -0.3196
  230TP3     H112509   0.618   2.967   0.896  0.6038  0.1826  0.0346
  230TP3     H212510   0.568   2.995   1.037 -0.4599 -0.3619 -0.2240
  231TP3      O12511   5.141   0.070   9.400  0.1364 -0.5367  0.4439
  231TP3     H112512   5.054   0.038   9.376 -0.3236  1.2571 -0.4539
  231TP3     H212513   5.191   0.070   9.318  0.5891 -0.3866  0.7116
  232TP3      O12514   2.810   2.263   9.239 -0.7119 -0.5570 -0.7067
  232TP3     H112515   2.726   2.308   9.253 -1.9658 -2.3868 -1.8307
  232TP3     H212516   2.834   2.231   9.326 -0.2717  1.4245 -0.0655
  233TP3      O12517   0.153   4.365   0.360  0.0769  0.3265  0.4990
  233TP3     H112518   0.138   4.411   0.442 -0.8601 -1.1164  1.1715
  233TP3     H212519   0.209   4.291   0.383 -1.1523 -0.7759  0.1157
  234TP3      O12520   0.348   1.637   9.892 -0.0789 -0.2774  0.2599
  234TP3     H112521   0.425   1.635   9.835  0.8026  1.9722  1.2753
  234TP3     H212522   0.276   1.607   9.835  1.2540 -1.0027 -1.1344
  235TP3      O12523   3.374   4.164  10.150  0.4369  0.3134 -0.1050
  235TP3     H112524   3.279   4.155  10.163  0.6345 -0.7549  0.7514
  235TP3     H212525   3.391   4.122  10.066 -0.1398  2.6149 -1.4639
  236TP3      O12526   1.427   0.848   2.708 -0.3982 -0.3715 -0.4675
  236TP3     H112527   1.450   0.886   2.623  0.3670 -2.7726 -1.3922
  236TP3     H212528   1.411   0.924   2.764  3.0105  1.3994 -1.6194
  237TP3      O12529   0.454   3.908   9.189  0.1381  0.3800  0.2894
  237TP3     H112530   0.454   3.893   9.284 -1.6233  1.9626  0.6073
  237TP3     H212531   0.537   3.871   9.159 -0.1520 -2.0110  2.1030
  238TP3      O12532   0.421   1.130   1.115  0.1365  0.0194 -0.0863
  238TP3     H112533   0.358   1.107   1.047  0.3452  0.3639 -0.4047
  238TP3     H212534   0.506   1.118   1.073  0.2629  0.4070  0.0505
  239TP3      O12535   5.139   1.619   7.913 -0.1739  1.0625 -0.2456
  239TP3     H112536   5.234   1.626   7.902  0.7944 -2.9410  2.9727
  239TP3     H212537   5.115   1.697   7.964  1.1578  2.4683 -1.6552
  240TP3      O12538   4.432   3.905   0.614  0.0382 -0.3133  0.0089
  240TP3     H112539   4.417   3.971   0.545  0.3670 -0.9008 -0.6330
  240TP3     H212540   4.527   3.897   0.619 -0.0003 -1.5473 -0.7236
  241TP3      O12541   4.772   0.313   2.641 -0.2345  0.0428  0.1590
  241TP3     H112542   4.691   0.349   2.679 -1.4612  0.1640 -2.3642
  241TP3     H212543   4.806   0.385   2.588  0.2559 -0.7622 -0.6312
  242TP3      O12544   2.040   1.181   9.843 -0.3972  0.3688  0.0496
  242TP3     H112545   2.068   1.222   9.761 -0.3719  0.8427  0.2882
  242TP3     H212546   2.099   1.218   9.909 -0.3148 -0.1295  0.2576
  243TP3      O12547   3.517   3.615   8.633  0.0596  0.1228  0.2122
  243TP3     H112548   3.591   3.673   8.616  0.7708 -0.9686 -0.5295
  243TP3     H212549   3.450   3.643   8.571  0.7333 -0.4087 -0.7879
  244TP3      O12550   0.050   4.507   2.214  0.0983 -0.2380  0.2822
  244TP3     H112551   0.004   4.591   2.221 -0.8410 -0.6763 -0.3548
  244TP3     H212552   0.016   4.455   2.286  0.1604 -0.3125  0.2580
  245TP3      O12553   1.106   4.200   2.282 -0.5751  0.2209 -0.0342
  245TP3     H112554   1.140   4.287   2.297 -2.5313  0.6049  3.0387
  245TP3     H212555   1.154   4.143   2.342 -1.0056 -0.3591 -0.2156
  246TP3      O12556   4.713   2.100   0.011 -0.1634 -0.0470  0.3966
  246TP3     H112557   4.680   2.061  -0.070  1.3066  1.1039 -0.8225
  246TP3     H212558   4.802   2.130  -0.011 -0.2606  1.6115  1.9951
  247TP3      O12559   1.049   2.211   9.191  0.2912  0.2318 -0.2857
  247TP3     H112560   0.978   2.147   9.195  0.0299  0.4912 -0.7801
  247TP3     H212561   1.050   2.250   9.278  0.0383  0.0066 -0.1796
  248TP3      O12562   3.165   2.442   7.894  0.1594  0.3816 -0.0044
  248TP3     H112563   3.128   2.514   7.843 -0.3111 -0.3062 -0.6570
  248TP3     H212564   3.251   2.425   7.853  0.8038  1.3397  0.9008
  249TP3      O12565   4.643   3.145   1.248  0.3027  0.2204  0.8567
  249TP3     H112566   4.734   3.116   1.243  0.0306 -0.5710  0.3969
  249TP3     H212567   4.613   3.148   1.157 -0.7279 -1.4923  1.0983
  250TP3      O12568   1.661   4.304   9.233 -0.5139  0.7554  0.4651
  250TP3     H112569   1.642   4.212   9.212  0.3860  0.2592  1.7256
  250TP3     H212570   1.599   4.354   9.179 -1.2417 -0.5933  0.0090
  251TP3      O12571   2.672   5.060   3.031  0.3584 -0.4615  0.6646
  251TP3     H112572   2.686   5.021   2.944 -1.3584 -0.2624  0.2658
  251TP3     H212573   2.625   5.141   3.013 -1.1897 -1.0652  1.8590
  252TP3      O12574   4.327   3.234   8.285  0.1574 -0.1111 -0.7517
  252TP3     H112575   4.250   3.286   8.263 -0.3254  0.0991  1.2889
  252TP3     H212576   4.292   3.159   8.333  1.2598  0.5770  1.2273
  253TP3      O12577   1.564   1.619  10.087 -0.4637 -0.1351  0.3463
  253TP3     H112578   1.653   1.596  10.113 -0.0552 -0.7611 -1.4694
  253TP3     H212579   1.514   1.539  10.100 -0.4817 -0.1583  0.1253
  254TP3      O12580   1.921   4.221   9.708 -0.4888 -0.4447  0.4752
  254TP3     H112581   1.901   4.313   9.725  1.7478  0.3795 -0.8828
  254TP3     H212582   1.847   4.190   9.655  0.0656  1.4821 -1.6113
  255TP3      O12583   3.540   2.457  10.021 -0.3866  0.3079 -0.1329
  255TP3     H112584   3.476   2.474   9.952  0.2565  0.1078 -0.7877
  255TP3     H212585   3.500   2.495  10.099 -1.3011  0.1932 -0.5252
  256TP3      O12586   0.951   3.568   7.505  0.0803 -0.5468  0.4703
  256TP3     H112587   0.873   3.617   7.477  0.1161  0.0857  1.4285
  256TP3     H212588   0.982   3.525   7.426 -0.5879  0.1201 -0.1675
  257TP3      O12589   4.046   1.410   8.507 -0.2120 -0.0802 -0.0907
  257TP3     H112590   3.984   1.482   8.513  0.3551  0.5568 -1.4625
  257TP3     H212591   4.018   1.360   8.431  0.5397 -0.1743 -0.3194
  258TP3      O12592   0.181   1.722   7.373  0.2361 -0.6209  0.0093
  258TP3     H112593   0.213   1.733   7.462  0.0763  0.3760 -0.0407
  258TP3     H212594   0.105   1.664   7.381  1.0685 -1.6920  0.3254
  259TP3      O12595   4.389   0.569   1.189  0.3304 -0.3883  0.1767
  259TP3     H112596   4.460   0.607   1.240  0.6244 -0.2015 -0.3590
  259TP3     H212597   4.322   0.638   1.187  0.0167 -0.6604  0.8994
  260TP3      O12598   4.825   3.091   0.510  0.1155 -0.0194  0.2804
  260TP3     H112599   4.747   3.137   0.541 -0.9170 -1.0031 -0.7654
  260TP3     H212600   4.891   3.109   0.576 -0.8520  1.2322  0.9531
  261TP3      O12601   3.990   0.267   9.644 -0.4573  0.4965 -0.1557
  261TP3     H112602   4.004   0.254   9.550 -1.0545  1.8080 -0.4519
  261TP3     H212603   4.056   0.211   9.686 -1.4534 -1.6631 -1.2917
  262TP3      O12604   1.953   2.118   7.552 -0.2531 -0.1487 -0.3105
  262TP3     H112605   1.863   2.091   7.537  0.1661 -2.0847  0.2382
  262TP3     H212606   1.976   2.077   7.636  1.7415 -1.5199 -1.4133
  263TP3      O12607   2.822   4.154   1.922  0.0335 -0.1940  0.5092
  263TP3     H112608   2.754   4.151   1.855  0.2784  0.1507  0.2439
  263TP3     H212609   2.815   4.069   1.967  1.0713 -1.2022 -1.1245
  264TP3      O12610   4.767   0.096   8.071 -0.1618 -0.0679  0.4402
  264TP3     H112611   4.743   0.128   7.984 -0.3923  0.7185  0.7823
  264TP3     H212612   4.830   0.161   8.104  0.4855 -0.7524  0.5712
  265TP3      O12613   2.708   3.172   7.420  0.5324 -0.1962 -0.1315
  265TP3     H112614   2.761   3.189   7.342  1.0694  1.3398  0.5366
  265TP3     H212615   2.688   3.259   7.455 -3.7265 -0.5548 -1.1403
  266TP3      O12616   1.086   3.559   9.927 -0.0425 -0.0251  0.4874
  266TP3     H112617   1.115   3.572   9.837 -0.6147  0.5016  0.3726
  266TP3     H212618   0.997   3.524   9.919 -0.5080  1.0306  0.8401
  267TP3      O12619   3.917   0.312   7.835 -0.5178 -0.1405 -0.2306
  267TP3     H112620   3.915   0.305   7.740  0.7479  1.7989 -0.4548
  267TP3     H212621   3.866   0.390   7.854 -0.5886 -0.3978  0.6798
  268TP3      O12622   4.513   0.626   0.585  0.0770  0.2615  0.3197
  268TP3     H112623   4.555   0.648   0.668  0.4136  0.4028  0.1127
  268TP3     H212624   4.519   0.530   0.580  1.7824  0.3729 -0.4317
  269TP3      O12625   1.826   1.770   0.117  0.1425 -0.3138 -0.2506
  269TP3     H112626   1.822   1.860   0.085  1.4129 -0.0593  0.2627
  269TP3     H212627   1.911   1.738   0.088  0.0079 -1.1094  0.2018
  270TP3      O12628   1.927   0.139   9.858 -0.2178  0.2972  0.2282
  270TP3     H112629   1.847   0.097   9.890  0.9492 -0.9511  1.6916
  270TP3     H212630   1.898   0.199   9.789 -2.4657  0.3813  1.1930
  271TP3      O12631   5.072   1.834   8.067 -0.1301 -0.5517  0.0610
  271TP3     H112632   5.011   1.876   8.006  0.9764 -0.5304 -1.0643
  271TP3     H212633   5.064   1.885   8.148 -0.7793  0.1338 -0.4227
  272TP3      O12634   0.559   1.108   3.100 -0.0134  0.1614 -0.7009
  272TP3     H112635   0.473   1.066   3.096  0.5658 -1.5973  2.2087
  272TP3     H212636   0.541   1.201   3.089 -1.8305 -0.4284 -3.5567
  273TP3      O12637   0.069   1.506   0.264  0.3579  0.8134  0.0113
  273TP3     H112638  -0.022   1.537   0.269 -0.2510 -1.0608  1.8440
  273TP3     H212639   0.122   1.584   0.277 -0.9358  2.0509 -1.6373
  274TP3      O12640   1.497   2.835   8.804  0.1212  0.0654 -0.3086
  274TP3     H112641   1.565   2.856   8.869  0.8807  0.1265 -1.1042
  274TP3     H212642   1.542   2.841   8.720 -0.6183 -0.9350 -0.7875
  275TP3      O12643   0.459   1.470   7.715 -0.0481 -0.3161 -0.2051
  275TP3     H112644   0.524   1.540   7.715 -0.3150 -0.0245  1.5114
  275TP3     H212645   0.462   1.435   7.804 -0.5713 -1.8861 -0.7786
  276TP3      O12646   1.493   1.266   0.424 -0.1443 -0.2812 -0.0417
  276TP3     H112647   1.427   1.201   0.444 -1.6805  0.4124 -2.4120
  276TP3     H212648   1.470   1.342   0.478 -0.0403 -0.7218  0.6314
  277TP3      O12649   0.465   1.229   0.549  0.6633  0.1751  0.0902
  277TP3     H112650   0.552   1.266   0.562  1.4039 -0.8783 -1.5611
  277TP3     H212651   0.413   1.301   0.512  1.0781  0.5450  0.2285
  278TP3      O12652   4.557   1.703   0.195 -0.1751 -0.3060  0.2695
  278TP3     H112653   4.590   1.791   0.212 -0.2502 -0.0695 -0.7787
  278TP3     H212654   4.615   1.646   0.244  1.8899  0.0763 -1.5841
  279TP3      O12655   1.226   1.454   7.223 -0.2975  0.2155  0.2949
  279TP3     H112656   1.242   1.361   7.206 -3.1379 -0.4705  0.7823
  279TP3     H212657   1.187   1.486   7.141 -2.4189  0.0548  1.1706
  280TP3      O12658   2.655   4.041   8.716  0.3252 -0.1617 -0.3244
  280TP3     H112659   2.620   4.129   8.700  0.3797 -0.1876 -0.5970
  280TP3     H212660   2.691   4.014   8.632 -0.0642 -0.6119 -0.3562
  281TP3      O12661   0.209   1.063   1.501  0.2874  0.2528 -0.4639
  281TP3     H112662   0.299   1.039   1.476  0.4622  1.5569 -1.1444
  281TP3     H212663   0.182   1.126   1.435 -0.8106  0.5576  0.2571
  282TP3      O12664   4.796   0.904   8.097  0.5203 -0.0885 -0.1414
  282TP3     H112665   4.859   0.855   8.150 -0.5432 -1.1340  0.2049
  282TP3     H212666   4.749   0.958   8.160  1.5776  1.3058 -0.5019
  283TP3      O12667   3.919   3.796   1.186 -0.3149  0.1049 -0.0744
  283TP3     H112668   3.927   3.856   1.111 -1.1124 -0.7178 -0.8391
  283TP3     H212669   3.825   3.779   1.193 -0.3233  0.6170  1.4989
  284TP3      O12670   2.272   0.917  10.187  0.3462 -0.1770  0.1075
  284TP3     H112671   2.270   1.001  10.140  1.9162  0.3857  0.9871
  284TP3     H212672   2.194   0.871  10.156  0.7734  0.5762 -2.2967
  285TP3      O12673   3.114   4.771   1.833  1.0735  0.5462  0.0510
  285TP3     H112674   3.187   4.710   1.835 -0.9740 -2.0994  1.4126
  285TP3     H212675   3.051   4.730   1.773  0.4344  2.4659 -0.6673
  286TP3      O12676   3.080   0.137   7.911  0.5067  0.0959  0.1657
  286TP3     H112677   3.101   0.051   7.874 -0.7946  0.2738 -1.0982
  286TP3     H212678   3.098   0.128   8.004  0.9648 -1.3680 -0.0345
  287TP3      O12679   4.374   0.052   1.898 -0.0537  0.2579  0.1711
  287TP3     H112680   4.399   0.099   1.978  0.6482 -1.1046  0.7898
  287TP3     H212681   4.305  -0.007   1.926  1.4410 -1.5593  0.2586
  288TP3      O12682   2.633   1.147   0.353 -0.1092  0.0849  0.1673
  288TP3     H112683   2.597   1.234   0.337  1.5004  0.7349 -0.1177
  288TP3     H212684   2.573   1.107   0.416 -1.9140  0.6675 -1.1158
  289TP3      O12685   3.176   2.776   8.455  0.0659 -0.3016 -0.2879
  289TP3     H112686   3.156   2.831   8.530 -0.1722 -0.6299 -0.1068
  289TP3     H212687   3.129   2.694   8.471  0.4091 -0.5611 -0.5510
  290TP3      O12688   3.773   0.342   0.902  0.2585  0.5857 -0.1997
  290TP3     H112689   3.705   0.322   0.966  0.2177 -0.6569 -0.6180
  290TP3     H212690   3.779   0.264   0.847  1.0394  1.2177 -1.0532
  291TP3      O12691   0.523   2.437   1.991 -0.2058  0.4296 -0.3556
  291TP3     H112692   0.442   2.430   2.042  0.2535 -0.4561  0.2856
  291TP3     H212693   0.568   2.354   2.007  1.3094  1.3076  0.1053
  292TP3      O12694   1.121   3.405   0.724 -0.2315 -0.6297 -0.5586
  292TP3     H112695   1.073   3.349   0.785 -1.0380  0.6271 -0.0014
  292TP3     H212696   1.053   3.442   0.667  0.0816  0.9746  0.0727
  293TP3      O12697   1.816   0.972   0.777 -0.5579 -0.1013 -0.3654
  293TP3     H112698   1.829   0.942   0.687  0.3945 -0.6317 -0.0642
  293TP3     H212699   1.728   1.010   0.777 -0.0767  1.0996 -1.8417
  294TP3      O12700   4.217   3.920   7.825  0.4043 -0.2371 -1.1508
  294TP3     H112701   4.294   3.904   7.771 -0.3428 -0.6379 -2.1305
  294TP3     H212702   4.151   3.859   7.792 -0.1658 -0.3094  0.0467
  295TP3      O12703   2.011   5.029   8.281  0.3063 -0.4742  0.0351
  295TP3     H112704   2.010   5.107   8.227 -1.7205 -0.4105  0.1043
  295TP3     H212705   1.922   5.023   8.317 -0.2331 -3.8156 -1.4586
  296TP3      O12706   1.402   0.597   1.253 -0.8466  0.1685  0.0624
  296TP3     H112707   1.337   0.663   1.276 -0.1039  1.5314 -1.5870
  296TP3     H212708   1.361   0.547   1.182  0.3726  1.9906 -2.0414
  297TP3      O12709   0.068   2.673  10.330 -0.1100 -0.1553 -0.4988
  297TP3     H112710   0.155   2.698  10.300 -0.3149 -0.0727 -1.0317
  297TP3     H212711   0.021   2.645  10.251 -1.0381  1.1952 -0.4604
  298TP3      O12712   1.032   3.689   8.945  0.1851  0.0887  0.2793
  298TP3     H112713   1.035   3.707   8.851  0.3557  2.0459  0.6112
  298TP3     H212714   0.966   3.620   8.955  0.0927 -0.0678 -1.2526
  299TP3      O12715   1.997   0.879   2.864 -0.3306  0.2944  0.3326
  299TP3     H112716   1.948   0.807   2.824 -0.3500 -0.5989  1.8819
  299TP3     H212717   2.001   0.857   2.957  1.1939  1.4099  0.5809
  300TP3      O12718   3.243   2.054   0.096  0.3685 -0.6697 -0.2738
  300TP3     H112719   3.230   2.122   0.162  0.9734 -1.0707  0.2738
  300TP3     H212720   3.305   2.091   0.034  1.0127 -0.8558  0.2445
  301TP3      O12721   0.276   1.606   1.280 -0.0153 -0.1964  0.2131
  301TP3     H112722   0.357   1.603   1.229  0.7030 -0.3904  1.3365
  301TP3     H212723   0.299   1.571   1.365 -1.4118 -0.7118  0.4137
  302TP3      O12724   4.734   1.846   9.759 -0.5619 -0.4004 -0.0426
  302TP3     H112725   4.731   1.782   9.688  2.2410  1.5400 -2.1552
  302TP3     H212726   4.815   1.824   9.807  0.4529  1.4697 -0.8197
  303TP3      O12727   5.070   2.870   8.500  0.4799 -0.3346 -0.2735
  303TP3     H112728   4.986   2.910   8.477  0.0562 -0.4976  0.8964
  303TP3     H212729   5.135   2.934   8.470 -0.1623  1.0109  1.0352
  304TP3      O12730   1.301   4.533   9.797  0.2798 -0.1675  0.2658
  304TP3     H112731   1.227   4.559   9.851 -0.3451  0.5184 -0.8905
  304TP3     H212732   1.375   4.528   9.858 -0.1910  1.5780  1.0196
  305TP3      O12733   3.305   5.040   8.186 -0.6041 -0.0906  0.0986
  305TP3     H112734   3.212   5.026   8.168 -0.7276  0.5007  0.2285
  305TP3     H212735   3.329   5.113   8.128 -0.8462  1.4328  1.8320
  306TP3      O12736   1.060   3.533   2.065  0.4085 -0.2638 -0.3201
  306TP3     H112737   1.137   3.505   2.114  0.0121  0.6935  0.8850
  306TP3     H212738   1.094   3.593   1.999  0.6515  0.6686  0.6283
  307TP3      O12739   0.596   4.054   6.964  0.4425 -0.5159 -0.4209
  307TP3     H112740   0.642   4.047   6.880  0.3846  0.7942 -0.5696
  307TP3     H212741   0.571   3.964   6.984 -1.0495 -0.6647 -2.6356
  308TP3      O12742   1.352   4.644   6.829 -0.5419  0.0379 -0.0608
  308TP3     H112743   1.294   4.570   6.850 -0.2087  0.0860  1.1498
  308TP3     H212744   1.322   4.674   6.744 -0.0216 -2.1510 -1.0971
  309TP3      O12745   4.929   4.078   1.985  0.3396  0.3725  1.0773
  309TP3     H112746   4.879   4.015   1.933  0.9191  0.3237  0.5705
  309TP3     H212747   4.946   4.033   2.068  1.3952 -0.4321  0.4423
  310TP3      O12748   2.064   3.709   0.473  0.2243 -0.0678 -0.4859
  310TP3     H112749   2.024   3.761   0.403  1.1763  0.6354 -0.5313
  310TP3     H212750   2.002   3.715   0.546  0.5902  1.7078 -0.2623
  311TP3      O12751   0.527   0.180   0.804  0.1276 -0.2216  0.5362
  311TP3     H112752   0.467   0.115   0.842  0.4048 -1.4477 -1.0030
  311TP3     H212753   0.479   0.217   0.731 -0.0382  1.3986  1.4246
  312TP3      O12754   0.575   0.153  10.316  0.0478 -0.5765  0.3473
  312TP3     H112755   0.584   0.245  10.342  1.7811 -0.8151  0.7261
  312TP3     H212756   0.612   0.104  10.390  0.6064 -1.4895 -0.5065
  313TP3      O12757   1.368   2.987   1.854 -0.2155 -0.0452 -0.1867
  313TP3     H112758   1.287   3.020   1.815 -0.2158  0.9511  0.6282
  313TP3     H212759   1.410   3.064   1.892  1.4143 -0.4308 -1.0915
  314TP3      O12760   0.168   3.916   7.527 -0.4527 -0.1799 -0.1119
  314TP3     H112761   0.201   3.879   7.609 -0.8679  0.3536  0.3014
  314TP3     H212762   0.203   4.005   7.525 -0.1163 -0.3191 -0.7120
  315TP3      O12763   1.314   0.082   0.565  0.1179 -0.2309  0.6095
  315TP3     H112764   1.329  -0.010   0.543 -2.6407 -0.6145 -0.0645
  315TP3     H212765   1.297   0.125   0.481  0.5688  0.7330  0.9923
  316TP3      O12766   1.901   3.725   7.786  0.1217 -0.0632  0.1261
  316TP3     H112767   1.925   3.818   7.781  1.3800 -0.4234 -1.4022
  316TP3     H212768   1.805   3.726   7.788  0.1015  1.2703 -0.1424
  317TP3      O12769   3.867   4.519   3.116  0.1307 -0.0011 -0.3720
  317TP3     H112770   3.910   4.533   3.200 -0.3671  1.2106 -0.2966
  317TP3     H212771   3.870   4.604   3.072  1.4459 -0.8871 -2.1230
  318TP3      O12772   2.680   0.084   7.291 -0.2980  0.2832 -0.5549
  318TP3     H112773   2.736   0.013   7.259 -0.2797  0.6323 -1.3278
  318TP3     H212774   2.673   0.144   7.216  0.0426  1.3190  0.2192
  319TP3      O12775   2.606   3.453   2.443 -0.7407 -0.4312 -0.4265
  319TP3     H112776   2.654   3.533   2.465  0.6822 -0.7327 -2.1959
  319TP3     H212777   2.629   3.436   2.351 -4.2600 -0.6157 -1.4000
  320TP3      O12778   0.386   2.256   3.134  0.5250 -0.2682  0.3062
  320TP3     H112779   0.446   2.193   3.172  0.2587 -0.5980  0.1819
  320TP3     H212780   0.371   2.320   3.203  0.8182 -0.3220  0.4207
  321TP3      O12781   1.434   4.418   2.605 -0.0678  0.4375 -0.2261
  321TP3     H112782   1.361   4.479   2.611  0.8854  1.6501 -0.7220
  321TP3     H212783   1.437   4.377   2.692 -1.5180  0.1233 -0.2973
  322TP3      O12784   1.609   1.883   1.757  0.9007 -0.5773  0.3146
  322TP3     H112785   1.683   1.866   1.700  0.8369 -0.4326  0.1857
  322TP3     H212786   1.603   1.979   1.760  1.0980 -0.5780  0.8181
  323TP3      O12787   3.093   2.576   7.567 -0.3310 -0.3774 -0.5097
  323TP3     H112788   3.073   2.619   7.649  0.9125  1.8796 -1.3204
  323TP3     H212789   3.015   2.590   7.512 -0.5953 -0.6673 -0.2136
  324TP3      O12790   3.787   2.241   8.949  0.2332 -0.5985  0.3937
  324TP3     H112791   3.765   2.231   8.857 -0.6723 -1.4439  0.6900
  324TP3     H212792   3.866   2.296   8.949 -0.8861  1.1217 -0.7751
  325TP3      O12793   2.057   1.365   2.074  0.2900 -0.1293  0.6062
  325TP3     H112794   1.984   1.336   2.129 -0.1314  0.1884  0.2247
  325TP3     H212795   2.040   1.457   2.058  1.1072  0.0971  1.0092
  326TP3      O12796   0.809   2.489   9.086 -0.1513 -0.3395 -0.2139
  326TP3     H112797   0.845   2.417   9.034 -0.8608  0.1035 -1.3498
  326TP3     H212798   0.879   2.553   9.091  0.6689 -1.2806  1.2383
  327TP3      O12799   2.631   1.483  10.169 -0.2548 -0.0218 -0.0741
  327TP3     H112800   2.593   1.480  10.257 -1.0024  0.5348 -0.3656
  327TP3     H212801   2.698   1.415  10.170  0.6620  0.8374  1.3404
  328TP3      O12802   1.876   1.759   7.446 -0.1692 -0.0503 -0.3488
  328TP3     H112803   1.961   1.797   7.425  0.2915 -1.4443 -1.1051
  328TP3     H212804   1.839   1.732   7.362  0.1071 -2.4020  0.1966
  329TP3      O12805   4.666   4.558   1.276 -0.0072  0.1707  0.1174
  329TP3     H112806   4.654   4.483   1.334  0.5641  1.8166  2.5605
  329TP3     H212807   4.581   4.571   1.234 -0.2426 -1.4978  0.0045
  330TP3      O12808   5.011   2.747   8.200 -0.2465 -0.1824 -0.6246
  330TP3     H112809   4.980   2.715   8.116 -0.1709  1.1325 -1.1862
  330TP3     H212810   4.938   2.797   8.236  0.8780  2.3714 -1.6518
  331TP3      O12811   1.202   4.953   2.234  0.4437  0.1963 -0.6130
  331TP3     H112812   1.298   4.952   2.236  0.4438  0.3293 -0.3512
  331TP3     H212813   1.176   4.862   2.225  0.5987  0.1695 -0.7695
  332TP3      O12814   4.459   4.568   8.477  0.5950 -0.4153 -0.4720
  332TP3     H112815   4.446   4.639   8.540  1.8250  1.1094 -1.8499
  332TP3     H212816   4.552   4.570   8.457  0.4203 -1.5802 -1.5275
  333TP3      O12817   1.604   3.534   8.504 -0.0180 -0.3058  0.0702
  333TP3     H112818   1.538   3.597   8.477  0.5646 -0.1853 -1.1495
  333TP3     H212819   1.577   3.452   8.462 -1.4374 -1.2396  2.5975
  334TP3      O12820   1.797   3.915   2.262  0.4328 -0.1612  0.1326
  334TP3     H112821   1.715   3.881   2.299 -1.0150  0.0172 -2.6352
  334TP3     H212822   1.772   3.998   2.223  1.6776 -0.5831 -1.6540
  335TP3      O12823   4.241   3.783   8.524  0.1955 -0.0251 -0.0276
  335TP3     H112824   4.321   3.744   8.558 -2.2519 -3.9965  1.8375
  335TP3     H212825   4.234   3.751   8.434 -0.0049 -0.9458  0.3084
  336TP3      O12826   3.656   0.795   3.590 -0.0929  0.5907 -0.2182
  336TP3     H112827   3.671   0.888   3.606  1.1671  0.3571  0.0084
  336TP3     H212828   3.740   0.762   3.559  0.2601 -1.0375  2.2348
  337TP3      O12829   3.379   3.953   2.211  0.2155  0.0134  0.1450
  337TP3     H112830   3.289   3.936   2.238  0.3678  1.4333  1.7207
  337TP3     H212831   3.376   4.040   2.172  0.8978  0.0587  0.1873
  338TP3      O12832   1.848   5.060   8.780  0.8904  0.5677 -0.5058
  338TP3     H112833   1.910   5.068   8.707  2.4528  1.5798  0.8613
  338TP3     H212834   1.904   5.055   8.857 -0.6337 -2.2667  0.5568
  339TP3      O12835   1.069   3.676   3.731  1.0668  0.2751  0.0259
  339TP3     H112836   1.064   3.726   3.650  0.4967  0.3641  0.1154
  339TP3     H212837   1.018   3.597   3.715  2.1918 -0.4398 -0.2113
  340TP3      O12838   1.359   1.479   1.487  0.0067  0.5919  0.1421
  340TP3     H112839   1.315   1.550   1.440 -0.7224 -0.4548 -0.8154
  340TP3     H212840   1.449   1.482   1.457 -0.1526  0.7621 -0.3322
  341TP3      O12841   0.645   0.225   8.683 -1.0303 -0.4348  0.2080
  341TP3     H112842   0.645   0.159   8.614 -1.6073  1.4642 -1.7558
  341TP3     H212843   0.736   0.232   8.710 -0.7471 -1.0676 -0.5350
  342TP3      O12844   3.050   4.698   8.901  0.4594 -0.0362  0.2236
  342TP3     H112845   3.046   4.794   8.907  2.2453  0.1559 -0.9908
  342TP3     H212846   2.964   4.669   8.932 -0.1019  1.9425  0.6877
  343TP3      O12847   2.147   2.005   8.896 -0.1383  0.1162 -0.1471
  343TP3     H112848   2.207   2.051   8.838 -0.5831  1.6245  0.5218
  343TP3     H212849   2.190   1.921   8.914  1.0915  0.5829 -0.7888
  344TP3      O12850   2.189   0.668   7.660  0.1481  0.1903 -0.2169
  344TP3     H112851   2.274   0.675   7.703 -0.9792  1.2224  1.9857
  344TP3     H212852   2.134   0.621   7.722 -1.4022  1.2353 -0.7304
  345TP3      O12853   1.180   4.154   8.278 -0.0156 -0.0033 -0.2242
  345TP3     H112854   1.151   4.214   8.347  0.0698 -0.5433  0.2849
  345TP3     H212855   1.099   4.128   8.235 -0.1188 -0.0705  0.0082
  346TP3      O12856   2.203   3.130   7.031 -0.2009 -1.0536  0.4759
  346TP3     H112857   2.153   3.062   7.076  0.8715 -0.8554  2.0656
  346TP3     H212858   2.294   3.112   7.054  0.1121  0.9341  1.0081
  347TP3      O12859   0.329   0.270   9.229 -0.0057 -0.6526  0.3614
  347TP3     H112860   0.264   0.333   9.197 -0.4797 -1.6536 -0.6986
  347TP3     H212861   0.310   0.263   9.323  1.0029  1.8467  0.8456
  348TP3      O12862   3.931   2.917   2.561 -0.0457  0.0695 -0.6956
  348TP3     H112863   3.959   2.879   2.477  2.3681  0.3570 -0.0830
  348TP3     H212864   3.899   3.004   2.539  0.0056 -0.0772 -1.3727
  349TP3      O12865   2.385   3.655   0.956 -0.0164 -0.5587  0.0871
  349TP3     H112866   2.416   3.707   0.882 -0.2757 -0.9398 -0.2952
  349TP3     H212867   2.335   3.716   1.010 -1.7690 -0.7586 -1.2282
  350TP3      O12868   3.462   1.991   1.830 -0.4780  0.5959  0.1690
  350TP3     H112869   3.504   1.986   1.916  1.0825  0.5400 -0.5650
  350TP3     H212870   3.525   2.038   1.776 -1.4962  0.7344 -0.9133
  351TP3      O12871   2.642   0.601   2.763 -0.1996  0.1439 -0.8951
  351TP3     H112872   2.688   0.527   2.723 -1.3412  0.5384 -3.0910
  351TP3     H212873   2.665   0.676   2.707 -1.7484  0.7660 -0.7383
  352TP3      O12874   2.267   2.002  10.039 -0.1004  0.4114 -0.2985
  352TP3     H112875   2.253   1.937   9.970  1.0915 -1.2515  0.9543
  352TP3     H212876   2.312   2.074   9.995  1.0865 -0.8261 -1.1762
  353TP3      O12877   1.650   1.060   9.549 -0.4485 -0.2286  0.3278
  353TP3     H112878   1.745   1.048   9.558 -0.1763  1.6579  0.4594
  353TP3     H212879   1.630   1.025   9.462  0.4194 -0.4614  0.2053
  354TP3      O12880   5.104   1.201   9.188  0.1259 -0.4462  0.4424
  354TP3     H112881   5.197   1.180   9.180  0.4327  1.0401 -0.1396
  354TP3     H212882   5.095   1.288   9.150 -1.3933 -0.2713  1.1045
  355TP3      O12883   2.474   4.298   8.734 -0.6072  0.1742 -0.1042
  355TP3     H112884   2.426   4.311   8.653 -0.8873 -0.4999 -0.0553
  355TP3     H212885   2.564   4.326   8.713  0.1425 -2.9076 -1.6716
  356TP3      O12886   3.335   1.052   2.596  0.1790 -0.0095 -0.0506
  356TP3     H112887   3.324   0.978   2.536 -0.8566  0.2254 -0.1670
  356TP3     H212888   3.274   1.035   2.667 -1.1376  1.4239 -0.7762
  357TP3      O12889   0.638   2.908   8.905 -0.1266 -0.1469 -0.1162
  357TP3     H112890   0.639   2.845   8.834 -0.1201  0.3381 -0.5535
  357TP3     H212891   0.550   2.944   8.905  0.3514  1.0807 -0.9923
  358TP3      O12892   2.749   4.936   1.085  0.1066 -0.2331 -0.5648
  358TP3     H112893   2.669   4.959   1.132  0.7837 -0.5371  0.7876
  358TP3     H212894   2.801   5.016   1.084 -0.1803 -0.0422 -1.4221
  359TP3      O12895   1.386   1.555   1.103 -0.5032  0.1275  0.1585
  359TP3     H112896   1.476   1.524   1.103 -0.3977  0.3734 -1.0490
  359TP3     H212897   1.378   1.608   1.182  0.5547  0.5248  0.0035
  360TP3      O12898   4.761   5.104   0.647  0.0082  0.3644 -0.4536
  360TP3     H112899   4.815   5.124   0.723 -0.7905 -1.4726  0.6665
  360TP3     H212900   4.804   5.029   0.606 -0.4456  0.3260 -0.8652
  361TP3      O12901   4.086   3.254   9.604 -0.0667 -0.7541  0.0511
  361TP3     H112902   4.024   3.274   9.534  0.9591 -0.2908 -0.7783
  361TP3     H212903   4.100   3.160   9.599 -0.0149 -0.7267 -0.3792
  362TP3      O12904   1.247   4.746   6.582 -0.1436 -0.6977  0.2867
  362TP3     H112905   1.213   4.665   6.544 -0.8287 -0.6920  0.8509
  362TP3     H212906   1.237   4.811   6.512  1.5077 -1.3313 -0.5723
  363TP3      O12907   1.175   1.988   1.057 -1.0276  0.3194 -0.3294
  363TP3     H112908   1.176   2.078   1.090 -0.2190  0.7142 -1.3806
  363TP3     H212909   1.129   1.993   0.974  2.0522  0.4671 -2.1613
  364TP3      O12910   5.052   1.420   2.231 -0.0647 -0.1650 -0.0397
  364TP3     H112911   5.099   1.479   2.289  1.1634 -0.6972 -0.4714
  364TP3     H212912   5.114   1.399   2.162 -0.2018 -2.5145  0.4648
  365TP3      O12913   1.912   2.097   1.737  0.2598  0.0378  0.2126
  365TP3     H112914   1.839   2.152   1.762  0.1020 -1.3004  3.1323
  365TP3     H212915   1.872   2.017   1.703  0.4420  0.2395 -0.5073
  366TP3      O12916   1.841   1.661   0.679  0.4904 -0.1762  0.1059
  366TP3     H112917   1.929   1.698   0.690  1.1123 -0.9472 -1.8060
  366TP3     H212918   1.857   1.571   0.652 -0.9488 -0.7984  1.2485
  367TP3      O12919   2.734   1.298   9.705 -0.2738  0.1428 -0.9125
  367TP3     H112920   2.648   1.266   9.675 -0.3570  0.2526 -0.7924
  367TP3     H212921   2.713   1.367   9.768 -0.1018 -0.0425 -0.6482
  368TP3      O12922   2.095   4.715   7.962 -0.0327  0.1391 -0.1687
  368TP3     H112923   2.126   4.779   8.026 -0.2582  0.0216  0.0626
  368TP3     H212924   2.165   4.710   7.897  0.1201  0.3926 -0.0253
  369TP3      O12925   5.062   0.188   7.826  0.3847 -0.1599  0.1550
  369TP3     H112926   5.025   0.230   7.904  1.1151  1.7273 -0.4457
  369TP3     H212927   5.156   0.199   7.836  0.7365 -2.8462  0.5461
  370TP3      O12928   2.171   1.451   7.913 -0.1875  0.6040  0.4840
  370TP3     H112929   2.265   1.434   7.921  0.2702  2.7639  0.3549
  370TP3     H212930   2.154   1.444   7.819 -0.1828  0.1697  0.5112
  371TP3      O12931   3.776   1.397  10.148  0.0769 -0.3967  0.1006
  371TP3     H112932   3.734   1.320  10.110  1.0970 -0.7817 -0.2655
  371TP3     H212933   3.703   1.450  10.179 -0.6775 -1.1255 -0.3705
  372TP3      O12934   1.495   3.894   9.228 -0.3864  0.0417  0.2908
  372TP3     H112935   1.418   3.882   9.172 -0.1144 -1.4315  0.1892
  372TP3     H212936   1.461   3.932   9.309 -1.0058  0.7214 -0.2774
  373TP3      O12937   2.027   1.420   9.328 -0.3161 -0.5674  0.2156
  373TP3     H112938   2.073   1.497   9.359 -0.4737 -0.6501  0.6715
  373TP3     H212939   2.088   1.348   9.341 -1.1976 -0.9853  2.6248
  374TP3      O12940   1.068   3.984   1.853  0.2948  0.6172 -0.1842
  374TP3     H112941   1.132   3.991   1.782  0.2665 -1.6505 -0.4850
  374TP3     H212942   1.111   4.026   1.928  1.1779  1.1495 -0.9621
  375TP3      O12943   2.832   4.558   9.037  0.3709 -0.0759 -0.3975
  375TP3     H112944   2.825   4.519   9.124 -0.1344  1.4813  0.3055
  375TP3     H212945   2.745   4.596   9.022  0.7332  0.4570 -1.1899
  376TP3      O12946   1.524   4.665   2.760  0.5425 -0.2699 -0.2608
  376TP3     H112947   1.475   4.739   2.795  1.4384  0.8762 -1.3158
  376TP3     H212948   1.480   4.588   2.796 -1.5402  0.7026 -0.5486
  377TP3      O12949   4.862   2.052   8.383  0.4185  0.2612  0.2695
  377TP3     H112950   4.850   2.121   8.449  0.1783  0.2833  0.2021
  377TP3     H212951   4.945   2.073   8.341  0.6938  0.1175  0.7241
  378TP3      O12952   2.811   0.336   0.379  0.2503  0.2929 -0.2982
  378TP3     H112953   2.759   0.376   0.449 -0.1164 -1.4839  0.5101
  378TP3     H212954   2.747   0.289   0.326  0.9176 -1.5779  0.4656
  379TP3      O12955   2.138   2.409   7.464 -0.2957 -0.4357  0.7686
  379TP3     H112956   2.110   2.318   7.461  0.1785 -0.5817  0.5518
  379TP3     H212957   2.233   2.405   7.477 -0.2531  0.0224  0.6469
  380TP3      O12958   3.227   2.424   2.876 -0.7313 -0.3233  0.5665
  380TP3     H112959   3.312   2.457   2.847 -0.7432 -0.9693 -0.2178
  380TP3     H212960   3.233   2.424   2.972 -0.3285  0.8665  0.5556
  381TP3      O12961   3.044   0.790   1.154 -0.1366 -0.1021  0.2781
  381TP3     H112962   2.959   0.799   1.111 -0.2348 -0.9072  0.2720
  381TP3     H212963   3.031   0.717   1.215  0.7684 -0.7876 -0.3111
  382TP3      O12964   3.899   3.289   9.409 -0.7442 -0.0695  0.4134
  382TP3     H112965   3.929   3.339   9.333 -0.1901  1.3524  1.5007
  382TP3     H212966   3.804   3.293   9.404 -0.7137  1.2448  0.5300
  383TP3      O12967   0.840   2.967   9.251 -1.1700 -0.2691 -0.1120
  383TP3     H112968   0.860   2.998   9.163  1.1225 -0.0382  0.4337
  383TP3     H212969   0.751   2.999   9.268 -0.4488  2.5524 -1.0918
  384TP3      O12970   2.444   1.576   8.749 -0.0562 -0.4171 -0.2972
  384TP3     H112971   2.453   1.515   8.823  0.5012 -0.7230 -0.6064
  384TP3     H212972   2.370   1.543   8.699  0.5163 -1.1281 -0.7086
  385TP3      O12973   0.257   4.883   8.653 -0.2960 -0.7663 -0.6023
  385TP3     H112974   0.230   4.963   8.609 -1.7231 -0.1892  1.1902
  385TP3     H212975   0.195   4.817   8.622 -1.0609 -0.4453  0.1942
  386TP3      O12976   2.163   1.878   6.955  0.0553 -0.3059 -0.0584
  386TP3     H112977   2.110   1.955   6.974 -0.5965  0.4217 -3.9393
  386TP3     H212978   2.104   1.804   6.966 -0.2316  0.0159  0.6255
  387TP3      O12979   1.752   2.219   9.253 -0.3211  0.5056  0.2775
  387TP3     H112980   1.694   2.165   9.198 -0.0872 -0.3220  0.8279
  387TP3     H212981   1.773   2.163   9.327  0.4062  1.1582  0.5702
  388TP3      O12982   4.086   4.239   8.532  0.6862 -0.0150 -0.0853
  388TP3     H112983   4.035   4.161   8.511 -2.6290  1.9128  0.1789
  388TP3     H212984   4.120   4.268   8.447 -0.9246  0.0628 -0.7429
  389TP3      O12985   0.684   3.963   9.504  0.7972 -0.6057  0.4643
  389TP3     H112986   0.680   4.058   9.511  2.0338 -0.4526 -0.5328
  389TP3     H212987   0.592   3.935   9.495  0.5659  0.7463 -2.0235
  390TP3      O12988   4.960   4.923   8.416  0.2118  0.2493  0.6201
  390TP3     H112989   4.865   4.931   8.405  0.2576  1.5275  1.0227
  390TP3     H212990   4.988   5.010   8.444  1.5203 -0.0983  0.4299
  391TP3      O12991   0.582   2.734   6.765 -0.5185 -0.1300 -0.3449
  391TP3     H112992   0.617   2.686   6.690 -0.7912 -0.6778 -0.1234
  391TP3     H212993   0.493   2.756   6.739 -2.1063 -3.7991  1.3021
  392TP3      O12994   3.125   1.747   2.705  0.6603 -0.6719 -0.0137
  392TP3     H112995   3.209   1.777   2.740  0.9970 -1.9105  0.2814
  392TP3     H212996   3.066   1.821   2.717  1.4390 -0.1619  0.7757
  393TP3      O12997   2.395   0.617   7.429 -0.2165 -0.1461 -0.2454
  393TP3     H112998   2.361   0.646   7.344  0.7465 -0.1187 -0.6368
  393TP3     H212999   2.362   0.682   7.491 -0.3183  0.2568 -0.7153
  394TP3      O13000   3.596   5.080   2.150  0.8183  0.4548  0.0519
  394TP3     H113001   3.612   4.986   2.141  1.2056  0.4944  0.3080
  394TP3     H213002   3.519   5.096   2.096  0.4676 -0.0936  0.3736
  395TP3      O13003   4.576   3.376   6.987  0.3082 -0.3080 -0.0614
  395TP3     H113004   4.555   3.377   6.893  0.6866 -3.7564 -0.3022
  395TP3     H213005   4.655   3.429   6.994 -0.6622  1.4444 -1.3436
  396TP3      O13006   5.009   3.730   2.969 -0.3137 -0.2439  0.5490
  396TP3     H113007   5.019   3.825   2.966  0.0798 -0.2966 -0.6283
  396TP3     H213008   5.098   3.697   2.956 -0.6562 -0.7583 -0.5904
  397TP3      O13009   0.660   3.725   8.858 -0.2179 -0.9162  0.3698
  397TP3     H113010   0.681   3.757   8.946  0.5057 -2.3808  0.7478
  397TP3     H213011   0.565   3.713   8.860 -0.1024 -1.8279  1.2755
  398TP3      O13012   1.558   1.096   9.003  0.1133 -0.8562 -0.6175
  398TP3     H113013   1.622   1.031   8.976 -0.9222 -1.6424 -1.2390
  398TP3     H213014   1.490   1.093   8.935 -0.6960 -0.2009  0.1355
  399TP3      O13015   4.652   1.958   0.244 -0.1834  0.0685 -0.1948
  399TP3     H113016   4.663   1.999   0.158  1.2571  0.1189 -0.0121
  399TP3     H213017   4.638   2.032   0.304 -1.3690  0.0234 -0.3806
  400TP3      O13018   2.440   0.605   7.770  0.3107  0.2827 -0.3225
  400TP3     H113019   2.491   0.672   7.815  0.4528  0.8661 -1.3123
  400TP3     H213020   2.499   0.573   7.701 -0.0395 -0.3003 -0.3569
  401TP3      O13021   3.030   5.066   0.010  0.5051 -0.4310 -0.0126
  401TP3     H113022   3.066   5.095  -0.074  2.3969 -0.9518  0.5592
  401TP3     H213023   3.107   5.044   0.062 -0.6703 -1.2671  1.4492
  402TP3      O13024   0.687   0.245   7.221 -0.1882 -0.7560 -0.8896
  402TP3     H113025   0.649   0.157   7.211 -1.5566 -0.3723  0.5520
  402TP3     H213026   0.776   0.228   7.252 -0.9134 -1.6806  0.8769
  403TP3      O13027   3.111   0.294   9.913 -0.1514  0.0775  0.3627
  403TP3     H113028   3.029   0.295   9.963 -0.1939  1.2111  0.2969
  403TP3     H213029   3.084   0.304   9.822  0.0606  0.7974  0.3684
  404TP3      O13030   0.149   0.151   7.445  0.3212  0.6703  0.3003
  404TP3     H113031   0.070   0.191   7.482 -0.8077  0.1039 -1.3744
  404TP3     H213032   0.216   0.219   7.451 -1.0112  2.1157 -0.6120
  405TP3      O13033   3.387   4.510   8.327 -0.7314  0.7245 -0.0344
  405TP3     H113034   3.458   4.454   8.294 -0.7085  0.6961  0.0612
  405TP3     H213035   3.333   4.451   8.380 -1.5295  0.4511 -1.1035
  406TP3      O13036   3.689   2.897   9.929 -0.0236  0.2612 -0.0253
  406TP3     H113037   3.711   2.990   9.920  1.8271 -0.1088  0.1343
  406TP3     H213038   3.696   2.880  10.022  2.6001 -0.6135 -0.2887
  407TP3      O13039   3.921   2.067   9.679  0.1796 -0.6652 -0.0658
  407TP3     H113040   3.854   2.116   9.630  0.4548  0.6059  0.7914
  407TP3     H213041   3.910   1.977   9.649 -0.8991 -0.2318 -1.0812
  408TP3      O13042   1.929   3.658   2.232 -0.0278 -0.1282  0.3434
  408TP3     H113043   1.931   3.634   2.139 -3.2837  0.0062  0.1354
  408TP3     H213044   1.895   3.747   2.233 -2.3131 -0.9322  1.6837
  409TP3      O13045   3.043   0.874   7.385  0.0901  0.0384 -0.0032
  409TP3     H113046   3.112   0.875   7.319 -0.9969  1.8829 -1.2033
  409TP3     H213047   2.969   0.919   7.343 -1.6131 -1.2297  1.4789
  410TP3      O13048   3.449   3.353   7.924  0.3990 -0.2562 -0.4208
  410TP3     H113049   3.500   3.430   7.950  1.0015 -0.7804 -0.0302
  410TP3     H213050   3.367   3.390   7.889  0.7878  0.5690 -0.4966
  411TP3      O13051   2.090   5.183   1.717 -0.4367 -0.6764  0.0279
  411TP3     H113052   2.007   5.190   1.765 -1.0845  1.4648 -1.2395
  411TP3     H213053   2.155   5.162   1.784 -1.7394 -0.6738  1.3366
  412TP3      O13054   3.113   3.076   7.225 -0.2688 -0.3921 -0.3853
  412TP3     H113055   3.124   2.991   7.180 -1.0168 -1.4227  1.2928
  412TP3     H213056   3.112   3.054   7.318 -0.2010  1.5224  0.1031
  413TP3      O13057   2.410   0.496   9.718  0.0498 -0.2665  0.2342
  413TP3     H113058   2.344   0.431   9.743  1.4998 -2.5505 -1.4074
  413TP3     H213059   2.380   0.528   9.633  0.2339 -0.0836  0.2391
  414TP3      O13060   3.751   4.314   8.492  0.1997 -0.4148  0.0467
  414TP3     H113061   3.780   4.285   8.579 -0.8954  0.2300  0.6566
  414TP3     H213062   3.666   4.270   8.479 -0.4311  0.7622  0.0398
  415TP3      O13063   2.667   1.938  10.216 -0.7933 -0.2160 -0.4605
  415TP3     H113064   2.653   2.014  10.160 -1.5505 -0.2302 -0.2931
  415TP3     H213065   2.719   1.879  10.163 -0.7003  0.1713 -0.8041
  416TP3      O13066   4.259   3.582   0.744  0.2785  0.3412  0.4370
  416TP3     H113067   4.221   3.576   0.656 -0.8659  0.5061  0.9139
  416TP3     H213068   4.201   3.530   0.799  1.6389 -0.7322  0.9167
  417TP3      O13069   4.875   2.004   8.792  0.1210  0.0506  0.2369
  417TP3     H113070   4.866   1.914   8.759  0.5301 -0.5632  1.7160
  417TP3     H213071   4.960   2.005   8.835  0.7351  1.5663 -0.9290
  418TP3      O13072   0.211   2.200   7.313  0.5615  0.4070 -0.4145
  418TP3     H113073   0.218   2.170   7.222  0.1452 -0.6071 -0.1252
  418TP3     H213074   0.181   2.291   7.306 -0.3034  0.0761 -1.2896
  419TP3      O13075   0.992   1.076   0.529 -0.2349  0.0121 -0.5358
  419TP3     H113076   1.035   1.156   0.557 -1.4036  0.5392 -0.1835
  419TP3     H213077   0.962   1.094   0.440 -1.0106  0.1898 -0.2461
  420TP3      O13078   1.622   0.616   2.363  0.2064  0.6257 -0.3511
  420TP3     H113079   1.599   0.671   2.288 -1.4084 -1.2074 -1.2602
  420TP3     H213080   1.704   0.573   2.337  0.8625  1.6735 -0.0975
  421TP3      O13081   1.709   3.944   3.225  0.1787 -0.2478  0.5061
  421TP3     H113082   1.764   4.022   3.230 -2.4063  1.7017  0.4772
  421TP3     H213083   1.621   3.974   3.250 -0.7131 -3.4416  1.7737
  422TP3      O13084   0.096   3.258   0.182  0.4354  0.5678 -0.2706
  422TP3     H113085   0.132   3.172   0.162 -0.0910 -0.2611  1.9899
  422TP3     H213086   0.001   3.247   0.175  0.3968  1.3182 -1.1511
  423TP3      O13087   3.023   3.387   0.416  0.2748  0.5041  0.0641
  423TP3     H113088   3.066   3.469   0.390  0.6263  0.5933  0.9061
  423TP3     H213089   3.085   3.319   0.390  1.0931  0.6473  1.5424
  424TP3      O13090   3.648   2.923   7.009  0.0641  0.3489  0.3878
  424TP3     H113091   3.565   2.921   7.055  0.4236 -3.0090  1.1301
  424TP3     H213092   3.628   2.965   6.925 -1.8712  1.4153  1.3237
  425TP3      O13093   0.590   5.052   2.997  0.1272 -0.1766 -0.1290
  425TP3     H113094   0.595   5.105   2.918 -0.9092  1.1023  0.6288
  425TP3     H213095   0.670   5.073   3.045 -0.5307  1.1572  0.4209
  426TP3      O13096   1.045   3.484   7.026 -0.2299 -0.1632  0.1542
  426TP3     H113097   0.982   3.412   7.033  0.9478 -1.1007  1.8707
  426TP3     H213098   0.995   3.555   6.985 -1.5764 -1.7485 -1.1514
  427TP3      O13099   4.821   2.217   1.989 -0.5212  0.2818  0.0155
  427TP3     H113100   4.754   2.151   2.010 -0.8412 -0.3435 -2.6683
  427TP3     H213101   4.897   2.167   1.960  0.3615  1.0547  0.9150
  428TP3      O13102   5.185   1.101   0.196  0.1042  0.2945 -0.2438
  428TP3     H113103   5.243   1.042   0.147 -1.4344 -1.5744  0.0795
  428TP3     H213104   5.119   1.043   0.235 -1.3346  2.2185  0.3192
  429TP3      O13105   4.280   2.517   0.698 -0.1885 -0.0134  0.3165
  429TP3     H113106   4.370   2.486   0.688 -0.3749 -0.2689 -0.6952
  429TP3     H213107   4.251   2.479   0.781 -0.4265 -2.6715 -0.8734
  430TP3      O13108   4.502   4.478   8.737 -0.1214 -0.0278  0.1406
  430TP3     H113109   4.461   4.421   8.672  0.2795 -0.6134  0.3852
  430TP3     H213110   4.486   4.567   8.705 -1.9908 -0.2041  0.4926
  431TP3      O13111   2.447   1.702   7.973 -0.6093  0.3085 -0.0601
  431TP3     H113112   2.519   1.638   7.979 -0.5570  0.2323 -1.2405
  431TP3     H213113   2.438   1.736   8.061 -0.0230 -0.6764  0.3976
  432TP3      O13114   0.200   2.004   2.261  0.3517  0.4944 -0.0884
  432TP3     H113115   0.293   1.989   2.276  0.1374 -1.5559 -0.5492
  432TP3     H213116   0.190   2.002   2.166 -0.3056 -0.4918 -0.0170
  433TP3      O13117   5.210   1.903   2.980  0.7643  0.5396 -0.0035
  433TP3     H113118   5.302   1.930   2.987  0.8027  0.9164 -1.6589
  433TP3     H213119   5.206   1.854   2.898 -0.3885 -0.0829  0.4016
  434TP3      O13120   0.272   1.383   1.713  0.3963 -0.6478 -0.1786
  434TP3     H113121   0.272   1.288   1.726  2.2570 -0.7277 -0.4602
  434TP3     H213122   0.326   1.417   1.785  0.4917  0.1083 -0.5953
  435TP3      O13123   2.965   0.112   0.795  0.4896 -0.9093  0.0263
  435TP3     H113124   3.045   0.144   0.753 -0.4795 -0.4009 -1.5243
  435TP3     H213125   2.935   0.041   0.739 -1.3663  0.4164 -0.7607
  436TP3      O13126   3.588   1.124   2.516 -0.5462 -0.1782  0.2280
  436TP3     H113127   3.647   1.058   2.551  0.8591 -0.4974 -2.4620
  436TP3     H213128   3.501   1.097   2.547  0.5031 -0.0418  3.7803
  437TP3      O13129   3.958   2.483   2.352  0.2204 -0.0829 -0.3119
  437TP3     H113130   3.945   2.506   2.444 -2.1474 -0.7951 -0.3976
  437TP3     H213131   3.949   2.388   2.349 -1.0712  0.0354 -1.4019
  438TP3      O13132   1.483   0.526   2.582  0.7826  0.1080 -0.6748
  438TP3     H113133   1.475   0.610   2.626 -1.3214  0.1458 -1.0498
  438TP3     H213134   1.499   0.548   2.490 -2.9474  0.2787 -1.4180
  439TP3      O13135   2.290   3.886   9.189  0.2128  0.3062 -0.6351
  439TP3     H113136   2.225   3.816   9.196  0.6664  0.0440  1.4362
  439TP3     H213137   2.264   3.951   9.253  1.6121  0.5008 -0.2221
  440TP3      O13138   0.359   0.551   1.336 -0.2994 -0.2403 -0.1536
  440TP3     H113139   0.296   0.515   1.273  0.9949  0.1783 -1.7692
  440TP3     H213140   0.329   0.641   1.351 -1.2721 -0.6980  0.7749
  441TP3      O13141   5.211   0.633   1.686 -0.5920 -0.0824 -0.1545
  441TP3     H113142   5.168   0.718   1.676  1.8111  1.2142 -0.2796
  441TP3     H213143   5.204   0.592   1.600 -1.3295  0.1831 -0.2305
  442TP3      O13144   3.888   4.472   1.329  0.3816 -0.4628  0.0103
  442TP3     H113145   3.869   4.384   1.361  0.0999 -0.4673 -0.1674
  442TP3     H213146   3.976   4.491   1.362  0.4680 -0.8346 -0.0030
  443TP3      O13147   1.040   4.741   0.011  0.1095 -0.2574 -0.0604
  443TP3     H113148   0.981   4.812  -0.012  0.3122 -0.0637  0.0108
  443TP3     H213149   1.038   4.738   0.106  0.0998 -0.3472 -0.0641
  444TP3      O13150   0.295   4.299   7.757 -0.4935 -0.2744  0.0803
  444TP3     H113151   0.234   4.305   7.830  0.8341 -1.5960  1.3648
  444TP3     H213152   0.317   4.390   7.737 -1.2851  0.1327  0.9725
  445TP3      O13153   0.067   0.105   3.011  0.0998  0.2051 -0.1059
  445TP3     H113154   0.002   0.121   3.079  0.4395  0.7886  0.0833
  445TP3     H213155   0.144   0.075   3.059  0.3908  0.7639 -0.2161
  446TP3      O13156   1.378   4.541   0.004 -0.5603 -0.7101  0.5191
  446TP3     H113157   1.335   4.604  -0.054  2.8492  1.0066 -0.4386
  446TP3     H213158   1.325   4.542   0.083 -1.8687  1.7938 -0.2689
  447TP3      O13159   1.492   3.316   0.833  0.1720  0.0765 -0.0371
  447TP3     H113160   1.445   3.322   0.916  0.5143 -0.5497  0.2136
  447TP3     H213161   1.425   3.292   0.769  0.3593 -2.4491  0.5983
  448TP3      O13162   3.206   2.968  10.144  0.2125  0.0894  0.2882
  448TP3     H113163   3.249   2.883  10.156 -0.7205 -0.8311 -2.1790
  448TP3     H213164   3.130   2.965  10.202  0.5936 -0.4615  0.7625
  449TP3      O13165   0.478   3.127   9.669 -0.2942  0.2956 -0.0064
  449TP3     H113166   0.464   3.033   9.659 -0.6465  0.2197  1.0501
  449TP3     H213167   0.413   3.167   9.611 -1.2126 -0.1121  0.7131
  450TP3      O13168   0.667   4.829  10.087 -0.1481  0.5199 -0.2490
  450TP3     H113169   0.650   4.904  10.030  0.7140  0.7159 -0.2558
  450TP3     H213170   0.619   4.850  10.168 -1.7231  0.0438 -1.0154
  451TP3      O13171   4.469   1.699   8.911 -0.1932 -0.3119 -0.4947
  451TP3     H113172   4.379   1.693   8.943 -0.2211 -1.0904 -0.6938
  451TP3     H213173   4.463   1.675   8.818 -0.0303  1.3554 -0.9614
  452TP3      O13174   2.568   4.220   9.113  0.2134 -0.0848  0.3894
  452TP3     H113175   2.616   4.195   9.192  0.5647 -1.2801 -0.1788
  452TP3     H213176   2.537   4.137   9.077 -1.1182  0.5628  0.0029
  453TP3      O13177   4.202   1.524   7.368  0.5523 -0.7964  0.0726
  453TP3     H113178   4.132   1.569   7.416  0.0066 -3.0369  1.5018
  453TP3     H213179   4.186   1.548   7.276  1.1972  3.0059  0.7800
  454TP3      O13180   2.765   2.070   1.977  0.2668 -0.3943  0.1272
  454TP3     H113181   2.750   1.988   2.024 -0.1903 -0.0229  0.6405
  454TP3     H213182   2.747   2.138   2.042 -2.0318  0.1834 -1.0328
  455TP3      O13183   0.607   0.445   2.565 -0.1354  0.4723 -0.4467
  455TP3     H113184   0.539   0.401   2.617  1.0493  0.6863  1.3458
  455TP3     H213185   0.641   0.513   2.622  2.5799 -0.5309 -0.7517
  456TP3      O13186   4.450   4.355   2.511  0.2784 -0.4156  0.3724
  456TP3     H113187   4.452   4.339   2.606 -0.3736 -1.3545  0.2409
  456TP3     H213188   4.357   4.352   2.488  0.3695  0.5834 -0.1860
  457TP3      O13189   1.871   1.437   7.203 -0.4319  0.6327  0.0180
  457TP3     H113190   1.869   1.437   7.107  2.1058  2.3849 -0.1459
  457TP3     H213191   1.818   1.512   7.229  0.4495  1.3449 -0.1694
  458TP3      O13192   0.320   4.005   7.734 -0.4174 -0.4743 -0.6825
  458TP3     H113193   0.339   4.096   7.713  0.2011 -0.6390 -0.8516
  458TP3     H213194   0.406   3.962   7.736 -0.3887 -0.4978  2.0211
  459TP3      O13195   1.625   3.101   6.971  0.2778  0.2286  0.5002
  459TP3     H113196   1.540   3.121   6.932  0.3928  2.2075  1.1625
  459TP3     H213197   1.604   3.063   7.056  0.0342  0.4609  0.5457
  460TP3      O13198   0.993   0.043   9.265 -0.0945  0.1238 -0.2234
  460TP3     H113199   0.992  -0.053   9.266  0.8485  0.1050 -0.0436
  460TP3     H213200   1.012   0.067   9.356  4.9532  0.3132 -1.0396
  461TP3      O13201   5.108   0.875   2.672  0.3451  0.3271  0.6060
  461TP3     H113202   5.196   0.838   2.670  0.5870  0.7290 -3.0924
  461TP3     H213203   5.120   0.969   2.658 -0.6202  0.1392 -2.0947
  462TP3      O13204   1.251   2.685   7.285 -0.3564  0.4283 -0.0543
  462TP3     H113205   1.345   2.693   7.268 -0.3426  1.0984  0.3222
  462TP3     H213206   1.241   2.598   7.323 -0.1788 -0.5032 -2.0183
  463TP3      O13207   0.976   0.444  10.421 -0.2217  0.5369  0.7387
  463TP3     H113208   1.030   0.475  10.495 -1.2779  1.2529  1.2402
  463TP3     H213209   0.932   0.366  10.455  0.8326 -0.3227  0.1728
  464TP3      O13210   1.671   3.137   0.340  0.2059  0.0202 -0.0109
  464TP3     H113211   1.608   3.071   0.309 -0.4120  0.8783 -0.6392
  464TP3     H213212   1.617   3.213   0.362  1.0021  0.7326 -0.4515
  465TP3      O13213   0.686   4.635   2.032  1.1240  0.3114  0.0512
  465TP3     H113214   0.681   4.686   1.951  0.0818 -0.6210 -0.5024
  465TP3     H213215   0.675   4.700   2.102  1.2627  1.0253 -0.5754
  466TP3      O13216   2.455   2.235   9.434  0.1312  0.3283  0.1900
  466TP3     H113217   2.458   2.222   9.529  0.5150  0.1658  0.1551
  466TP3     H213218   2.374   2.191   9.407  1.1679 -1.6371  0.1410
  467TP3      O13219   5.070   1.161  10.340  0.1413  0.0675 -0.0190
  467TP3     H113220   4.987   1.177  10.385  0.2337  1.8412 -0.3977
  467TP3     H213221   5.132   1.140  10.410 -0.0203  1.4742  0.5720
  468TP3      O13222   1.751   1.399   0.415  0.5374  0.6627 -0.0957
  468TP3     H113223   1.674   1.346   0.394  0.6441  0.5346 -0.1672
  468TP3     H213224   1.825   1.350   0.379  0.7351  0.3730  0.6649
  469TP3      O13225   3.167   4.007   2.388  0.2695  0.8815 -0.2042
  469TP3     H113226   3.071   4.006   2.385  0.2566 -1.6443 -1.2124
  469TP3     H213227   3.189   3.967   2.473  0.4185  0.7098 -0.3220
  470TP3      O13228   4.813   3.989   0.423 -0.1298 -0.3979  0.4259
  470TP3     H113229   4.820   3.896   0.447 -0.0806 -0.2695  0.9229
  470TP3     H213230   4.842   4.036   0.502 -0.4063  0.0434  0.2663
  471TP3      O13231   3.751   3.769   1.423 -0.2035  0.3381 -0.5460
  471TP3     H113232   3.805   3.690   1.432 -1.6230 -0.7152 -0.8599
  471TP3     H213233   3.784   3.829   1.489 -0.4322 -1.3336  1.1620
  472TP3      O13234   4.664   1.396   9.438  0.0246 -0.0460 -0.2081
  472TP3     H113235   4.738   1.342   9.410  0.6977  1.5014 -1.5528
  472TP3     H213236   4.616   1.341   9.500  1.6173 -1.5349 -0.2381
  473TP3      O13237   0.133   4.605   8.855  0.2480  0.5894  0.8708
  473TP3     H113238   0.110   4.630   8.945 -0.3672  0.7324  0.6807
  473TP3     H213239   0.055   4.627   8.804 -0.5374 -2.1331  0.7611
  474TP3      O13240   3.740   4.736   3.326  0.1623  0.1580 -0.2908
  474TP3     H113241   3.794   4.807   3.292 -0.1505  1.9745  2.6429
  474TP3     H213242   3.804   4.671   3.356  0.9096  1.9207  2.3775
  475TP3      O13243   2.727   1.610   1.816  0.6598 -0.8736 -0.1500
  475TP3     H113244   2.703   1.564   1.897  1.3638 -0.1600  0.4816
  475TP3     H213245   2.807   1.567   1.787  0.8137 -0.6562 -0.0561
  476TP3      O13246   3.013   0.389   7.899 -0.5675 -0.3882  0.1514
  476TP3     H113247   3.052   0.302   7.908  1.9191  0.4443 -1.5293
  476TP3     H213248   3.057   0.443   7.964 -1.6565 -0.2154  0.7717
  477TP3      O13249   0.892   1.408   2.164 -0.4854 -0.2053  0.3757
  477TP3     H113250   0.945   1.329   2.171 -0.8862 -0.3718  1.9332
  477TP3     H213251   0.955   1.478   2.149 -0.0108 -0.6477  0.2723
  478TP3      O13252   3.983   1.981   1.257 -0.4387  0.4881 -0.1272
  478TP3     H113253   3.892   1.969   1.229 -0.0134 -0.3120 -1.2435
  478TP3     H213254   4.001   1.905   1.313 -1.1799  1.9081  2.1892
  479TP3      O13255   4.293   3.825   9.244  0.2098 -0.1248 -0.3609
  479TP3     H113256   4.372   3.793   9.288 -0.6178 -0.7457  0.7322
  479TP3     H213257   4.321   3.904   9.198  1.3968 -0.1617  0.2700
  480TP3      O13258   1.721   3.736   8.695  0.0687 -0.1258 -0.2239
  480TP3     H113259   1.690   3.682   8.622  0.3845  0.1255 -0.5431
  480TP3     H213260   1.690   3.689   8.773  0.0656 -0.6006 -0.5032
  481TP3      O13261   0.518   4.228   9.268 -0.3284 -0.3785  0.0682
  481TP3     H113262   0.597   4.201   9.220 -0.2054 -1.8601  1.0250
  481TP3     H213263   0.467   4.147   9.277 -0.5159 -0.0991  2.0892
  482TP3      O13264   1.114   4.324  10.272  0.7184  0.3641 -0.0389
  482TP3     H113265   1.161   4.313  10.190  2.8141  1.0971  0.9928
  482TP3     H213266   1.060   4.402  10.260  0.8294  0.3267 -0.7809
  483TP3      O13267   1.181   3.071   8.244 -0.1993 -0.2027 -0.1036
  483TP3     H113268   1.222   3.142   8.293 -0.7573  0.1656 -0.1545
  483TP3     H213269   1.178   2.998   8.306  3.3139 -1.3027 -1.0041
  484TP3      O13270   4.476   0.618   7.019 -0.1945  1.1352 -0.5250
  484TP3     H113271   4.445   0.668   7.094 -0.3253 -0.1274  0.2992
  484TP3     H213272   4.525   0.681   6.966 -0.0408  2.0305  0.6481
  485TP3      O13273   1.184   4.143   2.037  1.0626 -0.2509 -0.0725
  485TP3     H113274   1.153   4.137   2.128 -0.3581 -1.4596 -0.6165
  485TP3     H213275   1.194   4.237   2.023 -1.1475  0.1424  0.5656
  486TP3      O13276   1.080   3.763   3.484  0.0233  0.0005 -0.2306
  486TP3     H113277   1.166   3.787   3.451  0.0537  0.0006 -0.1512
  486TP3     H213278   1.019   3.799   3.420  0.0444  0.7794  0.1816
  487TP3      O13279   2.373   3.195   1.772  0.3149  0.1938 -0.2402
  487TP3     H113280   2.345   3.156   1.854  2.5831  1.8714  1.4625
  487TP3     H213281   2.352   3.288   1.781  1.5848  0.5915 -1.0596
  488TP3      O13282   0.153   0.049   8.015  0.4007 -1.0120  0.4775
  488TP3     H113283   0.112   0.130   7.985 -0.0119 -0.8855  1.3543
  488TP3     H213284   0.247   0.064   8.005  0.3262 -0.4073  0.6865
  489TP3      O13285   2.321   4.890   9.459 -0.1892  0.6180 -0.4740
  489TP3     H113286   2.346   4.827   9.526 -0.1300  1.6140  0.4692
  489TP3     H213287   2.225   4.888   9.458 -0.2650  1.8456  0.9123
  490TP3      O13288   4.665   3.838   1.503  0.2534 -0.1627  0.0592
  490TP3     H113289   4.622   3.885   1.431 -0.9555 -3.0311 -1.2168
  490TP3     H213290   4.757   3.835   1.477  0.4184  1.6008  0.2983
  491TP3      O13291   1.012   1.114   1.582 -0.1128  0.6189 -0.2363
  491TP3     H113292   1.017   1.188   1.643  0.6639  0.8497 -0.5688
  491TP3     H213293   1.073   1.137   1.512  0.3482 -0.4710 -0.2023
  492TP3      O13294   4.035   0.833   8.749  0.3509 -0.1142  0.2528
  492TP3     H113295   3.988   0.775   8.809 -1.6066 -0.0038 -1.0880
  492TP3     H213296   3.986   0.829   8.668  2.2698  0.6381 -1.0192
  493TP3      O13297   2.538   1.829   2.578  0.2899 -0.3031  0.3391
  493TP3     H113298   2.594   1.752   2.576  0.9696  0.1822  0.4656
  493TP3     H213299   2.485   1.818   2.658 -1.4629 -1.8963 -0.9475
  494TP3      O13300   0.468   4.868   8.849  0.3555 -0.1109  0.7743
  494TP3     H113301   0.386   4.883   8.802  1.7282  1.0173 -1.4045
  494TP3     H213302   0.447   4.799   8.912 -1.6741 -1.5203 -1.2917
  495TP3      O13303   0.918   4.590   9.054 -0.3641  0.3860  0.3250
  495TP3     H113304   0.919   4.509   9.001 -1.4148 -0.4975  1.5960
  495TP3     H213305   0.879   4.655   8.996  1.7726  0.3765 -1.2167
  496TP3      O13306   3.292   1.467   3.379 -0.1431 -0.0838  0.0077
  496TP3     H113307   3.280   1.511   3.295  0.4172  0.2817  0.1096
  496TP3     H213308   3.333   1.384   3.357  0.4327  0.2093 -0.0507
  497TP3      O13309   3.524   0.651   2.377  0.5666  0.0130 -0.3981
  497TP3     H113310   3.616   0.628   2.366  0.8784 -0.0444  1.9317
  497TP3     H213311   3.482   0.570   2.407 -0.3908 -0.0992 -1.9030
  498TP3      O13312   1.820   5.030   7.082  0.1661 -0.1334  0.7550
  498TP3     H113313   1.753   4.999   7.143  0.7813  0.8992  1.9984
  498TP3     H213314   1.780   5.106   7.039  0.0540 -0.3301  0.5099
  499TP3      O13315   0.206   1.409   0.015  0.0035  0.2092 -0.7196
  499TP3     H113316   0.145   1.444   0.081 -1.0586  0.3677 -1.7457
  499TP3     H213317   0.206   1.315   0.030  2.1837  0.4436  1.4809
  500TP3      O13318   1.276   0.843   1.299 -0.1965  0.4660 -0.1102
  500TP3     H113319   1.300   0.911   1.236  0.7040  0.5532  0.3066
  500TP3     H213320   1.185   0.861   1.321  0.2720  2.1001  0.6612
  501TP3      O13321   0.629   1.039   8.011 -0.3697 -0.2176 -0.6047
  501TP3     H113322   0.674   0.974   8.066 -1.5364 -2.5369 -2.2157
  501TP3     H213323   0.688   1.053   7.937  0.0056  0.8210 -0.1207
  502TP3      O13324   1.180   3.772   8.399 -0.0394  0.5263 -0.3837
  502TP3     H113325   1.131   3.748   8.320 -1.5772  0.9669  0.3774
  502TP3     H213326   1.114   3.813   8.455  1.0913  0.5044  0.9997
  503TP3      O13327   1.472   2.899   7.571  0.1192 -0.4483  0.6282
  503TP3     H113328   1.552   2.876   7.619 -0.8434 -1.3269  1.8649
  503TP3     H213329   1.466   2.832   7.502  1.8520  1.1910 -1.2402
  504TP3      O13330   1.274   3.104   9.675 -0.3720  0.4143  0.0517
  504TP3     H113331   1.188   3.072   9.649  0.2350  0.9142 -2.8926
  504TP3     H213332   1.323   3.025   9.699 -0.6459 -0.2897 -1.5921
  505TP3      O13333   4.849   4.896  10.040 -0.1477  0.1075  0.1293
  505TP3     H113334   4.832   4.929  10.128  0.3647 -0.8424  0.5953
  505TP3     H213335   4.783   4.828  10.026 -0.6600  0.7126 -0.4965
  506TP3      O13336   0.250   2.394   2.790 -0.6367 -0.4626  0.2867
  506TP3     H113337   0.286   2.467   2.739 -1.0975 -1.2194 -1.1977
  506TP3     H213338   0.324   2.334   2.801 -0.2542  0.2065  1.5194
  507TP3      O13339   2.214   1.167  10.291  0.3557 -0.0628 -0.7719
  507TP3     H113340   2.203   1.175  10.196 -0.1654 -3.3077 -1.0932
  507TP3     H213341   2.146   1.224  10.328 -0.3928  0.1424 -2.3883
  508TP3      O13342   2.179   0.913   8.281  0.9135  0.0116 -0.1747
  508TP3     H113343   2.105   0.956   8.322  0.7829 -0.4084  0.0279
  508TP3     H213344   2.166   0.927   8.187  1.0473  0.6972 -0.0939
  509TP3      O13345   4.547   3.391   9.891 -0.4613  0.1442 -0.0817
  509TP3     H113346   4.471   3.388   9.834 -0.4403 -0.3504 -0.0883
  509TP3     H213347   4.580   3.301   9.892 -1.9435 -0.4798  2.6953
  510TP3      O13348   4.506   2.321   1.960  0.2937  0.4396 -0.8126
  510TP3     H113349   4.482   2.232   1.936 -0.1769  0.4250 -0.3053
  510TP3     H213350   4.563   2.351   1.889  2.0807 -0.9562 -0.0397
  511TP3      O13351   3.722   4.589   8.807  0.0550  0.4247 -0.2391
  511TP3     H113352   3.764   4.579   8.722 -1.0923 -1.3688 -0.6602
  511TP3     H213353   3.715   4.684   8.820  2.4783  0.7537 -0.9599
  512TP3      O13354   0.025   0.575   7.372  0.2811  0.3155  0.5306
  512TP3     H113355   0.052   0.650   7.320  0.7042 -0.0140  0.2646
  512TP3     H213356  -0.070   0.571   7.362 -0.0903  2.2505  2.4890
  513TP3      O13357   1.793   1.007  10.120 -0.1635  0.2292  0.4454
  513TP3     H113358   1.802   1.082  10.061  1.6425 -0.8082 -0.7061
  513TP3     H213359   1.790   1.045  10.208 -0.4209  1.6827 -0.1708
  514TP3      O13360   4.747   4.932   1.746  0.0010 -0.0734 -0.1532
  514TP3     H113361   4.771   5.015   1.788  0.8892  0.1878 -1.1150
  514TP3     H213362   4.711   4.958   1.661 -2.6423 -0.5368  0.7446
  515TP3      O13363   0.249   0.980   9.145  1.0442 -0.0494 -0.5839
  515TP3     H113364   0.193   1.057   9.139  2.5702  1.0662 -1.1982
  515TP3     H213365   0.227   0.928   9.067 -0.4494 -0.6283  0.1632
  516TP3      O13366   1.124   0.099   8.022  0.4868  0.0609  0.4876
  516TP3     H113367   1.122   0.056   7.937 -0.1783  1.2500 -0.1232
  516TP3     H213368   1.034   0.126   8.038  0.6071 -0.1046  1.5585
  517TP3      O13369   0.726   4.526   0.459 -0.2944 -0.2068  0.2068
  517TP3     H113370   0.704   4.551   0.369 -2.2742  2.1879  1.2149
  517TP3     H213371   0.644   4.491   0.494  0.1957 -0.2692  1.3174
  518TP3      O13372   0.747   0.782   8.970  0.3362 -0.3181 -0.6562
  518TP3     H113373   0.749   0.752   8.879 -0.8101  0.3108 -0.9200
  518TP3     H213374   0.723   0.875   8.963  0.6899 -0.1487  0.2721
  519TP3      O13375   1.129   0.215   2.438 -0.1792  0.3269  0.3365
  519TP3     H113376   1.059   0.160   2.402  0.7551 -0.2468 -0.6516
  519TP3     H213377   1.089   0.302   2.445 -0.7514  0.2074 -1.0159
  520TP3      O13378   0.632   3.775   2.360 -0.3008  0.3732 -0.5684
  520TP3     H113379   0.606   3.793   2.270  2.1034  2.9818 -0.8720
  520TP3     H213380   0.594   3.848   2.410  0.9781  0.6839 -0.0207
  521TP3      O13381   4.652   2.199  10.003  0.8211 -0.0472 -0.0114
  521TP3     H113382   4.656   2.129  10.068  0.2661 -0.1957 -0.1305
  521TP3     H213383   4.561   2.199   9.973  0.9764  0.2770 -0.5034
  522TP3      O13384   4.353   1.703   1.100 -0.2112 -0.5720  1.0194
  522TP3     H113385   4.367   1.610   1.080  1.2964 -0.0234 -0.8207
  522TP3     H213386   4.433   1.745   1.070 -1.5163  1.5366  0.3340
  523TP3      O13387   5.126   1.206   8.328  0.2863  0.2232  0.1292
  523TP3     H113388   5.044   1.233   8.370  0.0561 -0.5259  0.1789
  523TP3     H213389   5.184   1.187   8.401  0.5287  0.8012  0.0939
  524TP3      O13390   1.549   4.197   2.767  0.1592 -0.2142  0.3401
  524TP3     H113391   1.634   4.233   2.794  1.2303 -1.2978 -1.3877
  524TP3     H213392   1.503   4.180   2.849  2.1788 -0.8931  1.3960
  525TP3      O13393   3.289   2.119   2.955 -0.1628 -0.0248 -0.0459
  525TP3     H113394   3.285   2.148   3.046  0.2706  0.5325 -0.1987
  525TP3     H213395   3.242   2.186   2.906 -0.0705 -0.1285 -0.2802
  526TP3      O13396   1.608   3.993  10.022 -0.0180  0.3150 -0.5640
  526TP3     H113397   1.645   3.907  10.002  0.0244  0.3756 -0.7466
  526TP3     H213398   1.514   3.980  10.012 -0.0572  0.1402 -0.0217
  527TP3      O13399   0.605   2.193   0.528 -0.1494 -0.2740 -0.2056
  527TP3     H113400   0.638   2.169   0.615  1.8458 -2.6161 -1.4928
  527TP3     H213401   0.570   2.112   0.492 -1.3374  0.7528 -1.4807
  528TP3      O13402   5.166   0.952   7.873  0.0172 -0.0002  0.3173
  528TP3     H113403   5.212   1.010   7.812 -0.0931 -0.5861 -0.3357
  528TP3     H213404   5.147   1.007   7.949  0.3065  0.6964 -0.1065
  529TP3      O13405   2.871   1.709   6.937 -0.2597 -0.1019 -0.6165
  529TP3     H113406   2.880   1.790   6.886 -2.0970  0.7624  0.3211
  529TP3     H213407   2.825   1.649   6.878 -1.1227  0.4131 -0.4861
  530TP3      O13408   1.610   3.012   0.591  0.8424 -0.4432  0.0140
  530TP3     H113409   1.644   2.930   0.556 -0.7463 -0.9910 -0.3408
  530TP3     H213410   1.629   3.077   0.523 -2.3065 -1.5068 -2.1546
  531TP3      O13411   2.835   0.302   8.778  0.1599 -0.5640  0.5192
  531TP3     H113412   2.899   0.318   8.848 -0.4162 -1.7620  1.3521
  531TP3     H213413   2.802   0.388   8.756  1.2347 -0.0405  0.8813
  532TP3      O13414   2.620   2.637   7.350  0.5611 -0.1650 -0.5880
  532TP3     H113415   2.639   2.547   7.325  0.6326 -0.9071  1.9027
  532TP3     H213416   2.540   2.659   7.303 -0.2149 -2.0170 -0.1912
  533TP3      O13417   3.637   3.249   0.308  0.2388  0.5297  0.4692
  533TP3     H113418   3.700   3.274   0.240 -0.5680 -0.3392 -0.6451
  533TP3     H213419   3.628   3.327   0.362  0.2550  1.5505 -0.9448
  534TP3      O13420   1.372   3.934   9.454 -0.0444  0.0351  0.6251
  534TP3     H113421   1.296   3.990   9.471 -1.6618 -1.4585 -1.2249
  534TP3     H213422   1.404   3.910   9.541 -1.0652  1.5111  1.4409
  535TP3      O13423   0.663   3.380   7.461  0.8476 -0.1384 -0.1906
  535TP3     H113424   0.628   3.389   7.372 -0.8871 -0.9631  0.3643
  535TP3     H213425   0.717   3.301   7.458  1.5025  0.3214 -0.7105
  536TP3      O13426   2.698   5.120  10.179  0.4027  0.4595 -0.1656
  536TP3     H113427   2.750   5.110  10.099 -0.2560 -1.7190 -0.3951
  536TP3     H213428   2.627   5.179  10.153 -0.1785 -0.7145 -1.4738
  537TP3      O13429   2.861   3.055   0.697 -0.3979 -0.2552 -0.3778
  537TP3     H113430   2.946   3.059   0.652 -0.6944  0.5880 -0.8758
  537TP3     H213431   2.855   2.965   0.728  0.2359 -0.5930 -1.2060
  538TP3      O13432   4.383   1.419   1.024 -0.2460 -0.6439 -0.2146
  538TP3     H113433   4.303   1.397   0.977 -0.5215  0.4598 -0.2982
  538TP3     H213434   4.374   1.375   1.108 -0.1060 -1.9907 -0.8822
  539TP3      O13435   1.851   3.443   0.130 -0.2563  0.1294  0.4397
  539TP3     H113436   1.807   3.402   0.056  0.4458 -0.5658  0.4039
  539TP3     H213437   1.927   3.388   0.148  1.3223  1.9345 -0.2722
  540TP3      O13438   3.318   3.635   1.387 -0.3937  0.2276  0.1873
  540TP3     H113439   3.283   3.718   1.419  0.0541 -0.2108  1.9310
  540TP3     H213440   3.287   3.570   1.450  0.3767 -0.7209 -0.3795
  541TP3      O13441   1.069   3.701   8.167 -0.3298  0.2006  0.3440
  541TP3     H113442   1.038   3.729   8.081  0.9164  0.1831 -0.1427
  541TP3     H213443   1.161   3.677   8.152 -0.4109 -0.8911  1.4510
  542TP3      O13444   2.511   4.870  10.258 -0.5229 -0.5049  0.1823
  542TP3     H113445   2.460   4.905  10.331 -2.6391 -2.0137 -0.4510
  542TP3     H213446   2.533   4.946  10.205 -1.6984  0.2722  0.7756
  543TP3      O13447   0.471   4.837   9.776  0.3834 -0.3867 -0.2964
  543TP3     H113448   0.546   4.892   9.798 -0.0418  0.7536 -1.5259
  543TP3     H213449   0.488   4.808   9.686 -0.7865  0.2041 -0.7349
  544TP3      O13450   2.413   4.418   7.879 -0.2385 -0.4161 -0.2638
  544TP3     H113451   2.408   4.493   7.937  1.2861 -0.9245  0.5764
  544TP3     H213452   2.429   4.456   7.792  1.2741  0.2219  0.2709
  545TP3      O13453   0.692   3.107   0.808  0.5543  0.3551  0.0366
  545TP3     H113454   0.763   3.094   0.745 -0.2074 -1.0986 -0.5554
  545TP3     H213455   0.612   3.098   0.757 -0.0802  0.5689  0.9613
  546TP3      O13456   1.915   4.111   0.992  0.3109 -0.1195  0.0092
  546TP3     H113457   1.885   4.198   1.020  0.3581 -0.6312  1.7796
  546TP3     H213458   1.842   4.053   1.014  0.4062 -0.5829 -0.8779
  547TP3      O13459   5.062   4.317   0.884 -0.0384 -0.0526 -0.1783
  547TP3     H113460   5.120   4.372   0.936 -0.4749  1.7126 -1.4692
  547TP3     H213461   4.974   4.346   0.908 -0.3732 -1.4655  0.4317
  548TP3      O13462   2.200   1.279   8.967  0.0152  0.5332  0.6118
  548TP3     H113463   2.244   1.212   9.020 -1.2457 -0.3109  0.6379
  548TP3     H213464   2.118   1.296   9.013 -0.4715  0.8037 -0.3223
  549TP3      O13465   0.833   3.006   2.294 -0.3663 -0.1492 -0.3312
  549TP3     H113466   0.858   2.972   2.380  0.0222  0.9298 -0.0003
  549TP3     H213467   0.797   2.930   2.247 -0.3057 -0.8092  0.6720
  550TP3      O13468   1.292   0.404   2.335 -0.2257  0.5030 -0.9999
  550TP3     H113469   1.260   0.480   2.383  2.1923  0.7821  0.3478
  550TP3     H213470   1.234   0.333   2.360 -1.1175  1.3966 -0.4436
  551TP3      O13471   2.645   4.319   1.278  0.5541  0.5182 -0.1707
  551TP3     H113472   2.725   4.335   1.228  0.7817  0.4799  0.1780
  551TP3     H213473   2.577   4.365   1.229  0.6844  0.0499 -0.7873
  552TP3      O13474   1.226   3.185   7.645  0.4680 -0.4817 -0.1588
  552TP3     H113475   1.161   3.200   7.714  0.8729  0.2936  0.0664
  552TP3     H213476   1.231   3.089   7.637  0.6699 -0.5980  1.1381
  553TP3      O13477   2.208   2.108   6.756 -0.1045 -0.3994  0.5568
  553TP3     H113478   2.283   2.127   6.812  0.0442 -2.0981  0.9896
  553TP3     H213479   2.183   2.019   6.779 -2.2958  0.1387  0.4492
  554TP3      O13480   0.281   0.166  10.399  0.5993 -0.5444 -0.1549
  554TP3     H113481   0.257   0.101  10.333 -0.7239 -0.1029 -0.1306
  554TP3     H213482   0.373   0.147  10.418  0.6767 -1.4109 -1.2732
  555TP3      O13483   5.072   3.854   8.086  0.3215 -0.1851  0.2809
  555TP3     H113484   5.139   3.923   8.088 -0.7249  0.8454  1.9113
  555TP3     H213485   5.033   3.856   8.173 -0.4165 -2.2138  0.0430
  556TP3      O13486   4.853   4.997   7.279 -0.2734  1.0689  0.1891
  556TP3     H113487   4.862   4.956   7.194 -1.2213 -0.8188  0.9506
  556TP3     H213488   4.806   5.079   7.261 -2.4295 -0.3018 -0.9276
  557TP3      O13489   2.411   0.167   8.814 -0.1233  0.4033  0.8219
  557TP3     H113490   2.349   0.115   8.866  0.6596 -0.6002  0.8025
  557TP3     H213491   2.420   0.249   8.862 -1.1062  0.3809  1.0677
  558TP3      O13492   0.613   2.045   9.954  0.3442  0.0994 -0.5490
  558TP3     H113493   0.660   2.000   9.884  1.1897  1.1358 -0.6738
  558TP3     H213494   0.524   2.009   9.950  0.4572 -0.0862 -1.9378
  559TP3      O13495   1.775   5.165   0.727  1.0150  0.1051  0.4770
  559TP3     H113496   1.836   5.219   0.676  0.8832  0.1644  0.3803
  559TP3     H213497   1.689   5.189   0.693  1.0359 -1.3356 -0.7042
  560TP3      O13498   2.903   3.742   9.634  0.5929 -0.0021 -0.2292
  560TP3     H113499   2.867   3.656   9.656 -0.1416  0.2377 -0.4744
  560TP3     H213500   2.826   3.798   9.623  1.0729  0.7404  0.1338
  561TP3      O13501   3.425   5.083   0.067 -0.0064 -0.0554 -0.5845
  561TP3     H113502   3.378   5.124  -0.006 -1.1334  1.8350  1.0693
  561TP3     H213503   3.487   5.151   0.096  2.2744 -1.7022 -1.3129
  562TP3      O13504   2.044   2.015   8.055 -0.1332  0.4106 -0.6045
  562TP3     H113505   2.072   2.044   8.142  1.1883  0.6545 -1.0939
  562TP3     H213506   1.977   1.948   8.073 -0.1039  0.6765  0.5879
  563TP3      O13507   3.869   1.836   7.614 -0.1417 -0.5332  0.0835
  563TP3     H113508   3.906   1.752   7.642 -0.2004 -0.1934  1.2421
  563TP3     H213509   3.776   1.818   7.602 -0.8533  0.0140  3.5401
  564TP3      O13510   2.014   0.535   7.822 -0.1207  0.1483  0.0301
  564TP3     H113511   1.923   0.507   7.812  0.1430 -0.8137  0.2770
  564TP3     H213512   2.045   0.490   7.901  1.0202 -0.7207 -0.8796
  565TP3      O13513   3.491   1.662   3.257  0.0671  0.3365 -0.2601
  565TP3     H113514   3.570   1.610   3.274  2.3296  2.5678 -2.8735
  565TP3     H213515   3.448   1.618   3.184 -0.0401  0.1693 -0.0962
  566TP3      O13516   1.081   2.769   9.374 -0.2201 -0.3266  0.1809
  566TP3     H113517   1.117   2.769   9.462  0.6802 -2.2037 -0.1365
  566TP3     H213518   0.991   2.737   9.385 -1.1154  2.0920  0.6799
  567TP3      O13519   2.329   1.942   8.414  0.5215 -0.0558  0.4420
  567TP3     H113520   2.331   1.858   8.460  3.9830 -0.6963 -0.5885
  567TP3     H213521   2.416   1.979   8.429  0.2543  1.7669 -1.9564
  568TP3      O13522   2.198   2.883   7.974  0.1983 -0.5131  0.1220
  568TP3     H113523   2.139   2.918   8.041 -0.9396 -1.1725 -0.4931
  568TP3     H213524   2.270   2.945   7.970 -1.8497  1.9562 -1.1295
  569TP3      O13525   3.206   3.879   1.481  0.2239 -0.1841 -0.2862
  569TP3     H113526   3.140   3.931   1.526  1.5585  0.8704  0.5459
  569TP3     H213527   3.254   3.835   1.551  2.1573  1.2717 -0.5951
  570TP3      O13528   0.986   2.589   9.759 -0.2911 -0.7259  0.3918
  570TP3     H113529   0.951   2.595   9.848 -0.1219 -0.0153  0.4161
  570TP3     H213530   0.921   2.537   9.712 -1.5152  0.7493  0.3809
  571TP3      O13531   3.415   4.338   0.361 -0.4383 -0.1749 -0.6547
  571TP3     H113532   3.325   4.358   0.335 -1.1592  1.1323  2.4181
  571TP3     H213533   3.407   4.300   0.448  1.9792 -0.6903 -0.5717
  572TP3      O13534   4.826   2.502   8.031 -0.0375  0.0803  0.0407
  572TP3     H113535   4.845   2.456   7.949 -0.9846 -2.5487  1.1938
  572TP3     H213536   4.752   2.558   8.010 -0.7795 -1.1463 -0.7375
  573TP3      O13537   4.343   1.827   0.076 -0.1733  0.3150  0.2581
  573TP3     H113538   4.278   1.787   0.134 -2.6596  2.4038 -0.8266
  573TP3     H213539   4.427   1.809   0.117 -1.4400 -2.1389  2.0489
  574TP3      O13540   4.002   5.048   6.881  0.0245 -0.1218 -0.2758
  574TP3     H113541   3.943   5.020   6.811  0.7324  0.3490 -1.0867
  574TP3     H213542   4.036   4.967   6.918 -1.6438 -0.4285  0.6837
  575TP3      O13543   2.580   4.521   1.819 -0.7331  0.1478  0.8688
  575TP3     H113544   2.514   4.455   1.842 -1.4468  0.5989  0.1902
  575TP3     H213545   2.602   4.501   1.728 -1.9681  1.6267  0.1879
  576TP3      O13546   1.606   2.943   9.512  0.9703  0.0484 -0.0022
  576TP3     H113547   1.546   2.990   9.453  0.9368  2.1029  1.5531
  576TP3     H213548   1.548   2.898   9.573  1.0083 -0.5073 -0.3759
  577TP3      O13549   1.003   0.449   8.321 -0.1011  0.7854 -0.0732
  577TP3     H113550   1.035   0.359   8.330  1.4388  1.2604 -0.5478
  577TP3     H213551   1.081   0.503   8.333 -0.5213  1.9681 -2.1733
  578TP3      O13552   3.301   1.632   9.611  0.4820 -0.4362 -0.3087
  578TP3     H113553   3.337   1.590   9.533  2.2638  2.3748 -1.1745
  578TP3     H213554   3.211   1.655   9.587  0.6710 -0.5442 -1.1595
  579TP3      O13555   1.423   2.800   2.274 -0.1629 -0.2500 -0.1506
  579TP3     H113556   1.439   2.888   2.309 -1.2444  0.0957 -0.4961
  579TP3     H213557   1.343   2.809   2.222 -0.5272 -1.5302  0.1609
  580TP3      O13558   3.431   2.822   2.280 -0.6559 -0.0886  0.9178
  580TP3     H113559   3.488   2.760   2.326  0.8549 -0.4321 -1.2045
  580TP3     H213560   3.417   2.893   2.342  0.9957 -0.6519  2.0108
  581TP3      O13561   0.974   1.711   0.396  0.2474  0.3985 -0.5117
  581TP3     H113562   0.902   1.718   0.458 -0.0364 -1.5974 -0.5376
  581TP3     H213563   1.042   1.662   0.443  1.9770  2.9204 -0.2045
  582TP3      O13564   5.053   3.466   9.135  0.0225 -0.2207  0.5103
  582TP3     H113565   4.983   3.487   9.074 -0.0562 -1.1747  0.2657
  582TP3     H213566   5.083   3.379   9.109  0.7847 -0.1463  1.0903
  583TP3      O13567   3.808   3.791   2.095 -0.3560  0.1889  0.7546
  583TP3     H113568   3.889   3.795   2.146  0.6974 -1.0476 -0.7331
  583TP3     H213569   3.788   3.883   2.075  0.5927  0.5150  1.2519
  584TP3      O13570   1.547   4.430   9.921  0.2556  0.4440  1.0097
  584TP3     H113571   1.597   4.440   9.840 -0.9394  1.7476  0.3869
  584TP3     H213572   1.605   4.380   9.979  1.8652  1.0495 -0.0030
  585TP3      O13573   2.385   1.897   3.087  0.1953 -0.1250  0.3857
  585TP3     H113574   2.333   1.974   3.110 -0.1807 -0.0644 -0.6092
  585TP3     H213575   2.341   1.825   3.132 -0.7901 -0.0753 -0.4588
  586TP3      O13576   1.491   0.155   8.478 -0.0680  0.1252  0.0019
  586TP3     H113577   1.433   0.169   8.553 -0.3252  1.8244 -0.4632
  586TP3     H213578   1.578   0.142   8.517  0.0417  2.3019  0.6061
  587TP3      O13579   3.636   3.641   8.225 -0.0869 -0.6130 -0.0216
  587TP3     H113580   3.626   3.645   8.130  0.2155 -0.1611 -0.0369
  587TP3     H213581   3.642   3.548   8.244  0.8675 -0.6725 -0.5526
  588TP3      O13582   2.915   0.798  10.148  0.4123 -0.5475  0.0549
  588TP3     H113583   2.999   0.845  10.152 -0.4043  0.9281  0.5091
  588TP3     H213584   2.867   0.828  10.225 -0.7246 -1.0406 -0.4444
  589TP3      O13585   4.765   4.938   7.572  0.0916 -0.1428  0.4513
  589TP3     H113586   4.730   5.025   7.556  0.9611 -0.0912 -1.3464
  589TP3     H213587   4.836   4.928   7.509 -0.1282 -2.2423  0.4603
  590TP3      O13588   1.857   3.972   9.823  0.0667 -0.5479  0.4908
  590TP3     H113589   1.779   3.930   9.786  1.5167 -1.3808 -1.8782
  590TP3     H213590   1.843   4.066   9.808 -0.1102 -0.7578 -0.8348
  591TP3      O13591   2.777   3.022   8.052  0.1713  0.3218  0.0352
  591TP3     H113592   2.778   2.982   7.965 -1.7816 -1.1865  0.6151
  591TP3     H213593   2.794   3.115   8.037 -0.1775  0.0985 -1.9556
  592TP3      O13594   1.480   3.842   1.854  0.1573 -0.2070 -0.2189
  592TP3     H113595   1.527   3.809   1.931 -0.8512  0.0283  0.5153
  592TP3     H213596   1.459   3.933   1.876 -2.4199 -0.8610  0.3797
  593TP3      O13597   2.586   3.479   8.148 -0.5027 -0.5437  0.8909
  593TP3     H113598   2.609   3.548   8.210  2.4078  0.5601 -1.2175
  593TP3     H213599   2.530   3.522   8.083 -0.1313 -0.6097  0.5230
  594TP3      O13600   4.385   4.451   7.608  0.0123  0.8037 -0.0987
  594TP3     H113601   4.379   4.404   7.691 -0.4352  0.6276 -0.2315
  594TP3     H213602   4.474   4.488   7.609 -0.0181  0.8791  0.4943
  595TP3      O13603   3.046   3.736   9.209  0.5360 -0.1299 -0.7264
  595TP3     H113604   3.075   3.683   9.283  1.6730  3.3512  1.5857
  595TP3     H213605   2.956   3.760   9.230  0.7572  0.6127 -0.5928
  596TP3      O13606   2.726   1.815   1.609 -0.3945 -0.0413  0.9122
  596TP3     H113607   2.687   1.760   1.678 -1.3568 -1.5121 -0.7275
  596TP3     H213608   2.738   1.756   1.535  1.3013  1.3287  0.0290
  597TP3      O13609   2.695   1.814   7.656 -0.4014 -0.2947 -0.4729
  597TP3     H113610   2.757   1.782   7.721 -0.6553 -1.6317 -0.8574
  597TP3     H213611   2.728   1.782   7.572 -0.5459  0.6699 -0.9136
  598TP3      O13612   0.991   5.209   0.136  0.7433  0.0251  0.6608
  598TP3     H113613   1.035   5.293   0.123 -1.2785  1.3590  1.7856
  598TP3     H213614   0.974   5.205   0.230 -2.0999  0.0044  0.2537
  599TP3      O13615   2.622   5.147   7.513  0.1869  0.3602  0.3852
  599TP3     H113616   2.664   5.065   7.489  0.0713 -0.3892  2.4910
  599TP3     H213617   2.623   5.199   7.433  0.2470 -1.6830 -1.0178
  600TP3      O13618   2.759   3.195   9.274  0.4483 -0.2175  0.5014
  600TP3     H113619   2.814   3.274   9.274  2.2566 -1.4095 -1.1822
  600TP3     H213620   2.690   3.214   9.211  0.5596  0.1924  0.4982
  601TP3      O13621   3.411   0.987   1.355  0.5076 -0.3852 -0.3034
  601TP3     H113622   3.386   0.911   1.408  0.0263  1.3742  2.1664
  601TP3     H213623   3.500   1.008   1.382  0.9633 -0.5165 -1.6006
  602TP3      O13624   3.864   4.283   0.883  0.5088 -0.0310  0.3750
  602TP3     H113625   3.793   4.340   0.912  0.6338  1.1105 -1.3794
  602TP3     H213626   3.874   4.303   0.790  1.6209 -1.8163  0.0583
  603TP3      O13627   4.147   2.881   8.033  0.2855 -0.5445 -0.4127
  603TP3     H113628   4.081   2.817   8.061 -0.7080 -0.0182 -1.4926
  603TP3     H213629   4.125   2.960   8.082  1.4292 -0.9352  0.8147
  604TP3      O13630   1.961   4.360   0.218 -0.4471 -0.4526 -0.4475
  604TP3     H113631   1.997   4.447   0.197 -3.4417  1.4895  1.6459
  604TP3     H213632   1.899   4.342   0.148  1.3198 -1.8120 -1.7679
  605TP3      O13633   3.919   4.596   1.061  0.2586 -0.0001  0.5361
  605TP3     H113634   3.927   4.570   1.153  1.7357  1.5963  0.9124
  605TP3     H213635   3.977   4.537   1.014  0.3849 -0.0736  0.7859
  606TP3      O13636   0.594   2.466   9.692 -0.4340 -0.0977  0.0085
  606TP3     H113637   0.559   2.380   9.715 -0.4232  0.1258  0.8755
  606TP3     H213638   0.526   2.505   9.637 -0.2199 -0.8518 -0.8135
  607TP3      O13639   2.905   4.158   3.439 -0.1492  0.0549  0.0190
  607TP3     H113640   2.924   4.243   3.401 -2.2807 -0.5410 -2.6714
  607TP3     H213641   2.978   4.102   3.411 -1.4264 -0.2525 -3.1340
  608TP3      O13642   0.757   3.516   9.623  0.1874 -0.0102  0.0603
  608TP3     H113643   0.801   3.449   9.572 -1.7337 -1.4370  0.1608
  608TP3     H213644   0.697   3.558   9.561  0.9107  1.2306  0.1533
  609TP3      O13645   4.761   3.222   9.329  0.2467 -0.1461 -0.1866
  609TP3     H113646   4.709   3.219   9.410  0.2200  1.0328 -0.1444
  609TP3     H213647   4.759   3.314   9.303  3.3983  0.2408  0.5320
  610TP3      O13648   4.850   2.229   8.643 -0.6843 -0.1384 -0.2185
  610TP3     H113649   4.816   2.153   8.692  0.8472 -1.3322 -0.9179
  610TP3     H213650   4.945   2.221   8.650 -0.4762  1.0950 -1.2696
  611TP3      O13651   0.568   2.984   7.988  0.3578 -0.4716  0.3410
  611TP3     H113652   0.570   2.993   8.083  0.5965  0.5510  0.2528
  611TP3     H213653   0.660   2.985   7.962  0.2952 -0.8056  0.1091
  612TP3      O13654   5.095   4.696   2.260 -0.4343 -0.0252 -0.4701
  612TP3     H113655   5.145   4.758   2.313  0.4020  0.0602 -1.3479
  612TP3     H213656   5.017   4.676   2.314  0.6564 -0.3893  1.0433
  613TP3      O13657   4.081   2.144   7.839 -0.0539  0.2717  0.4555
  613TP3     H113658   4.117   2.116   7.923  0.3282  1.2800  0.6427
  613TP3     H213659   3.995   2.179   7.861  0.2634  1.0343  0.5208
  614TP3      O13660   5.213   2.108   3.342 -0.1763  0.1032  0.3034
  614TP3     H113661   5.285   2.139   3.397  0.2923  1.1033 -0.8407
  614TP3     H213662   5.140   2.165   3.364  0.1171  0.7493 -0.3528
  615TP3      O13663   3.616   3.527   2.031 -0.1380  0.3823 -0.1005
  615TP3     H113664   3.555   3.585   2.077  0.2736  0.5020  0.3072
  615TP3     H213665   3.695   3.580   2.020  1.8175 -1.2874  3.9567
  616TP3      O13666   1.314   4.007   1.043  0.0460  0.5423  0.1118
  616TP3     H113667   1.293   3.935   1.103  0.8320  1.1402  1.1207
  616TP3     H213668   1.253   4.077   1.066 -1.1766  0.0082 -1.3170
  617TP3      O13669   0.543   3.661   1.983 -0.2781 -0.3559 -0.3350
  617TP3     H113670   0.637   3.677   1.997 -0.1075 -0.8405 -0.9104
  617TP3     H213671   0.500   3.712   2.052  0.4019 -0.0343 -0.1382
  618TP3      O13672   2.125   1.378   7.638  0.4956  0.3842 -0.4971
  618TP3     H113673   2.217   1.350   7.639  0.1900 -0.6893 -0.9671
  618TP3     H213674   2.113   1.418   7.552  0.1418 -0.9036 -1.0786
  619TP3      O13675   4.212   3.889   7.542  0.1548  0.6941  0.5080
  619TP3     H113676   4.164   3.971   7.535  1.7292  1.5174 -1.6323
  619TP3     H213677   4.153   3.831   7.590 -2.3709  2.0717 -0.7222
  620TP3      O13678   4.596   3.597   2.212 -0.4541 -0.2819  0.0329
  620TP3     H113679   4.514   3.551   2.199 -0.3827 -1.4058  2.8998
  620TP3     H213680   4.571   3.688   2.226 -1.3378 -0.7348  1.6039
  621TP3      O13681   4.210   2.773   7.345  0.2365 -0.2475 -0.6583
  621TP3     H113682   4.176   2.775   7.256  0.2320 -1.6656 -0.6985
  621TP3     H213683   4.265   2.852   7.351 -1.4252  1.0173 -1.2120
  622TP3      O13684   3.799   2.580   0.144  0.3236 -0.4595  0.2014
  622TP3     H113685   3.820   2.591   0.052  1.1724 -0.6570  0.3707
  622TP3     H213686   3.857   2.511   0.175  2.2419  1.6168  1.5943
  623TP3      O13687   1.416   4.741   8.401 -0.4487  0.1887 -0.0354
  623TP3     H113688   1.326   4.766   8.422  0.0584  0.0120  2.6992
  623TP3     H213689   1.423   4.649   8.427  0.2900 -0.1009 -1.1481
  624TP3      O13690   2.788   2.017   7.096 -0.6876  0.5214  0.3757
  624TP3     H113691   2.761   2.036   7.186  0.2715 -0.1804  0.8317
  624TP3     H213692   2.706   2.014   7.047 -1.7364 -3.2007  1.9980
  625TP3      O13693   2.534   2.244   1.040  0.1423 -0.2547  0.5821
  625TP3     H113694   2.449   2.224   1.080 -1.0562  1.5285 -0.8987
  625TP3     H213695   2.542   2.183   0.967 -0.5239  0.4319 -0.0822
  626TP3      O13696   2.666   2.346   2.534 -0.1937  0.1424  0.0388
  626TP3     H113697   2.723   2.392   2.473  0.2666 -0.3308  0.1003
  626TP3     H213698   2.596   2.310   2.479  1.7634 -2.8361 -0.7905
  627TP3      O13699   2.651   4.086   1.674 -0.1268  0.2054  0.0814
  627TP3     H113700   2.559   4.077   1.648 -0.2049  0.1842  0.3610
  627TP3     H213701   2.685   3.997   1.673  0.0213  0.2642 -0.4883
  628TP3      O13702   4.939   0.447  10.178  0.2194 -0.0775  0.1462
  628TP3     H113703   4.978   0.533  10.187  1.2621 -0.5666  0.4374
  628TP3     H213704   4.942   0.429  10.084 -0.3527  0.3521  0.0398
  629TP3      O13705   2.366   1.590   1.756 -0.1150 -0.3346 -0.1393
  629TP3     H113706   2.384   1.521   1.820 -1.3353 -1.8534 -1.3607
  629TP3     H213707   2.404   1.669   1.795 -1.5205 -0.9955  2.8445
  630TP3      O13708   2.183   3.643   7.471  0.0654 -0.2444 -0.2785
  630TP3     H113709   2.195   3.682   7.384  0.3726  0.1495 -0.0599
  630TP3     H213710   2.268   3.606   7.493  0.0390 -0.1811 -0.0668
  631TP3      O13711   3.348   5.074   8.737 -0.3870 -0.2235  0.2488
  631TP3     H113712   3.271   5.129   8.754  1.6222  2.5757  0.9686
  631TP3     H213713   3.343   5.054   8.643 -1.0902  1.4124 -0.0933
  632TP3      O13714   4.356   1.306   2.408 -0.4847  0.0057  0.3246
  632TP3     H113715   4.387   1.239   2.348 -1.5159 -0.6458  0.4959
  632TP3     H213716   4.428   1.319   2.469 -0.6068 -1.6320  0.8515
  633TP3      O13717   4.810   3.488   7.074 -0.3505  0.1622  0.2284
  633TP3     H113718   4.890   3.454   7.114  0.2437  0.5646 -0.5851
  633TP3     H213719   4.747   3.493   7.147  0.4786  0.2124  0.9602
  634TP3      O13720   0.099   1.184   9.025  0.4829  0.3721  0.0781
  634TP3     H113721   0.142   1.239   8.960 -0.3401  2.3379  1.1147
  634TP3     H213722   0.042   1.126   8.974  2.0679 -0.2283 -1.0970
  635TP3      O13723   1.098   3.036   0.511  0.1446  0.2647 -0.0928
  635TP3     H113724   1.015   3.076   0.536  0.2898  0.4214  0.1384
  635TP3     H213725   1.106   2.960   0.569 -0.5935 -0.6738 -1.1677
  636TP3      O13726   1.419   2.569   2.033 -0.1111 -0.3540  0.3625
  636TP3     H113727   1.514   2.560   2.047  0.1805 -1.1993 -1.7392
  636TP3     H213728   1.392   2.638   2.094  1.4492 -1.5137  2.5062
  637TP3      O13729   3.633   0.796   7.320 -0.0471  0.0053 -0.0259
  637TP3     H113730   3.606   0.707   7.297  1.3477 -0.1748 -1.1374
  637TP3     H213731   3.729   0.792   7.319  0.0345  1.6950 -0.8429
  638TP3      O13732   2.641   0.489   7.619  0.3634 -0.1591  0.3975
  638TP3     H113733   2.682   0.440   7.547 -1.4152 -0.7784 -0.2350
  638TP3     H213734   2.654   0.433   7.695  0.9360 -0.2040  0.2768
  639TP3      O13735   5.144   4.048   1.033 -0.0008  0.5329 -0.1698
  639TP3     H113736   5.122   4.142   1.032 -0.4638  0.4274 -0.5447
  639TP3     H213737   5.213   4.040   1.098  0.7999  1.2995 -0.8865
  640TP3      O13738   4.587   0.469   8.418  0.8816  0.0094 -0.2802
  640TP3     H113739   4.649   0.541   8.432  0.9682  0.6047 -3.2089
  640TP3     H213740   4.605   0.438   8.329 -1.4991 -1.3534 -0.3800
  641TP3      O13741   0.686   3.279   0.133  0.3660  0.4344 -0.3007
  641TP3     H113742   0.618   3.343   0.152  0.2024  0.0362  0.4914
  641TP3     H213743   0.761   3.331   0.103  0.1183  0.9670 -0.0004
  642TP3      O13744   1.378   1.560   9.023  0.3894  0.3962  0.2147
  642TP3     H113745   1.329   1.504   8.961  1.5653 -2.4538  1.6599
  642TP3     H213746   1.312   1.621   9.057 -2.0124 -2.4590  1.1767
  643TP3      O13747   0.213   4.275  10.351 -0.1284 -0.6216  0.6734
  643TP3     H113748   0.197   4.197  10.405 -1.0460 -0.1727  1.0830
  643TP3     H213749   0.152   4.267  10.278  0.3106 -0.6606  0.3101
  644TP3      O13750   4.728   2.069   7.245  0.1397 -0.1443 -0.4778
  644TP3     H113751   4.692   1.981   7.234 -0.3615  0.2735 -2.6014
  644TP3     H213752   4.787   2.080   7.171  0.6652  1.1097  0.0975
  645TP3      O13753   4.311   2.490  10.178 -0.1389 -0.4106 -0.3652
  645TP3     H113754   4.227   2.536  10.173 -1.0310 -2.0633 -1.2750
  645TP3     H213755   4.290   2.404  10.214  1.2863 -0.5987  0.0816
  646TP3      O13756   4.050   5.190   8.171  0.3429 -0.0494  0.7980
  646TP3     H113757   4.108   5.242   8.228 -1.3872  1.3308  1.3736
  646TP3     H213758   4.019   5.119   8.228  1.1621 -0.5902  0.5883
  647TP3      O13759   4.168   2.456   7.392  0.2197  0.0958 -0.2450
  647TP3     H113760   4.214   2.467   7.308  0.3551 -0.1180 -0.1992
  647TP3     H213761   4.235   2.478   7.458  1.2386 -3.1179 -0.0221
  648TP3      O13762   2.746   4.781   8.855 -0.0595 -0.5782  0.1962
  648TP3     H113763   2.694   4.822   8.787 -1.3432 -0.9129  0.9446
  648TP3     H213764   2.737   4.839   8.931 -0.2391 -1.1992  0.6570
  649TP3      O13765   2.046   4.441   8.083 -0.2446 -0.2059  0.3467
  649TP3     H113766   2.098   4.371   8.043  0.3929 -0.1978  1.1349
  649TP3     H213767   2.102   4.518   8.077 -0.6625  0.0833  0.1128
  650TP3      O13768   2.733   1.139   9.326  0.2007 -0.1391  0.3175
  650TP3     H113769   2.773   1.066   9.280 -0.8492 -0.2137 -0.5090
  650TP3     H213770   2.639   1.131   9.308  0.0202  1.1777  0.5328
  651TP3      O13771   4.147   1.368   8.897 -0.0491  0.0612  0.1402
  651TP3     H113772   4.203   1.398   8.825  1.1140 -1.7714  0.2045
  651TP3     H213773   4.102   1.291   8.861 -3.3658  2.0164 -0.2303
  652TP3      O13774   1.377   3.502   1.813 -0.4038  0.0149  0.2690
  652TP3     H113775   1.453   3.529   1.761  1.3941 -1.4511  1.9356
  652TP3     H213776   1.337   3.584   1.842  0.7239  0.8489 -0.4517
  653TP3      O13777   3.791   2.354  10.064 -0.2546  0.7178  0.3901
  653TP3     H113778   3.712   2.409  10.057 -1.6109 -0.8774  2.1124
  653TP3     H213779   3.771   2.277  10.011  0.7929  0.9489 -0.3612
  654TP3      O13780   4.516   5.192   8.906 -0.5181  0.5984 -0.4599
  654TP3     H113781   4.541   5.200   8.998 -1.6043  2.9203 -0.3187
  654TP3     H213782   4.422   5.173   8.909  0.0051 -2.7448 -1.1014
  655TP3      O13783   0.029   1.905   0.079 -0.3906  0.7225  0.6535
  655TP3     H113784   0.031   1.994   0.044  0.3312  0.2104 -0.6760
  655TP3     H213785   0.023   1.916   0.174  0.5287  2.2065  0.5648
  656TP3      O13786   3.665   2.148   7.397 -0.5733 -0.1805  0.0679
  656TP3     H113787   3.731   2.095   7.440  0.8489  0.9516 -0.6146
  656TP3     H213788   3.592   2.088   7.380  0.4349 -1.5607  0.4886
  657TP3      O13789   4.138   4.407   8.746  0.1342  0.1503  0.6606
  657TP3     H113790   4.126   4.339   8.680 -0.4616  1.2992 -0.4541
  657TP3     H213791   4.189   4.475   8.701 -0.8144  1.2256  1.1770
  658TP3      O13792   2.184   2.424   9.707  0.1274 -0.1358 -0.5107
  658TP3     H113793   2.245   2.476   9.655 -0.9293 -0.6557 -2.3568
  658TP3     H213794   2.106   2.479   9.715  0.2461 -0.0961  0.4839
  659TP3      O13795   3.162   1.421   2.306 -0.5832  0.2496  0.1138
  659TP3     H113796   3.197   1.477   2.375  0.4640 -2.0005  1.5272
  659TP3     H213797   3.129   1.344   2.351  0.0607 -1.2886 -1.8713
  660TP3      O13798   3.186   0.912   7.862 -0.1739  0.1107  0.4401
  660TP3     H113799   3.150   0.842   7.807  0.0413 -0.4245  0.9741
  660TP3     H213800   3.244   0.961   7.803  1.5653 -1.6054  0.6195
  661TP3      O13801   0.501   1.150   9.821 -0.0216  0.3547  0.1894
  661TP3     H113802   0.468   1.214   9.758 -0.3510 -0.1809 -0.1854
  661TP3     H213803   0.574   1.195   9.864  0.3589  0.6537 -0.7332
  662TP3      O13804   1.181   2.367   7.831 -0.1497 -0.5850  0.2603
  662TP3     H113805   1.257   2.316   7.860 -0.1412 -0.3576  0.6537
  662TP3     H213806   1.112   2.303   7.818 -0.3777 -0.6250  1.5446
  663TP3      O13807   3.519   3.359   3.087 -0.5408  0.4960  0.2527
  663TP3     H113808   3.515   3.286   3.149  0.7852 -0.0122 -0.2261
  663TP3     H213809   3.520   3.437   3.143  1.5894  0.0235  0.9931
  664TP3      O13810   0.136   4.786   0.695  0.1440 -0.4737  0.7898
  664TP3     H113811   0.197   4.805   0.766 -1.8955  1.8721  2.0678
  664TP3     H213812   0.170   4.835   0.620  0.3854 -0.0150  1.1926
  665TP3      O13813   4.273   1.388   9.146  0.2790  0.6144 -0.8364
  665TP3     H113814   4.207   1.379   9.215  1.6563  0.7078  0.5593
  665TP3     H213815   4.224   1.380   9.064 -0.9976 -3.0106  0.0907
  666TP3      O13816   0.884   2.200   8.737 -0.1769 -0.0731 -0.4389
  666TP3     H113817   0.958   2.234   8.788  0.0542  1.1654 -1.5250
  666TP3     H213818   0.811   2.259   8.758 -0.8468 -1.2278  0.5470
  667TP3      O13819   0.188   3.881   7.954  0.6534 -0.3811  0.0075
  667TP3     H113820   0.220   3.909   7.868  0.7916  0.3540  0.2912
  667TP3     H213821   0.126   3.810   7.934  0.2967  0.1243 -0.7383
  668TP3      O13822   3.444   4.542   9.673 -0.4512  0.0590 -0.2550
  668TP3     H113823   3.503   4.468   9.687 -1.0603 -0.4948 -0.5423
  668TP3     H213824   3.413   4.565   9.760 -0.9000 -0.5729 -0.2383
  669TP3      O13825   0.163   0.623   8.397 -0.4941 -0.2539 -0.1409
  669TP3     H113826   0.113   0.675   8.460 -0.8482  0.1526 -0.7534
  669TP3     H213827   0.163   0.675   8.317  3.6207  1.3763  0.6376
  670TP3      O13828   3.330   4.320   9.913  0.8197 -0.0197 -0.2207
  670TP3     H113829   3.408   4.369   9.940  1.1528 -1.0388  0.7040
  670TP3     H213830   3.364   4.240   9.875  0.2457 -1.1509  1.5172
  671TP3      O13831   5.119   3.190   0.504 -0.3252  0.2887 -0.4230
  671TP3     H113832   5.144   3.136   0.429  0.2034  0.4343 -0.3592
  671TP3     H213833   5.189   3.175   0.568 -0.2633  0.9200 -0.3409
  672TP3      O13834   2.060   3.668   2.472  0.1603 -0.0820 -0.0966
  672TP3     H113835   2.010   3.652   2.392 -0.6712 -0.1464  0.4316
  672TP3     H213836   2.151   3.674   2.442 -0.1900  0.3639 -1.1042
  673TP3      O13837   1.584   2.276   2.206  0.1537 -0.2258  0.3766
  673TP3     H113838   1.514   2.333   2.238  0.4533 -0.6301  1.8029
  673TP3     H213839   1.663   2.307   2.250  0.7473 -0.2797 -0.6140
  674TP3      O13840   0.217   2.023   8.666 -0.1829  0.0631 -0.0976
  674TP3     H113841   0.208   1.933   8.636 -0.6627 -0.4030  1.3700
  674TP3     H213842   0.158   2.073   8.610 -1.9953 -0.9546  0.8209
  675TP3      O13843   1.177   4.188   9.063 -0.5129  0.4578  0.0858
  675TP3     H113844   1.240   4.260   9.074  0.1170  0.0456 -0.7234
  675TP3     H213845   1.105   4.227   9.014  0.5316  0.1917 -1.7497
  676TP3      O13846   2.788   0.907   1.444 -0.4696  0.1301 -0.7513
  676TP3     H113847   2.837   0.978   1.401  0.7751  0.1924  0.6726
  676TP3     H213848   2.699   0.941   1.452 -0.8656 -0.0145 -3.4971
  677TP3      O13849   4.284   4.294   1.617 -0.2428 -0.0910  0.1917
  677TP3     H113850   4.321   4.264   1.700 -0.9542 -2.6802 -0.3468
  677TP3     H213851   4.189   4.287   1.629 -0.3663 -0.0370 -0.6756
  678TP3      O13852   2.296   2.151   7.805  0.3854  0.1657 -0.3502
  678TP3     H113853   2.358   2.087   7.841  1.2189  0.4145 -1.2975
  678TP3     H213854   2.317   2.154   7.711 -0.0953  1.3258 -0.4311
  679TP3      O13855   4.545   3.651   0.526  0.5839  0.1223 -0.0541
  679TP3     H113856   4.606   3.655   0.600  0.1841  0.8393  0.2401
  679TP3     H213857   4.478   3.715   0.547 -0.3641 -0.7626 -0.3066
  680TP3      O13858   0.853   3.621   2.780 -1.0177  0.0258  0.3659
  680TP3     H113859   0.831   3.690   2.717 -1.8007 -0.7837 -0.2783
  680TP3     H213860   0.938   3.588   2.750 -0.2963  1.1700  1.0997
  681TP3      O13861   1.499   3.635   1.502 -0.4731 -0.4206 -0.3954
  681TP3     H113862   1.458   3.633   1.415  0.9462  0.2030 -1.1013
  681TP3     H213863   1.517   3.543   1.521 -1.6478 -0.6535 -0.3216
  682TP3      O13864   1.704   3.974   9.332 -0.1522  0.5861 -0.5482
  682TP3     H113865   1.631   3.948   9.276  0.1572 -1.0850 -0.2202
  682TP3     H213866   1.781   3.969   9.275 -0.1390  1.2226 -0.5913
  683TP3      O13867   2.842   4.258   2.580 -0.0589  0.8623 -0.4117
  683TP3     H113868   2.923   4.207   2.578 -0.3881  0.2709  0.4016
  683TP3     H213869   2.774   4.194   2.598 -0.3367  1.6980  1.9306
  684TP3      O13870   2.384   1.257   7.580 -0.2368  0.2580 -0.2790
  684TP3     H113871   2.443   1.296   7.515  1.9392 -0.3447  1.2257
  684TP3     H213872   2.442   1.224   7.649 -2.2228 -2.0155  0.4587
  685TP3      O13873   0.260   1.815   8.488 -0.7734 -0.4872  0.0906
  685TP3     H113874   0.327   1.842   8.425 -1.6494  0.9965 -0.2721
  685TP3     H213875   0.307   1.763   8.552  0.3659 -1.0664 -1.1620
  686TP3      O13876   5.056   2.471   0.082  0.6617  0.0468 -0.7963
  686TP3     H113877   5.043   2.406   0.152 -0.7476  2.1479  1.0323
  686TP3     H213878   5.150   2.484   0.079  0.8702 -1.2311 -0.3974
  687TP3      O13879   2.567   0.925   0.752 -0.0431 -0.3740  0.2652
  687TP3     H113880   2.663   0.927   0.751  0.0976 -3.2366 -0.4673
  687TP3     H213881   2.544   0.935   0.845  1.1254 -2.0246  0.7810
  688TP3      O13882   1.165   2.438   8.601  0.2256 -0.5675 -0.8621
  688TP3     H113883   1.101   2.468   8.666 -0.0511  0.8351 -1.7411
  688TP3     H213884   1.137   2.349   8.579 -0.9018 -0.2940 -0.5823
  689TP3      O13885   0.957   1.915  10.421 -0.2062  0.5069  0.7403
  689TP3     H113886   0.926   1.828  10.395 -0.6762  1.3326 -1.7477
  689TP3     H213887   1.049   1.916  10.396 -0.7465  1.4294 -1.4710
  690TP3      O13888   0.010   1.348   0.801 -0.1751  0.0795  0.2004
  690TP3     H113889   0.055   1.269   0.832  2.0193  1.4431  0.7372
  690TP3     H213890   0.073   1.388   0.741 -0.8674  1.8568  0.6191
  691TP3      O13891   3.907   0.374   8.268  0.4225  0.4091 -0.5457
  691TP3     H113892   3.907   0.439   8.339  0.2919  2.1233 -2.0443
  691TP3     H213893   3.888   0.291   8.312 -2.0481  1.7372  1.1739
  692TP3      O13894   3.994   1.629   8.862 -0.4342  0.5102  0.7072
  692TP3     H113895   3.908   1.608   8.826 -0.0759 -0.3837  0.3456
  692TP3     H213896   4.052   1.632   8.786  0.2120 -0.7783  1.1231
  693TP3      O13897   1.418   1.954   2.023  0.0884  0.1370 -0.6819
  693TP3     H113898   1.349   1.985   2.081 -0.0580  1.0208 -1.3115
  693TP3     H213899   1.450   2.032   1.979  1.0573 -0.3473 -0.8813
  694TP3      O13900   1.473   2.567   8.689 -0.3740  0.6216  0.7783
  694TP3     H113901   1.384   2.541   8.713 -0.2796  1.9460  2.8005
  694TP3     H213902   1.496   2.635   8.752  1.1417  2.1527 -1.2994
  695TP3      O13903   1.321   3.263   0.583  0.8354  0.4742 -0.0256
  695TP3     H113904   1.295   3.172   0.568  0.1576  0.6281  0.1889
  695TP3     H213905   1.239   3.308   0.604  0.7831  1.6314 -2.4099
  696TP3      O13906   1.176   4.025   9.873 -0.4062  0.3947 -0.1024
  696TP3     H113907   1.212   4.114   9.874  0.9404 -0.1423  1.0313
  696TP3     H213908   1.083   4.038   9.891 -0.4314  1.6406 -0.9647
  697TP3      O13909   2.652   5.110   0.276  0.1266  0.2543  0.1012
  697TP3     H113910   2.657   5.081   0.367  0.5567  0.4758  0.1484
  697TP3     H213911   2.671   5.031   0.225  1.5481  0.4816  0.2320
  698TP3      O13912   0.116   1.105   7.667  0.2478  0.3774  0.0079
  698TP3     H113913   0.104   1.197   7.644  0.4717  0.2077 -0.8093
  698TP3     H213914   0.099   1.058   7.586 -1.3137 -0.4186  0.7507
  699TP3      O13915   4.644   0.329   1.694  0.3728  0.4716 -0.5026
  699TP3     H113916   4.721   0.339   1.750  0.7855 -0.1806 -0.9301
  699TP3     H213917   4.619   0.237   1.705 -1.1537  0.9761  0.6423
  700TP3      O13918   3.460   0.720   8.984 -0.1892  1.2158 -0.2130
  700TP3     H113919   3.457   0.707   9.079  1.1170  0.5507 -0.2263
  700TP3     H213920   3.374   0.754   8.961 -0.2405  2.2156  1.3244
  701TP3      O13921   4.277   1.492   8.154  0.3295 -0.0084 -0.0403
  701TP3     H113922   4.363   1.532   8.145 -0.4397  1.4180 -1.8457
  701TP3     H213923   4.286   1.404   8.117  1.0857  0.0147  0.0834
  702TP3      O13924   4.562   1.076   9.368  0.4509  0.0792  1.1962
  702TP3     H113925   4.484   1.130   9.385  0.8177  0.0643  3.2588
  702TP3     H213926   4.549   1.042   9.280 -1.0528  1.4468  0.8316
  703TP3      O13927   0.886   3.792  10.060  0.6876  0.1941 -0.2010
  703TP3     H113928   0.824   3.724  10.032  1.8508 -0.6472 -0.8182
  703TP3     H213929   0.885   3.856   9.988 -0.5061  0.9369  0.4400
  704TP3      O13930   4.433   4.442   9.545  0.0053 -0.1978  0.3790
  704TP3     H113931   4.351   4.402   9.574 -0.7011 -0.6214 -1.9771
  704TP3     H213932   4.412   4.534   9.532  0.2464 -0.0658  0.8766
  705TP3      O13933   3.398   1.882   8.432 -0.0086 -0.6515 -0.1607
  705TP3     H113934   3.338   1.889   8.506 -1.4523  0.5955 -1.3676
  705TP3     H213935   3.371   1.803   8.385 -1.4063  0.3968 -1.2146
  706TP3      O13936   0.124   3.156  10.127 -0.0050  0.4013  0.3467
  706TP3     H113937   0.167   3.099  10.063  0.1415  1.4026 -0.4720
  706TP3     H213938   0.031   3.142  10.112 -0.0299  2.3510 -1.7540
  707TP3      O13939   4.132   3.523   2.592  0.9495  0.0659 -0.2927
  707TP3     H113940   4.065   3.558   2.651  1.4166  0.9459 -0.2651
  707TP3     H213941   4.085   3.460   2.538 -0.0114  0.9611 -0.5567
  708TP3      O13942   2.818   0.277   9.358  0.3901  0.5709 -1.0819
  708TP3     H113943   2.773   0.242   9.435  0.7796  0.5601 -0.8550
  708TP3     H213944   2.759   0.343   9.323  0.5406  1.1288 -0.3216
  709TP3      O13945   3.670   2.844   2.119 -0.4430 -0.2302 -0.1288
  709TP3     H113946   3.724   2.780   2.072  1.0179 -0.3446  1.6078
  709TP3     H213947   3.640   2.797   2.197 -1.5977  0.4048 -0.1663
  710TP3      O13948   4.872   4.771   7.737 -0.1773 -0.2406 -0.1167
  710TP3     H113949   4.838   4.840   7.680 -0.4091 -2.1739 -2.5291
  710TP3     H213950   4.961   4.799   7.758 -0.5683  1.1905 -0.3187
  711TP3      O13951   0.862   2.359   7.363 -0.9266 -0.4534 -0.1536
  711TP3     H113952   0.880   2.452   7.347 -1.3660 -0.2314  0.6292
  711TP3     H213953   0.885   2.316   7.280  2.1048 -0.0404  0.3382
  712TP3      O13954   1.477   3.575   9.852 -0.2452  0.2925 -0.0093
  712TP3     H113955   1.414   3.608   9.917 -1.1898  1.6880 -1.5496
  712TP3     H213956   1.425   3.523   9.792  0.2695  0.4824 -0.6381
  713TP3      O13957   1.990   0.052   1.311  0.0120 -0.5796 -0.1402
  713TP3     H113958   1.943   0.003   1.243 -0.7510 -0.3114  0.1801
  713TP3     H213959   2.027  -0.015   1.368 -1.7338 -0.8127  0.7772
  714TP3      O13960   4.026   3.679  10.133 -0.4110  0.1261 -0.3293
  714TP3     H113961   3.991   3.763  10.161 -0.2039  0.0776  0.0808
  714TP3     H213962   4.061   3.695  10.045 -0.8475  0.3366 -0.4652
  715TP3      O13963   2.117   4.156   8.564  0.7188  0.5929  0.9028
  715TP3     H113964   2.115   4.165   8.659  2.1142 -1.4825  1.2168
  715TP3     H213965   2.033   4.116   8.542  1.1279 -0.7072  1.5639
  716TP3      O13966   1.982   0.888   9.784  0.2176  0.3699  0.0696
  716TP3     H113967   1.986   0.977   9.749  0.0654  1.0675  1.7402
  716TP3     H213968   2.071   0.854   9.772  0.8952  1.5756  1.4287
  717TP3      O13969   2.557   1.243   7.852 -0.2019  0.1906 -0.5169
  717TP3     H113970   2.507   1.324   7.860 -2.2376 -1.1254  1.3211
  717TP3     H213971   2.622   1.248   7.923  2.6690  1.9981 -3.0376
  718TP3      O13972   1.261   2.934   1.555 -0.0894  0.3631 -0.3714
  718TP3     H113973   1.218   2.955   1.638  0.1401  0.2955 -0.2360
  718TP3     H213974   1.256   2.839   1.549 -0.9331  0.4327 -0.8809
  719TP3      O13975   2.189   4.361   1.563  0.1805 -0.5124 -0.9489
  719TP3     H113976   2.112   4.367   1.507 -1.2980 -0.0821  1.0098
  719TP3     H213977   2.199   4.449   1.600 -1.7635 -1.7015  2.9475
  720TP3      O13978   4.088   3.138   1.918 -0.4837  0.0902 -0.4951
  720TP3     H113979   4.001   3.172   1.901 -0.5225  1.4568  1.9921
  720TP3     H213980   4.147   3.209   1.893 -0.1409 -0.3803 -1.0522
  721TP3      O13981   2.984   0.725   9.381 -0.8543  0.1480 -0.4051
  721TP3     H113982   2.972   0.818   9.361 -0.8043  0.4868  1.0048
  721TP3     H213983   2.897   0.694   9.407 -0.6850  0.0603  0.0759
  722TP3      O13984   3.045   1.745   0.060  0.1261  0.1861 -0.2472
  722TP3     H113985   3.091   1.771  -0.020  0.0711 -3.0249 -1.4662
  722TP3     H213986   2.959   1.716   0.029 -0.9137  1.3879  1.3739
  723TP3      O13987   3.769   2.113   9.916  1.1681  0.3127 -0.2627
  723TP3     H113988   3.824   2.130   9.840  0.4545  2.3424 -0.3828
  723TP3     H213989   3.698   2.058   9.884  1.4323  0.2974 -0.8222
  724TP3      O13990   3.551   0.661   7.867  0.4565 -0.8817  0.3895
  724TP3     H113991   3.582   0.592   7.808 -0.9486 -0.6904 -0.6073
  724TP3     H213992   3.476   0.699   7.822  0.5023  0.5408  1.4559
  725TP3      O13993   0.300   0.701   2.448  0.0164 -0.3242  0.8893
  725TP3     H113994   0.303   0.794   2.424 -0.6026 -0.4950  0.1067
  725TP3     H213995   0.360   0.658   2.387 -1.2808 -0.7102 -0.1567
  726TP3      O13996   2.239   4.935   3.304 -0.2153 -0.1157  0.5196
  726TP3     H113997   2.260   4.842   3.302  0.4764  0.0451 -0.0961
  726TP3     H213998   2.303   4.976   3.246 -2.5188  0.3486 -1.8967
  727TP3      O13999   4.969   1.554   9.997 -0.1678 -0.0559 -0.5037
  727TP3     H114000   4.936   1.546  10.086  0.0128 -1.3335 -0.5322
  727TP3     H214001   4.940   1.473   9.954  1.6243 -0.4803 -0.9810
  728TP3      O14002   4.450   3.839   8.842 -0.1447  0.3374  0.7678
  728TP3     H114003   4.386   3.910   8.849  1.0627  1.6091 -0.4620
  728TP3     H214004   4.467   3.832   8.748  1.5228  0.0345  1.0596
  729TP3      O14005   4.151   5.052   1.306  0.1663 -0.2898 -0.3670
  729TP3     H114006   4.139   5.130   1.251  1.3672  1.2109  1.3703
  729TP3     H214007   4.163   5.087   1.394 -0.4170 -2.5474  0.6636
  730TP3      O14008   5.119   0.644   1.179 -0.0276  0.1882  0.3538
  730TP3     H114009   5.068   0.597   1.113 -1.2090  0.2929  1.1593
  730TP3     H214010   5.075   0.729   1.186  0.6350  0.5110  0.6293
  731TP3      O14011   3.377   3.631   3.043  0.2349 -0.0403  0.5751
  731TP3     H114012   3.399   3.592   3.127  0.8337  1.4609  1.1524
  731TP3     H214013   3.459   3.670   3.012 -0.2778  0.5648 -0.0660
  732TP3      O14014   2.311   5.048   3.543 -0.3379  0.6929  0.3249
  732TP3     H114015   2.292   4.990   3.617 -0.3974 -1.4319 -1.2640
  732TP3     H214016   2.281   4.999   3.466 -0.8533  3.0875 -1.0880
  733TP3      O14017   1.887   1.193   8.665 -0.0687  0.6291 -0.5679
  733TP3     H114018   1.933   1.277   8.668 -0.5856  0.9119 -0.4197
  733TP3     H214019   1.820   1.200   8.734  0.6858 -0.3771  0.3153
  734TP3      O14020   0.912   4.241   8.455  0.1897  0.2780  0.3347
  734TP3     H114021   0.853   4.284   8.517 -0.7187  0.3358 -0.5533
  734TP3     H214022   0.928   4.308   8.388  0.6133 -0.0162  0.1384
  735TP3      O14023   2.609   2.124   0.178  0.2729  0.1555 -0.5509
  735TP3     H114024   2.633   2.116   0.270 -0.3538 -0.4337 -0.4252
  735TP3     H214025   2.631   2.038   0.140 -2.9697 -1.0441 -0.0754
  736TP3      O14026   4.240   0.817   7.610 -0.1952  0.2390 -0.5373
  736TP3     H114027   4.237   0.769   7.527  2.6926  0.7673 -1.0613
  736TP3     H214028   4.293   0.895   7.590 -0.2626  0.8736  1.5801
  737TP3      O14029   3.682   3.740   7.704 -0.2958 -0.2233 -0.1202
  737TP3     H114030   3.702   3.818   7.756  0.0770  1.1715 -2.2525
  737TP3     H214031   3.767   3.700   7.687 -0.1918  0.5138 -1.4019
  738TP3      O14032   1.776   4.870   6.838  0.9170 -0.0356  0.3750
  738TP3     H114033   1.859   4.889   6.794  1.1646 -1.3105  0.2443
  738TP3     H214034   1.780   4.777   6.858 -0.8646 -0.3478 -0.4503
  739TP3      O14035   1.816   3.645   7.442  0.4090  0.6335 -0.0529
  739TP3     H114036   1.742   3.663   7.384 -0.0881  2.0583  0.9917
  739TP3     H214037   1.854   3.731   7.461  2.6673 -0.0819 -0.9502
  740TP3      O14038   2.644   3.462   9.117  0.2676 -0.3564  0.4724
  740TP3     H114039   2.733   3.435   9.095  0.1875  0.4686 -0.9398
  740TP3     H214040   2.589   3.389   9.088  0.3383 -0.1378 -0.2162
  741TP3      O14041   3.808   3.744   9.781 -0.5206  0.5113 -0.5042
  741TP3     H114042   3.785   3.669   9.726  0.5759  1.1297 -1.8564
  741TP3     H214043   3.758   3.730   9.862 -2.2233 -0.4168 -1.6405
  742TP3      O14044   0.072   4.918  10.369 -0.1620  0.2551  0.2764
  742TP3     H114045   0.118   4.899  10.287  0.0358 -0.6622  0.5928
  742TP3     H214046   0.063   5.013  10.369  1.8514  0.4881  0.2527
  743TP3      O14047   4.367   1.617   9.448  0.3433  0.2757 -0.0356
  743TP3     H114048   4.382   1.542   9.505 -1.7816 -1.3786 -1.5012
  743TP3     H214049   4.420   1.600   9.371 -2.5474 -1.5541 -1.8002
  744TP3      O14050   2.369   1.047   0.431 -0.1342  0.5328  0.3131
  744TP3     H114051   2.348   1.036   0.524  0.2492 -1.4969  0.2098
  744TP3     H214052   2.359   0.959   0.394 -1.3172  1.4919 -1.8064
  745TP3      O14053   1.370   3.635   0.608 -0.1782  0.1322  0.2541
  745TP3     H114054   1.362   3.540   0.606 -1.8131  0.1564  2.4141
  745TP3     H214055   1.442   3.651   0.670  0.1331  0.3157 -0.1502
  746TP3      O14056   0.113   3.395   7.886 -0.4200  0.4633  0.9560
  746TP3     H114057   0.084   3.309   7.854 -1.6760  0.7612  1.2335
  746TP3     H214058   0.131   3.445   7.807 -0.3709  0.1680  0.7760
  747TP3      O14059   1.123   2.562   2.736 -0.2942  0.4943  0.9857
  747TP3     H114060   1.166   2.571   2.651 -0.9786  0.6580  0.6464
  747TP3     H214061   1.141   2.472   2.763  1.6362  1.0382  1.6257
  748TP3      O14062   0.082   0.945   0.013 -0.3748 -0.4730 -0.4067
  748TP3     H114063   0.095   0.865   0.065  1.7011  0.3895  0.5507
  748TP3     H214064   0.167   0.990   0.018 -1.9063  2.5891  0.4669
  749TP3      O14065   0.414   2.987   2.766  0.0350  0.6564  0.1326
  749TP3     H114066   0.464   2.998   2.685 -0.0244 -1.3467 -0.2412
  749TP3     H214067   0.322   2.989   2.739  0.0167 -0.2297  0.0728
  750TP3      O14068   1.530   1.703   2.087 -0.0006 -0.1168  0.1351
  750TP3     H114069   1.557   1.661   2.005 -1.1579 -2.0886  0.7211
  750TP3     H214070   1.490   1.786   2.059 -0.6027 -0.8730 -1.3316
  751TP3      O14071   3.821   3.127   1.235  0.3212 -0.3094  0.0258
  751TP3     H114072   3.772   3.200   1.198  1.0115 -0.2442 -0.8022
  751TP3     H214073   3.780   3.049   1.199  1.9922 -0.2206 -2.3075
  752TP3      O14074   0.670   0.420   9.094 -0.7451 -0.2902 -0.0935
  752TP3     H114075   0.680   0.355   9.163 -0.7914 -0.5295 -0.3111
  752TP3     H214076   0.601   0.385   9.038  0.4238 -0.9117 -1.1816
  753TP3      O14077   4.576   5.093   2.866  0.4517 -0.3243 -0.0725
  753TP3     H114078   4.539   5.070   2.780  0.7218  1.0654 -0.5790
  753TP3     H214079   4.647   5.029   2.879 -0.6985 -1.6579 -0.0588
  754TP3      O14080   0.822   4.232  10.313 -0.3993  0.1488 -0.4968
  754TP3     H114081   0.858   4.143  10.311 -0.4995 -0.0038  1.7769
  754TP3     H214082   0.896   4.288  10.336 -0.7649  0.3596  0.1947
  755TP3      O14083   1.180   2.468   1.234  0.5525 -0.7650 -0.2442
  755TP3     H114084   1.107   2.529   1.248  0.2452 -0.9646 -0.9497
  755TP3     H214085   1.258   2.522   1.245  0.3278 -0.6757  1.1241
  756TP3      O14086   4.140   2.878   0.787 -0.1722 -0.1345 -0.0560
  756TP3     H114087   4.125   2.784   0.794 -1.0090 -0.0425 -0.4387
  756TP3     H214088   4.129   2.897   0.694  1.8581  0.0579 -0.2911
  757TP3      O14089   5.130   4.757   8.753 -0.2811 -0.3198  0.3740
  757TP3     H114090   5.041   4.723   8.764  0.1730 -1.0647  2.0540
  757TP3     H214091   5.129   4.841   8.798 -0.0346 -0.5088  0.7321
  758TP3      O14092   2.750   4.471   7.072 -0.1114 -0.2108 -0.3861
  758TP3     H114093   2.660   4.477   7.103  0.4386 -1.0612  1.5045
  758TP3     H214094   2.785   4.392   7.114  1.0295 -0.8888 -2.4400
  759TP3      O14095   3.933   4.169   9.422 -0.4485 -0.3183  0.4324
  759TP3     H114096   3.899   4.082   9.446 -0.5617  0.4075  3.2665
  759TP3     H214097   4.019   4.172   9.463 -0.6052  1.0187  0.6910
  760TP3      O14098   4.648   0.459   7.922 -0.3554 -0.6073  0.1258
  760TP3     H114099   4.669   0.407   7.845 -0.6263  0.3276 -0.5882
  760TP3     H214100   4.660   0.550   7.895 -3.5869 -0.0402  0.1429
  761TP3      O14101   3.000   3.680  10.101 -0.2248 -0.5225 -0.1868
  761TP3     H114102   2.905   3.690  10.095 -0.4513 -0.5187  2.2567
  761TP3     H214103   3.015   3.585  10.099 -0.6136 -0.6958  2.1033
  762TP3      O14104   1.528   4.997   8.341  0.0244 -0.2816  0.2383
  762TP3     H114105   1.521   4.979   8.435 -1.7848 -0.3756  0.1127
  762TP3     H214106   1.438   4.995   8.309  0.7382 -2.3311 -1.9133
  763TP3      O14107   1.956   1.731   7.039  0.1632 -0.1545  0.1757
  763TP3     H114108   1.882   1.715   7.098  0.4986 -0.3121  0.5567
  763TP3     H214109   2.002   1.647   7.035  0.0850 -0.1725 -0.3945
  764TP3      O14110   4.325   4.764   2.611 -0.6637  0.1183  0.0897
  764TP3     H114111   4.351   4.711   2.535 -0.7035  1.5027 -0.9411
  764TP3     H214112   4.403   4.764   2.667 -0.9008 -1.5756  0.4572
  765TP3      O14113   0.548   0.686   9.842 -0.2818  0.2032 -0.3712
  765TP3     H114114   0.466   0.644   9.816 -0.2782 -0.3232  0.4418
  765TP3     H214115   0.600   0.616   9.881  0.4262  0.6056 -0.5679
  766TP3      O14116   4.333   4.304   2.823 -0.5054 -0.9350  0.2061
  766TP3     H114117   4.376   4.253   2.891  1.6704  0.8718  0.2962
  766TP3     H214118   4.252   4.256   2.804  0.0051 -2.7694  2.3173
  767TP3      O14119   1.813   5.080   7.829  0.5243  0.4503 -0.1682
  767TP3     H114120   1.772   5.034   7.902 -0.8272 -1.6351 -2.1279
  767TP3     H214121   1.906   5.058   7.836  0.0673 -1.7007 -0.4023
  768TP3      O14122   2.017   3.538   8.582 -0.3022 -0.4960 -0.2237
  768TP3     H114123   1.929   3.501   8.588 -0.9903  1.1485  0.3295
  768TP3     H214124   2.070   3.468   8.542 -1.7359 -1.6822 -0.1145
  769TP3      O14125   4.354   3.382   9.687 -0.7441  0.1823 -0.4808
  769TP3     H114126   4.283   3.319   9.698  0.0749 -0.8175 -0.6595
  769TP3     H214127   4.331   3.431   9.608 -0.5369 -1.1328 -1.3884
  770TP3      O14128   1.596   2.572   8.071  0.3267  0.4229  0.3797
  770TP3     H114129   1.626   2.521   7.996 -0.9683  2.3299 -1.5505
  770TP3     H214130   1.575   2.507   8.138  1.3806 -1.3534 -0.9330
  771TP3      O14131   4.166   0.997   8.096 -0.0536 -0.1199 -0.2900
  771TP3     H114132   4.141   0.996   8.004  0.5865  0.4834 -0.4787
  771TP3     H214133   4.225   0.923   8.107  0.6189  0.3644 -0.5894
  772TP3      O14134   4.028   2.616   0.798  0.5350  0.1981  0.4198
  772TP3     H114135   3.941   2.609   0.759  1.0043  0.2941 -0.6760
  772TP3     H214136   4.077   2.543   0.760  1.5681  1.4329 -0.7141
  773TP3      O14137   2.994   3.829   8.500  0.2482  1.1206 -0.1755
  773TP3     H114138   2.967   3.921   8.499  0.3763  1.1663  0.3378
  773TP3     H214139   3.073   3.828   8.554  0.2029  0.7017 -0.1150
  774TP3      O14140   0.298   4.674   9.474 -0.2126  0.1519 -0.3785
  774TP3     H114141   0.263   4.619   9.544  0.5027  0.1203 -0.0391
  774TP3     H214142   0.328   4.612   9.408 -1.1732  0.1880 -0.8654
  775TP3      O14143   4.210   0.483   1.406  0.2060  0.3266 -0.3731
  775TP3     H114144   4.263   0.461   1.330  2.0182  2.5341  0.1672
  775TP3     H214145   4.158   0.559   1.380 -1.2631 -0.5767 -0.2346
  776TP3      O14146   1.473   4.290  10.414  0.0946 -0.3652  0.6666
  776TP3     H114147   1.433   4.372  10.388  1.8278  0.2059 -0.3975
  776TP3     H214148   1.455   4.230  10.341  0.7197 -0.2510  0.4106
  777TP3      O14149   1.854   0.696   2.701  0.6078 -0.2830  0.2355
  777TP3     H114150   1.851   0.625   2.637 -2.1860  0.2085 -0.3012
  777TP3     H214151   1.837   0.775   2.651  2.4719  0.6815  1.0148
  778TP3      O14152   2.678   1.313   8.714  0.2783  0.8838 -0.0618
  778TP3     H114153   2.597   1.358   8.739  0.1459 -0.0154  1.1955
  778TP3     H214154   2.745   1.381   8.714 -0.4077  1.5826 -0.8229
  779TP3      O14155   0.487   2.613   8.099 -0.2184  0.0406  0.1192
  779TP3     H114156   0.539   2.627   8.178 -0.7490  0.7591  0.3600
  779TP3     H214157   0.536   2.657   8.030  1.4699 -2.5922 -0.4805
  780TP3      O14158   4.022   3.593   8.398  0.2478  0.1496  0.0428
  780TP3     H114159   4.052   3.678   8.366 -1.0790  1.0970  1.1764
  780TP3     H214160   3.927   3.604   8.407  0.3691 -0.3955  3.1171
  781TP3      O14161   0.845   0.256   0.254 -0.5420 -0.0534 -0.2287
  781TP3     H114162   0.800   0.323   0.305  0.8942 -0.6222  1.9314
  781TP3     H214163   0.936   0.259   0.286 -0.1031 -1.9949 -1.1572
  782TP3      O14164   3.780   3.151   9.873 -0.1891  0.4409 -0.0091
  782TP3     H114165   3.802   3.229   9.923  1.2910 -0.2045  0.3995
  782TP3     H214166   3.747   3.184   9.790  0.9644  1.4993 -0.0708
  783TP3      O14167   2.792   3.249   0.300 -0.6999  0.5544  0.3235
  783TP3     H114168   2.789   3.344   0.309 -1.1745  0.8973 -2.5039
  783TP3     H214169   2.883   3.226   0.321 -0.4855  1.6608  0.6732
  784TP3      O14170   2.343   0.838   9.554  0.7560  0.1743 -0.8492
  784TP3     H114171   2.437   0.823   9.566  0.4041 -0.4226  2.0105
  784TP3     H214172   2.305   0.817   9.639 -1.5465  4.2359 -0.6184
  785TP3      O14173   0.037   3.703   9.925  0.2988  0.4169  0.3180
  785TP3     H114174   0.016   3.699  10.018  0.3174  0.0811  0.3070
  785TP3     H214175  -0.047   3.692   9.880  0.0432  2.1732  0.3065
  786TP3      O14176   0.793   5.102   9.074 -0.6003  0.0938 -0.1949
  786TP3     H114177   0.838   5.090   8.991 -0.4425 -0.4908 -0.0328
  786TP3     H214178   0.727   5.168   9.057  1.9904  2.9813  0.1823
  787TP3      O14179   2.087   4.183   7.584  0.4183  0.1928  0.0113
  787TP3     H114180   2.100   4.088   7.578  0.5977  0.2503 -0.4818
  787TP3     H214181   2.135   4.208   7.663 -1.5193 -0.4610  1.5027
  788TP3      O14182   5.172   0.147   9.135 -0.0203 -0.5764  0.0115
  788TP3     H114183   5.253   0.122   9.090  0.2056  0.3439 -0.1220
  788TP3     H214184   5.114   0.177   9.065  0.1806  0.4569  0.2612
  789TP3      O14185   2.197   3.605   9.957 -0.0171  0.5828  0.0995
  789TP3     H114186   2.124   3.666   9.947 -0.8018 -0.2568  0.5927
  789TP3     H214187   2.269   3.645   9.907 -0.8736  1.3098 -0.5775
  790TP3      O14188   3.301   4.682   7.451  0.1121 -0.1971 -0.0858
  790TP3     H114189   3.311   4.611   7.515 -1.4744 -1.0356 -0.7104
  790TP3     H214190   3.283   4.637   7.368  0.5235  0.9110 -0.7998
  791TP3      O14191   1.295   0.625   9.478  0.2102  0.0050 -0.1882
  791TP3     H114192   1.340   0.665   9.553  0.0364 -0.3068  0.0807
  791TP3     H214193   1.202   0.637   9.496  0.1716  0.2903 -0.5530
  792TP3      O14194   1.621   2.078   8.351  0.5304 -0.5850  0.6192
  792TP3     H114195   1.707   2.037   8.360 -0.0149 -1.4134  2.5824
  792TP3     H214196   1.558   2.007   8.364 -0.4728  0.1181 -0.1657
  793TP3      O14197   3.320   3.963   8.877  0.2936 -0.1122  0.4472
  793TP3     H114198   3.386   3.895   8.890  1.7077  1.2824  0.8131
  793TP3     H214199   3.364   4.028   8.822 -1.2831  0.1823 -0.5301
  794TP3      O14200   4.644   0.321   0.602  0.2067  0.1707 -0.1666
  794TP3     H114201   4.713   0.265   0.566 -0.2519 -1.9923  2.0359
  794TP3     H214202   4.667   0.331   0.694  0.1212  3.5501 -0.3670
  795TP3      O14203   0.414   0.412   1.924 -0.4424 -0.3107 -0.0606
  795TP3     H114204   0.420   0.403   1.829  0.8366  1.1063 -0.1488
  795TP3     H214205   0.368   0.494   1.938  0.7963  0.3207  0.5037
  796TP3      O14206   2.003   0.198   7.771  0.6158 -0.5755  0.1581
  796TP3     H114207   1.959   0.143   7.835 -1.6585  0.7856 -0.1375
  796TP3     H214208   2.035   0.273   7.820  2.6432 -1.4825  0.3466
  797TP3      O14209   2.118   1.283   8.356 -0.2823 -0.5397 -0.0113
  797TP3     H114210   2.176   1.313   8.426 -1.3741 -1.7343  1.4843
  797TP3     H214211   2.060   1.220   8.399 -0.9925 -1.3339 -2.0110
  798TP3      O14212   0.777   0.362   0.506  0.2209 -0.1914 -0.5411
  798TP3     H114213   0.750   0.327   0.590 -0.1875 -2.0387 -1.3891
  798TP3     H214214   0.848   0.423   0.527  1.1250 -1.6958  1.0480
  799TP3      O14215   4.804   2.095   1.621 -0.4876  0.0038  0.2831
  799TP3     H114216   4.876   2.038   1.593 -0.5965  0.0368 -0.0683
  799TP3     H214217   4.757   2.043   1.686 -2.2310 -1.4728 -1.9687
  800TP3      O14218   2.882   2.878   9.609 -0.1729 -0.5832 -0.2789
  800TP3     H114219   2.891   2.834   9.524 -2.9014  0.7525 -1.3708
  800TP3     H214220   2.828   2.819   9.661 -0.6402 -0.2622 -0.3939
  801TP3      O14221   0.433   2.035   1.725  0.1105 -0.2394 -0.5591
  801TP3     H114222   0.504   2.023   1.662  0.1682  0.0114 -0.5419
  801TP3     H214223   0.475   2.026   1.810  0.2698  0.6946 -0.5336
  802TP3      O14224   3.602   1.858   8.052  0.1869 -0.1435  0.2011
  802TP3     H114225   3.618   1.908   8.131 -0.2030  0.3006  0.0033
  802TP3     H214226   3.661   1.783   8.058  0.6762  0.2714  0.5586
  803TP3      O14227   1.389   3.203   7.405 -0.1242 -0.4908 -0.5303
  803TP3     H114228   1.359   3.156   7.483  1.5550  0.1230  0.5311
  803TP3     H214229   1.461   3.257   7.436  0.4007 -0.0139 -2.4743
  804TP3      O14230   2.060   0.249   2.505 -0.0230 -0.2820 -0.6148
  804TP3     H114231   2.074   0.176   2.565 -2.3164 -0.6666 -0.4795
  804TP3     H214232   1.998   0.217   2.441 -0.0799  1.1521 -1.3180
  805TP3      O14233   0.909   0.155   8.351 -0.4837 -0.2604  0.4528
  805TP3     H114234   0.997   0.124   8.373 -0.1456  0.4903  0.2082
  805TP3     H214235   0.850   0.088   8.386  0.2160 -1.3003 -0.2889
  806TP3      O14236   1.345   0.964   8.051  0.1760 -0.5557  0.2315
  806TP3     H114237   1.337   0.939   8.143  1.0977 -0.1158  0.4423
  806TP3     H214238   1.420   1.023   8.048 -0.1201 -0.1973 -0.7340
  807TP3      O14239   1.919   4.847   9.188 -0.0187  0.3956  0.4779
  807TP3     H114240   1.891   4.756   9.178  1.0492 -0.1076  1.7688
  807TP3     H214241   1.993   4.856   9.127  1.3608 -0.3196  1.9725
  808TP3      O14242   5.065   0.391   9.503  0.4357 -0.5664  0.0306
  808TP3     H114243   5.133   0.332   9.537  1.4699  0.3813 -0.3482
  808TP3     H214244   5.084   0.398   9.409  0.8545  1.0286  0.2141
  809TP3      O14245   5.186   1.792   1.003 -0.1908  0.2983 -0.3465
  809TP3     H114246   5.173   1.703   0.968 -1.2244  1.0259 -1.9545
  809TP3     H214247   5.120   1.801   1.071 -0.1406 -0.1364 -0.2369
  810TP3      O14248   2.283   1.756   2.384  0.4615  0.1464  0.2908
  810TP3     H114249   2.312   1.712   2.464  0.4515  0.7594  0.6371
  810TP3     H214250   2.289   1.689   2.316 -0.9678 -0.8330  1.0722
  811TP3      O14251   0.235   3.635   0.496 -0.8818  0.2221 -0.3028
  811TP3     H114252   0.192   3.550   0.497 -0.1147 -0.1809  1.2611
  811TP3     H214253   0.164   3.698   0.488 -1.8281 -0.4232  2.2457
  812TP3      O14254   2.042   4.899   9.738  0.2721  0.1786  0.0476
  812TP3     H114255   2.041   4.872   9.646 -0.6635  1.9815 -0.5196
  812TP3     H214256   1.950   4.892   9.765  0.7181 -1.4927  1.2378
  813TP3      O14257   1.927   0.840   9.384  0.0478 -0.2710 -0.3485
  813TP3     H114258   1.906   0.762   9.436 -2.3011 -0.2085 -1.0881
  813TP3     H214259   1.941   0.908   9.450 -3.4656 -0.0490  0.4158
  814TP3      O14260   4.975   0.278   8.151 -0.4615  0.0483 -0.0566
  814TP3     H114261   4.992   0.372   8.139 -1.4935  0.2943  0.2910
  814TP3     H214262   4.993   0.263   8.244 -0.8678  0.0391  0.0242
  815TP3      O14263   4.240   1.507   0.469  0.5215 -0.2081 -0.5103
  815TP3     H114264   4.187   1.532   0.394 -0.1852 -0.9018 -0.2523
  815TP3     H214265   4.226   1.413   0.479  2.1527 -0.5150 -0.7093
  816TP3      O14266   5.190   0.033   8.824  0.1887  0.6045  0.1808
  816TP3     H114267   5.145   0.116   8.838 -1.9485 -0.7324  1.7771
  816TP3     H214268   5.126  -0.022   8.780  0.0180 -1.4638  2.7831
  817TP3      O14269   0.263   0.503  10.290  0.0921 -0.5003 -0.3415
  817TP3     H114270   0.352   0.467  10.284  0.2877 -0.6591  2.4687
  817TP3     H214271   0.262   0.572  10.224  2.1312 -0.8208 -0.7976
  818TP3      O14272   4.278   4.529   1.464  0.5998 -0.0586 -0.1155
  818TP3     H114273   4.332   4.603   1.493 -0.1061  0.4863 -0.1557
  818TP3     H214274   4.299   4.459   1.525  0.4992  0.5011  0.5763
  819TP3      O14275   2.176   5.059   6.715  0.5723 -0.5715 -0.2216
  819TP3     H114276   2.089   5.075   6.678  0.3080  0.2667  0.7261
  819TP3     H214277   2.160   5.048   6.809  1.7081  1.8188  0.3242
  820TP3      O14278   0.045   1.884   3.937 -0.5632  0.0100 -0.0074
  820TP3     H114279   0.008   1.969   3.961  0.9643  0.4525  0.9238
  820TP3     H214280   0.067   1.892   3.844 -1.7141  0.1194 -0.2864
  821TP3      O14281   0.418   4.431   0.736  0.5313 -0.0942 -0.0222
  821TP3     H114282   0.419   4.458   0.644  3.1578  0.4581  0.0875
  821TP3     H214283   0.326   4.436   0.761 -0.3857 -0.9991 -2.8044
  822TP3      O14284   1.144   0.542   0.241  0.0029 -0.5033  0.3695
  822TP3     H114285   1.101   0.572   0.322  1.0917  0.5315  0.5988
  822TP3     H214286   1.209   0.610   0.222 -0.0432 -0.8713 -1.2404
  823TP3      O14287   2.478   1.334   1.199 -0.1672 -0.0872  0.2560
  823TP3     H114288   2.554   1.302   1.150 -0.2617 -1.8091  1.1183
  823TP3     H214289   2.419   1.370   1.133  0.4914 -0.6879 -0.6813
  824TP3      O14290   4.366   4.948   0.192  0.2521 -0.0411  0.5111
  824TP3     H114291   4.317   4.977   0.269 -0.9945  0.3800 -0.3914
  824TP3     H214292   4.414   5.026   0.164  0.6845 -0.1869  0.8420
  825TP3      O14293   3.353   0.173   2.806  0.3447 -0.3314  0.5035
  825TP3     H114294   3.415   0.237   2.842  1.5329 -0.8477 -0.5424
  825TP3     H214295   3.407   0.115   2.752 -1.1153 -0.5919 -0.7516
  826TP3      O14296   3.906   3.810   2.484 -0.2883  0.1515  0.3919
  826TP3     H114297   3.835   3.751   2.459 -0.4170  0.7128 -0.6418
  826TP3     H214298   3.867   3.897   2.479 -0.3462  0.3165  2.7394
  827TP3      O14299   3.946   1.052   1.030  0.6195 -0.4273 -0.4081
  827TP3     H114300   3.986   0.989   1.090 -0.4400 -1.7527 -1.0402
  827TP3     H214301   4.013   1.068   0.963  1.0167 -0.6064 -0.0562
  828TP3      O14302   4.756   0.793   2.517 -0.7433  0.0698  0.4434
  828TP3     H114303   4.669   0.754   2.515 -0.3756 -0.7751  0.1761
  828TP3     H214304   4.742   0.886   2.501 -1.6231  0.0024  0.7966
  829TP3      O14305   1.909   0.715   3.075  0.1718 -0.0712  0.2152
  829TP3     H114306   1.937   0.743   3.163 -0.4625 -0.3535  0.5080
  829TP3     H214307   1.850   0.642   3.091  0.7390 -0.6893 -0.4939
  830TP3      O14308   3.431   2.352   2.687 -0.8705 -0.3643  0.5455
  830TP3     H114309   3.526   2.365   2.679 -1.0060 -0.4881 -2.8069
  830TP3     H214310   3.421   2.258   2.700 -0.5517 -0.3369  1.0247
  831TP3      O14311   2.414   4.730   6.594 -0.5028 -0.1130 -0.2328
  831TP3     H114312   2.461   4.813   6.598  1.2705 -1.0766 -0.0559
  831TP3     H214313   2.360   4.737   6.515  1.8131  0.1334 -1.8870
  832TP3      O14314   3.564   0.934   9.214  0.0510 -0.1469 -0.1862
  832TP3     H114315   3.644   0.920   9.264 -1.4409  0.1788  2.5135
  832TP3     H214316   3.531   0.846   9.196  0.8207 -0.2753 -1.0809
  833TP3      O14317   3.573   3.493   0.729  0.4466  0.0017  0.2047
  833TP3     H114318   3.495   3.547   0.739  1.2150  1.3141 -0.5601
  833TP3     H214319   3.612   3.522   0.647 -0.4901 -3.6069 -1.7243
  834TP3      O14320   1.732   3.633   0.274  0.4954  0.6676 -0.3266
  834TP3     H114321   1.676   3.672   0.207  0.5159  0.5977 -0.3847
  834TP3     H214322   1.785   3.569   0.226  0.7402  0.8499 -0.3018
  835TP3      O14323   5.151   0.912   9.592 -0.0952 -0.0390 -0.2965
  835TP3     H114324   5.246   0.916   9.596 -0.1237 -0.4508  1.8994
  835TP3     H214325   5.132   0.880   9.504  1.8991 -2.6174  0.0984
  836TP3      O14326   3.592   2.278   0.140  0.1612 -0.2678 -0.0589
  836TP3     H114327   3.633   2.338   0.077  0.2878 -0.1219  0.1580
  836TP3     H214328   3.513   2.325   0.170 -0.3668 -0.7052 -0.7491
  837TP3      O14329   0.310   3.072   7.984  0.7949 -0.4000 -0.2167
  837TP3     H114330   0.390   3.020   7.989  2.4134  1.8271 -1.2950
  837TP3     H214331   0.334   3.157   8.020 -1.5077 -0.0463  0.6671
  838TP3      O14332   0.810   3.529   9.883  0.1567  0.2103  0.3241
  838TP3     H114333   0.793   3.534   9.789  2.0069  3.1660 -0.0138
  838TP3     H214334   0.745   3.587   9.922 -0.5915 -0.9893  0.9132
  839TP3      O14335   4.632   2.107   3.634  0.3887  0.3941 -0.0796
  839TP3     H114336   4.674   2.162   3.567  2.1031 -0.5586  0.1661
  839TP3     H214337   4.700   2.045   3.660 -1.0914 -1.0082  0.6001
  840TP3      O14338   3.861   1.336   7.973  0.2980  0.0878 -0.2417
  840TP3     H114339   3.802   1.308   7.903 -0.8239 -1.0630  1.1137
  840TP3     H214340   3.949   1.325   7.936 -0.2654 -0.1467 -1.5753
  841TP3      O14341   3.990   3.752   8.019 -0.0599 -0.1906 -0.3474
  841TP3     H114342   3.989   3.782   7.928 -0.2059  1.8709  0.2787
  841TP3     H214343   3.921   3.803   8.062  1.7067  0.7938  1.4586
  842TP3      O14344   1.866   3.417   2.372  0.2037 -0.2332 -0.3606
  842TP3     H114345   1.838   3.475   2.443 -0.2105 -0.1014 -0.6283
  842TP3     H214346   1.916   3.474   2.313  2.2335 -0.7217  0.7665
  843TP3      O14347   2.639   1.454   2.019  0.3715 -0.0963 -0.0451
  843TP3     H114348   2.625   1.366   1.984  1.5837 -0.2867 -0.1063
  843TP3     H214349   2.653   1.440   2.113 -0.0906  0.1085  0.0567
  844TP3      O14350   3.247   0.385  10.281  0.1630 -0.1757 -0.7019
  844TP3     H114351   3.168   0.366  10.332 -0.3054  1.9544 -0.5495
  844TP3     H214352   3.266   0.477  10.300  2.1342 -0.3739 -1.5019
  845TP3      O14353   4.737   0.188   8.853  0.3884 -0.2887 -0.5559
  845TP3     H114354   4.668   0.189   8.919  1.1256 -1.3437  0.2624
  845TP3     H214355   4.714   0.259   8.793 -0.6327  0.2892  0.4861
  846TP3      O14356   0.042   4.942   1.046 -0.6165  0.3754  1.1720
  846TP3     H114357   0.095   4.973   1.120 -0.1319  0.5478  0.7650
  846TP3     H214358   0.084   4.860   1.019 -0.4318  0.6038  0.7337
  847TP3      O14359   0.374   3.610   1.287 -0.4090  0.2484 -0.4897
  847TP3     H114360   0.304   3.607   1.221 -0.0479 -1.8445 -0.8434
  847TP3     H214361   0.331   3.588   1.369 -0.3076 -0.3604 -0.5935
  848TP3      O14362   0.052   2.192   0.020 -0.2734 -0.1406 -0.8692
  848TP3     H114363   0.046   2.226   0.109 -0.2231 -0.9975 -0.5272
  848TP3     H214364   0.141   2.213  -0.008  0.0875 -0.8509 -0.2911
  849TP3      O14365   0.704   1.454   1.948 -0.5453  0.6142 -0.1012
  849TP3     H114366   0.780   1.452   2.006  0.3505  0.1483 -1.2705
  849TP3     H214367   0.635   1.496   2.001  0.6851  1.6235  0.7601
  850TP3      O14368   2.434   2.455   7.457  0.7541  0.0146 -0.2721
  850TP3     H114369   2.450   2.446   7.552  1.9669  0.3489 -0.4310
  850TP3     H214370   2.511   2.414   7.417  0.5249  0.4050 -1.1120
  851TP3      O14371   5.195   3.085  10.366  0.5218  0.2016 -0.2947
  851TP3     H114372   5.165   2.996  10.349  2.1484 -0.2603 -0.9750
  851TP3     H214373   5.269   3.097  10.305  0.8421  1.7241  0.3499
  852TP3      O14374   2.825   4.346   1.666 -0.1195 -0.3591 -0.2772
  852TP3     H114375   2.845   4.296   1.745 -2.2723 -1.1866 -0.1983
  852TP3     H214376   2.741   4.311   1.636 -0.6936  1.7995 -1.3886
  853TP3      O14377   1.385   2.210   7.985  0.5086  0.4061  0.0673
  853TP3     H114378   1.460   2.261   7.955  0.7946  0.4438  0.8181
  853TP3     H214379   1.356   2.255   8.064 -1.0727  1.1113 -0.8580
  854TP3      O14380   0.204   2.147   1.084 -0.1550 -0.1439 -0.2813
  854TP3     H114381   0.228   2.240   1.089  0.2966 -0.2925  0.5070
  854TP3     H214382   0.124   2.140   1.135 -0.2895 -0.1563 -0.4938
  855TP3      O14383   1.785   4.270   8.855  0.0554 -0.0001 -0.0901
  855TP3     H114384   1.725   4.235   8.922  0.5095 -0.8072 -0.0877
  855TP3     H214385   1.729   4.283   8.778 -0.5524  1.3258  0.5473
  856TP3      O14386   1.618   4.597   2.523 -0.2450  0.2007 -0.2891
  856TP3     H114387   1.582   4.660   2.584  2.5470 -0.4084  2.2556
  856TP3     H214388   1.555   4.524   2.523 -0.2299  0.1085  2.1607
  857TP3      O14389   4.918   0.782   2.128 -0.3798  0.8449 -0.1522
  857TP3     H114390   4.935   0.756   2.037  0.3065  2.6051 -0.5677
  857TP3     H214391   5.004   0.807   2.162 -1.0023  2.8627  0.0723
  858TP3      O14392   3.520   0.243   9.013  0.1288  0.3294 -0.2818
  858TP3     H114393   3.508   0.152   8.987  0.3279  0.2381 -0.0573
  858TP3     H214394   3.580   0.279   8.948  2.4994 -0.5143  1.2906
  859TP3      O14395   4.986   4.447   3.002  0.4373 -0.0497 -0.2826
  859TP3     H114396   4.997   4.518   2.938  0.4185 -0.0061 -0.2376
  859TP3     H214397   4.993   4.490   3.087 -0.2903  0.0140 -0.2474
  860TP3      O14398   1.573   2.777   0.247  0.0537 -0.4287 -0.1357
  860TP3     H114399   1.507   2.777   0.177 -0.4026 -0.4802  0.2917
  860TP3     H214400   1.526   2.744   0.324  0.0776  1.2704  0.6399
  861TP3      O14401   0.654   1.744   8.592  0.1390  0.4722 -0.5333
  861TP3     H114402   0.622   1.818   8.643 -1.7018  0.7690 -2.0452
  861TP3     H214403   0.591   1.674   8.609  2.1121 -1.0018  1.2658
  862TP3      O14404   0.727   0.676   0.570  0.2077  0.2116  0.1376
  862TP3     H114405   0.694   0.670   0.480  0.4023 -1.6592  0.1503
  862TP3     H214406   0.820   0.653   0.563  0.0140 -0.8881  0.9156
  863TP3      O14407   3.818   0.922   9.324 -0.2233 -0.1808 -0.1025
  863TP3     H114408   3.810   0.973   9.404  0.1167 -2.1241  1.2301
  863TP3     H214409   3.913   0.914   9.311 -0.2771 -0.0025 -0.6269
  864TP3      O14410   2.751   3.079   8.329 -0.4774 -0.0834 -0.2937
  864TP3     H114411   2.747   3.064   8.235  1.2047 -0.9032 -0.2688
  864TP3     H214412   2.682   3.022   8.365  0.6795 -1.9311 -0.8462
  865TP3      O14413   2.934   4.110   1.217 -0.0659 -0.0598  0.3334
  865TP3     H114414   3.001   4.044   1.206  0.2400  0.0265  1.5552
  865TP3     H214415   2.882   4.105   1.136  1.4829 -0.0061 -0.7018
  866TP3      O14416   3.743   0.004   2.662 -0.4122 -0.0243  0.3263
  866TP3     H114417   3.775  -0.056   2.595  0.0734  2.0903 -1.4585
  866TP3     H214418   3.652  -0.022   2.676 -0.6413 -0.3315 -1.4615
  867TP3      O14419   3.917   2.749   8.203 -0.9359  0.1464 -0.3368
  867TP3     H114420   3.904   2.818   8.269 -0.8356  1.4110 -1.6062
  867TP3     H214421   3.954   2.676   8.253 -0.5217  1.1909  0.9616
  868TP3      O14422   1.596   2.843   1.287  0.9786 -0.6049  0.1622
  868TP3     H114423   1.583   2.936   1.268 -0.2421 -1.2360 -2.6767
  868TP3     H214424   1.568   2.832   1.378  0.0281  1.6036  0.1779
  869TP3      O14425   1.887   2.037   8.846  0.0330  0.1911  0.0865
  869TP3     H114426   1.972   2.002   8.872  0.1290  0.0329 -0.4132
  869TP3     H214427   1.909   2.106   8.783 -0.2416 -0.9368 -1.3048
  870TP3      O14428   4.336   4.336   9.205 -0.0094 -0.3346  0.1288
  870TP3     H114429   4.302   4.364   9.120 -0.8504  0.7572  0.8050
  870TP3     H214430   4.366   4.417   9.247 -2.1217 -0.4086  1.9559
  871TP3      O14431   3.771   4.506  10.046  0.4929 -0.3771  0.7028
  871TP3     H114432   3.686   4.476  10.079  0.8661 -2.0146  0.2786
  871TP3     H214433   3.833   4.438  10.074  1.8385  1.1565  1.6854
  872TP3      O14434   4.574   2.915   1.451 -0.2846 -0.3433 -0.0035
  872TP3     H114435   4.568   2.975   1.377 -0.5335  1.9758  1.7885
  872TP3     H214436   4.632   2.845   1.421 -1.0793  0.0400 -2.6451
  873TP3      O14437   2.409   2.060   7.245 -0.5203 -0.3251  0.3400
  873TP3     H114438   2.422   2.034   7.154 -0.6183  0.2775  0.1470
  873TP3     H214439   2.496   2.084   7.276 -0.5435 -0.1650  0.2846
  874TP3      O14440   4.186   4.518   0.076 -0.7229 -0.6669  0.3304
  874TP3     H114441   4.122   4.589   0.084 -1.1728 -0.9031 -0.8294
  874TP3     H214442   4.271   4.561   0.083 -0.9976 -0.2646  1.3133
  875TP3      O14443   2.934   1.967   6.857 -0.9440 -0.0452  0.3621
  875TP3     H114444   3.018   1.991   6.896 -0.9306  1.9388 -0.7354
  875TP3     H214445   2.869   2.005   6.915 -1.0521 -0.5965  0.6035
  876TP3      O14446   1.351   4.380   1.051 -0.2990 -0.2783  0.0094
  876TP3     H114447   1.327   4.385   1.143 -0.2063  1.9144 -0.0218
  876TP3     H214448   1.269   4.364   1.005 -0.3505 -1.3489  0.4534
  877TP3      O14449   4.717   3.442   1.456  0.1697 -0.0235 -0.3215
  877TP3     H114450   4.702   3.498   1.379 -2.3382  0.3111  0.3179
  877TP3     H214451   4.644   3.380   1.455  2.3365 -2.7626 -0.4624
  878TP3      O14452   3.482   4.210   8.507  0.2973  0.2768  0.2059
  878TP3     H114453   3.486   4.182   8.598 -0.8297  0.3046  0.2741
  878TP3     H214454   3.401   4.260   8.500  0.0322 -0.2666 -0.9547
  879TP3      O14455   1.651   2.001   9.965  0.3497  0.2065 -0.6425
  879TP3     H114456   1.693   2.052  10.034 -0.1346  0.0098 -0.1980
  879TP3     H214457   1.572   2.050   9.943  0.1753 -0.0585 -0.6147
  880TP3      O14458   4.581   5.142   0.113  0.2957 -0.3523 -0.3811
  880TP3     H114459   4.601   5.233   0.090 -0.8357 -0.1172 -0.5204
  880TP3     H214460   4.605   5.092   0.035  1.0314 -0.2008 -0.2629
  881TP3      O14461   2.469   2.261   2.360 -0.4780 -0.3993 -0.0202
  881TP3     H114462   2.399   2.240   2.422 -0.3624  1.2730  0.7063
  881TP3     H214463   2.426   2.261   2.275 -1.1958 -0.1251  0.3373
  882TP3      O14464   2.191   2.730   9.048  0.3441 -0.4098 -0.4897
  882TP3     H114465   2.132   2.734   8.973  0.7795  2.4184 -0.7962
  882TP3     H214466   2.151   2.788   9.114  1.5419 -0.3342  0.2117
  883TP3      O14467   2.678   2.807   7.091 -0.3539 -0.5440 -0.3698
  883TP3     H114468   2.751   2.813   7.153 -0.9300  0.3452  0.2544
  883TP3     H214469   2.702   2.736   7.032  0.7853 -0.5914  0.1268
  884TP3      O14470   0.136   4.893   1.313  0.3022  0.2892  0.0101
  884TP3     H114471   0.154   4.964   1.375 -0.5879  0.8423 -0.3340
  884TP3     H214472   0.218   4.846   1.305  0.9830  1.4367  0.0620
  885TP3      O14473   5.171   5.160   7.352  0.3323 -0.2272  0.1568
  885TP3     H114474   5.225   5.221   7.401  0.5419 -1.2313  1.2238
  885TP3     H214475   5.096   5.212   7.323  0.8171  0.6734  0.4866
  886TP3      O14476   0.790   0.239   9.268 -0.4550  0.3938  0.0475
  886TP3     H114477   0.856   0.171   9.254  0.5729  1.3891 -0.0147
  886TP3     H214478   0.816   0.283   9.348 -0.5575  1.3406 -0.4186
  887TP3      O14479   3.673   3.860   9.400  0.2182  0.1600  0.6163
  887TP3     H114480   3.584   3.893   9.390  0.2154 -0.0868 -0.2688
  887TP3     H214481   3.663   3.766   9.412  0.4099 -0.1554 -1.2971
  888TP3      O14482   2.316   2.362   3.323  0.0261  0.3717 -0.1696
  888TP3     H114483   2.313   2.434   3.385 -1.2028  0.1525  0.0592
  888TP3     H214484   2.380   2.389   3.257  1.0123  0.8030  0.9305
  889TP3      O14485   1.119   4.008   9.546  0.2412  0.2548  0.0690
  889TP3     H114486   1.066   4.050   9.614  0.3517  0.4915  0.0122
  889TP3     H214487   1.086   4.046   9.464 -0.2444 -0.4173 -0.0495
  890TP3      O14488   0.632   2.180   2.040 -0.1671 -0.2222  0.4925
  890TP3     H114489   0.678   2.200   1.959  1.0618  0.6228  1.3614
  890TP3     H214490   0.633   2.084   2.045  0.7492 -0.2446  0.0706
  891TP3      O14491   2.900   2.866   7.218  0.6325 -0.0649 -0.4054
  891TP3     H114492   2.926   2.940   7.273  1.5372  0.6414 -1.7109
  891TP3     H214493   2.982   2.837   7.178 -0.0253 -0.3863 -1.5653
  892TP3      O14494   0.460   3.412   1.095  0.2160  0.3787 -0.0420
  892TP3     H114495   0.528   3.415   1.162  0.6026 -0.1700 -0.3935
  892TP3     H214496   0.488   3.475   1.029  1.2768 -0.9933 -0.9781
  893TP3      O14497   2.311   2.877   0.768 -0.5734  0.7579 -0.2069
  893TP3     H114498   2.395   2.867   0.813 -0.2814 -0.9762 -1.0293
  893TP3     H214499   2.307   2.969   0.742  1.9684  0.5100 -1.7954
  894TP3      O14500   3.911   4.510   1.826  0.2262 -0.0284 -0.0553
  894TP3     H114501   3.931   4.576   1.760 -1.2863 -0.8138 -1.3667
  894TP3     H214502   3.950   4.430   1.792 -1.2615 -0.6211 -0.4592
  895TP3      O14503   1.197   2.381   1.626 -0.2926 -0.2765 -0.0149
  895TP3     H114504   1.157   2.295   1.640  2.3112 -1.4592  0.7464
  895TP3     H214505   1.268   2.365   1.563  2.3190  0.5606  2.4878
  896TP3      O14506   2.913   2.996  10.393  0.5082 -0.2718 -0.0212
  896TP3     H114507   2.837   3.023  10.445  0.4624 -0.5187  0.0387
  896TP3     H214508   2.886   2.915  10.350  0.0383  0.6573 -1.5476
  897TP3      O14509   1.063   4.138   8.658 -0.1636 -0.0825 -0.0236
  897TP3     H114510   1.013   4.170   8.583 -1.4613 -2.4631 -0.2598
  897TP3     H214511   1.027   4.187   8.733 -0.7974  0.3214 -0.5800
  898TP3      O14512   2.895   2.228   9.813  0.5054  0.1712 -0.2774
  898TP3     H114513   2.985   2.259   9.801  1.3819 -1.5973  1.3083
  898TP3     H214514   2.904   2.146   9.861 -1.9046 -0.7294 -1.2264
  899TP3      O14515   3.946   0.076   0.653 -0.0581 -0.1520 -0.2668
  899TP3     H114516   4.029   0.120   0.633  1.2184 -1.7364  1.1479
  899TP3     H214517   3.973  -0.007   0.694 -2.3205 -1.7068 -1.7119
  900TP3      O14518   5.165   1.109   8.083  0.1286 -0.2469  0.6557
  900TP3     H114519   5.132   1.097   8.172  1.0540  1.6420  1.2957
  900TP3     H214520   5.202   1.197   8.083 -0.2774 -0.0268 -1.7526
  901TP3      O14521   4.912   0.109   2.793  0.6577  0.5586 -0.0861
  901TP3     H114522   4.869   0.117   2.878  2.2905  0.5868  0.7707
  901TP3     H214523   4.868   0.173   2.738  0.6411  1.6979  1.2078
  902TP3      O14524   2.788   0.439   2.237 -0.1213  0.7279 -0.3105
  902TP3     H114525   2.833   0.414   2.155  0.6690 -0.0655  0.3402
  902TP3     H214526   2.700   0.403   2.228 -0.3310  1.4217 -1.1811
  903TP3      O14527   5.044   3.119   3.366 -0.4450  0.0236 -0.7799
  903TP3     H114528   4.997   3.097   3.446  2.6873 -0.8740  0.9830
  903TP3     H214529   5.048   3.037   3.317 -0.9162  0.1721 -1.0763
  904TP3      O14530   4.241   0.879   9.308 -0.4981 -0.4134 -0.6804
  904TP3     H114531   4.272   0.969   9.315 -1.8789  0.1576 -1.4773
  904TP3     H214532   4.276   0.835   9.386 -0.5498  1.0366  0.1847
  905TP3      O14533   0.240   3.305   2.824  0.9075  0.2252 -0.1102
  905TP3     H114534   0.227   3.213   2.845 -1.1632  0.5246  0.1184
  905TP3     H214535   0.261   3.307   2.731  1.4201 -0.5087 -0.0108
  906TP3      O14536   3.529   1.407   7.225  0.2721  0.7065  0.2246
  906TP3     H114537   3.622   1.383   7.217  0.3537  1.1192 -0.1383
  906TP3     H214538   3.482   1.332   7.189  0.3833 -0.2208  1.9197
  907TP3      O14539   3.961   2.512   7.817  0.1079  0.2534  0.0445
  907TP3     H114540   3.920   2.489   7.900  1.4596  2.0548  1.2754
  907TP3     H214541   4.055   2.505   7.834  0.4118  0.9173 -1.2516
  908TP3      O14542   3.203   3.569   0.272 -0.0622 -0.6035  0.4724
  908TP3     H114543   3.250   3.495   0.233 -0.1740 -0.2695 -0.3164
  908TP3     H214544   3.180   3.625   0.197  0.1673  0.3123  1.0663
  909TP3      O14545   0.743   4.251   7.100  0.1917  0.1574 -0.5823
  909TP3     H114546   0.784   4.323   7.050  0.4979  0.2686 -0.1732
  909TP3     H214547   0.694   4.202   7.034 -0.6509  1.1765 -0.7620
  910TP3      O14548   2.293   3.551   0.060  0.0585  0.0241  0.3960
  910TP3     H114549   2.291   3.518  -0.030 -1.1945  0.9306  0.0570
  910TP3     H214550   2.244   3.633   0.056  1.1594  0.7762  1.6477
  911TP3      O14551   4.631   1.065   8.256 -0.2623  0.0052  0.2204
  911TP3     H114552   4.559   1.076   8.195 -0.7462 -0.0326  0.7819
  911TP3     H214553   4.636   1.149   8.303 -0.1782 -0.1164  0.4306
  912TP3      O14554   1.977   3.415  10.254  0.3404 -0.3096 -0.1658
  912TP3     H114555   1.904   3.358  10.274  0.0321  0.0795 -0.1718
  912TP3     H214556   1.970   3.487  10.317  0.6630 -0.2201 -0.2265
  913TP3      O14557   1.567   0.730   9.226  0.0479 -0.0278 -0.2389
  913TP3     H114558   1.608   0.692   9.303 -1.1565 -0.8552  0.0307
  913TP3     H214559   1.591   0.671   9.154  0.3830  0.2011 -0.3118
  914TP3      O14560   3.008   0.702   3.028 -0.1210 -0.2321 -0.0960
  914TP3     H114561   3.086   0.689   3.081 -1.5762  0.2570  2.3506
  914TP3     H214562   3.011   0.633   2.961  2.1756 -0.4199  0.1487
  915TP3      O14563   0.316   0.505   2.679 -0.6719  0.4490  0.3456
  915TP3     H114564   0.307   0.544   2.766 -4.5435 -1.5209  1.0251
  915TP3     H214565   0.320   0.580   2.619  1.6239  1.8347  2.0399
  916TP3      O14566   0.719   3.851   9.124  0.6420 -0.1946 -0.4803
  916TP3     H114567   0.751   3.907   9.054 -1.3069  1.4897 -0.1218
  916TP3     H214568   0.769   3.877   9.201  1.0366 -0.2641 -0.7146
  917TP3      O14569   0.982   3.211   7.837 -0.1135 -0.4163 -0.1149
  917TP3     H114570   0.995   3.291   7.888  1.0109  1.1783 -2.6700
  917TP3     H214571   0.918   3.235   7.770  1.5552 -1.0164 -2.0393
  918TP3      O14572   3.316   2.353   0.875  0.0090 -0.4176  0.5159
  918TP3     H114573   3.320   2.332   0.782 -0.0636 -1.4471  0.7385
  918TP3     H214574   3.304   2.448   0.877  1.3223 -0.1985 -0.5018
  919TP3      O14575   3.638   2.185   8.359  0.2270 -0.0002 -0.3047
  919TP3     H114576   3.692   2.106   8.355 -0.4890 -0.4848 -0.5574
  919TP3     H214577   3.662   2.234   8.280  0.7491  0.0968 -0.0934
  920TP3      O14578   2.502   1.418   9.354  0.0419  0.1275 -0.5458
  920TP3     H114579   2.594   1.441   9.345  0.3149  1.9531  4.2783
  920TP3     H214580   2.459   1.499   9.380 -1.8405 -1.6363  2.4705
  921TP3      O14581   0.126   4.351   9.434 -0.1878  0.0075 -0.2946
  921TP3     H114582   0.142   4.406   9.511  1.1896  0.7824 -1.1030
  921TP3     H214583   0.174   4.394   9.364 -1.6966 -0.4910 -1.6876
  922TP3      O14584   2.947   4.205   2.252 -0.2332  0.9502  0.5274
  922TP3     H114585   2.914   4.127   2.297  3.0741 -1.0854 -0.2045
  922TP3     H214586   2.914   4.197   2.162  1.7656 -0.8902 -0.1199
  923TP3      O14587   3.752   0.709  10.053  0.4111 -0.1941  0.1050
  923TP3     H114588   3.806   0.788  10.057 -0.2164  0.2102  2.4839
  923TP3     H214589   3.672   0.733  10.100 -0.8821 -1.4896 -1.3437
  924TP3      O14590   0.478   4.051   8.883 -0.3393 -0.4165 -0.2294
  924TP3     H114591   0.453   4.136   8.847 -0.1079  0.0324  0.6367
  924TP3     H214592   0.572   4.058   8.898 -0.6797  0.0236  1.9816
  925TP3      O14593   1.656   5.007   0.165  0.3153 -0.7800  0.6727
  925TP3     H114594   1.595   5.073   0.130  0.7128 -0.1933  1.0706
  925TP3     H214595   1.659   4.939   0.097  2.1480  0.9619 -1.1392
  926TP3      O14596   4.655   3.745   7.594 -0.4671  0.3815  0.2261
  926TP3     H114597   4.591   3.749   7.523 -1.6982  1.0921  1.3387
  926TP3     H214598   4.725   3.688   7.559 -1.0689  0.6211 -1.4903
  927TP3      O14599   0.539   2.758   8.616  0.3768  0.5812  0.4496
  927TP3     H114600   0.617   2.799   8.579  0.7734 -0.1984  0.3943
  927TP3     H214601   0.480   2.748   8.542  0.3192  0.9536  0.4437
  928TP3      O14602   0.217   3.650   8.651  0.1659 -0.2533 -0.1886
  928TP3     H114603   0.132   3.663   8.692  0.2188  0.9288 -0.4305
  928TP3     H214604   0.197   3.634   8.559  0.2087  0.1369 -0.2666
  929TP3      O14605   4.600   3.052   7.833 -0.0288 -0.1600  0.1759
  929TP3     H114606   4.545   2.995   7.887  1.2217 -0.5587  1.0742
  929TP3     H214607   4.574   3.031   7.743 -0.3590 -1.3678  0.5355
  930TP3      O14608   2.546   1.111   2.255 -0.6080  0.1760 -0.3773
  930TP3     H114609   2.508   1.149   2.334  0.0464 -0.7781  0.4081
  930TP3     H214610   2.635   1.148   2.251 -1.0430  1.2136 -1.3862
  931TP3      O14611   3.657   1.249   2.266 -0.3283  0.0385  0.2781
  931TP3     H114612   3.619   1.175   2.313 -1.4947  0.6355  0.3147
  931TP3     H214613   3.646   1.228   2.174  1.4073 -0.8542  0.2470
  932TP3      O14614   3.670   1.664   7.309 -0.0095  0.4924  0.3999
  932TP3     H114615   3.759   1.652   7.277 -0.4258  2.6141 -1.8448
  932TP3     H214616   3.618   1.600   7.259  0.2415 -1.0584  2.0304
  933TP3      O14617   3.862   2.566   6.812 -0.3977 -0.0791 -0.3301
  933TP3     H114618   3.904   2.480   6.807 -1.5111 -0.6134 -0.7437
  933TP3     H214619   3.916   2.615   6.874  1.8403 -0.1583 -2.0700
  934TP3      O14620   1.334   0.110   1.689 -0.3339 -0.0107 -0.3842
  934TP3     H114621   1.410   0.096   1.746 -1.4842 -1.6870  0.8353
  934TP3     H214622   1.308   0.200   1.705 -0.3114 -0.2844  1.4149
  935TP3      O14623   4.646   2.659   7.944  0.6427  0.2047 -0.0982
  935TP3     H114624   4.594   2.692   8.018  0.7618  1.2039 -0.4481
  935TP3     H214625   4.583   2.652   7.873  0.3662 -1.4787  0.2752
  936TP3      O14626   0.288   3.211   8.293 -0.1842  0.6933  0.1483
  936TP3     H114627   0.292   3.116   8.286 -1.7644  0.5285  0.9122
  936TP3     H214628   0.296   3.228   8.387  0.5463  1.3529 -0.0267
  937TP3      O14629   0.004   0.510   9.951  0.1037 -0.3265  0.2291
  937TP3     H114630   0.090   0.471   9.937  0.8804  1.2967  0.2766
  937TP3     H214631  -0.013   0.561   9.872 -0.2305  0.3989  0.7544
  938TP3      O14632   2.916   2.833   1.694 -0.7662 -0.8628  0.2054
  938TP3     H114633   2.928   2.757   1.637 -0.8473 -0.2028 -0.7099
  938TP3     H214634   2.871   2.897   1.639  0.9268  0.5469  0.3548
  939TP3      O14635   0.373   4.920   0.186  0.1887 -0.0621  0.4571
  939TP3     H114636   0.366   5.015   0.177  2.2316  0.2259  1.3502
  939TP3     H214637   0.433   4.907   0.260 -0.4688 -2.0617  0.7066
  940TP3      O14638   4.188   1.199   2.625 -0.5743  0.4884  0.1997
  940TP3     H114639   4.252   1.239   2.684  0.7511 -0.6041 -0.4540
  940TP3     H214640   4.201   1.244   2.541  0.8030 -1.0701 -0.4921
  941TP3      O14641   2.898   2.621   2.464 -0.7124 -0.0378 -0.5197
  941TP3     H114642   2.905   2.712   2.437 -0.7336  0.5439  1.3227
  941TP3     H214643   2.839   2.581   2.400 -0.5930  1.1839 -1.4301
  942TP3      O14644   2.512   2.758   0.203 -0.3979  0.2846 -0.4736
  942TP3     H114645   2.464   2.840   0.215 -1.4012 -0.4897  1.0222
  942TP3     H214646   2.584   2.762   0.265 -2.0369 -1.0878  1.6422
  943TP3      O14647   4.035   1.338   1.898  0.1008  0.2316  0.1496
  943TP3     H114648   4.013   1.279   1.970  0.6437  2.4782  2.3043
  943TP3     H214649   4.110   1.297   1.856 -0.5157 -1.3816  0.5314
  944TP3      O14650   2.017   2.138  10.118 -0.3586  0.2333  0.0040
  944TP3     H114651   2.088   2.192  10.153  0.6208 -0.1214 -1.3440
  944TP3     H214652   2.038   2.049  10.147  1.0752 -0.2490 -2.2436
  945TP3      O14653   5.004   1.254   1.491  0.1969  0.0376  0.6720
  945TP3     H114654   4.951   1.333   1.483  0.2091 -0.0316 -0.1140
  945TP3     H214655   5.092   1.286   1.512 -0.1779  0.1425  2.1976
  946TP3      O14656   4.551   0.975   8.841 -0.1523 -0.0601 -0.2295
  946TP3     H114657   4.503   0.959   8.923  0.8204  0.3477  0.4414
  946TP3     H214658   4.485   1.010   8.781 -1.0653 -1.1661  0.0989
  947TP3      O14659   1.010   1.155   2.166 -0.0884  0.4812 -0.3056
  947TP3     H114660   1.088   1.150   2.111  0.5009  0.1665  0.5380
  947TP3     H214661   1.003   1.069   2.206 -0.1525  0.8772  0.5686
  948TP3      O14662   4.836   0.775   0.082 -0.3725  0.5047 -0.0886
  948TP3     H114663   4.915   0.819   0.050 -0.3332 -1.1328 -2.5248
  948TP3     H214664   4.867   0.689   0.112 -1.0514  0.3825  0.2674
  949TP3      O14665   0.762   4.258   9.107  0.2184 -0.8043 -0.6662
  949TP3     H114666   0.825   4.282   9.040  0.1827 -1.2190 -0.8523
  949TP3     H214667   0.784   4.167   9.130  0.4063 -0.5799  0.0779
  950TP3      O14668   3.638   4.619   7.572 -0.0183  0.3559 -0.1992
  950TP3     H114669   3.562   4.562   7.581  0.2078 -0.1304 -1.1967
  950TP3     H214670   3.651   4.626   7.477  0.0301  1.9838 -0.0887
  951TP3      O14671   3.183   2.447   1.518 -0.0601  0.1134 -0.0910
  951TP3     H114672   3.178   2.501   1.597  0.2504  0.1317 -0.0808
  951TP3     H214673   3.263   2.477   1.474  1.1121 -1.5600  0.8285
  952TP3      O14674   1.781   4.693   1.687 -0.3565 -0.2506  0.2547
  952TP3     H114675   1.810   4.667   1.775 -1.8274 -1.2458  0.4848
  952TP3     H214676   1.829   4.635   1.628 -0.1002 -0.2474  0.4578
  953TP3      O14677   0.050   3.162   8.134  0.1957 -0.1826  0.3772
  953TP3     H114678   0.142   3.166   8.159 -0.0433 -0.3403  1.3031
  953TP3     H214679   0.044   3.086   8.075  0.8609  0.5156 -0.6184
  954TP3      O14680   4.886   3.971   2.720 -0.2392  0.2360  0.8499
  954TP3     H114681   4.919   3.882   2.710  1.1532  0.7783  0.3742
  954TP3     H214682   4.887   4.007   2.631 -2.3554  0.2342  0.7702
  955TP3      O14683   0.701   5.041   1.625 -0.1303  0.2804  0.2821
  955TP3     H114684   0.712   5.115   1.685  1.7816 -0.5511  1.0361
  955TP3     H214685   0.755   5.062   1.549 -0.7965  0.3378 -0.1824
  956TP3      O14686   3.991   0.588  10.032 -0.4787  0.2455  0.3102
  956TP3     H114687   3.902   0.609  10.060 -0.1510  1.1570  0.7022
  956TP3     H214688   3.988   0.597   9.936 -0.7825  0.4099  0.3333
  957TP3      O14689   0.376   0.317   7.484  0.1102 -0.5200  0.0091
  957TP3     H114690   0.350   0.407   7.462  2.0091 -0.4144 -2.1990
  957TP3     H214691   0.400   0.321   7.577 -1.3280  0.8622  0.3523
  958TP3      O14692   2.326   4.205   0.217 -0.3405  0.9329 -0.2112
  958TP3     H114693   2.290   4.118   0.234  0.4738  0.7768  0.7644
  958TP3     H214694   2.270   4.264   0.266 -0.1801  0.8398  0.0842
  959TP3      O14695   1.064   1.614   0.639  0.0267  0.3559 -0.4982
  959TP3     H114696   0.975   1.585   0.658  0.2321 -0.5495 -0.8206
  959TP3     H214697   1.105   1.623   0.725 -0.0344 -0.3955 -0.3807
  960TP3      O14698   1.033   1.112   8.912  0.5985  0.3898 -0.4443
  960TP3     H114699   1.008   1.095   8.821 -0.6746 -2.8999  0.3608
  960TP3     H214700   0.955   1.088   8.962  2.2354 -0.7856  1.6717
  961TP3      O14701   0.420   1.717   1.890  0.1984 -0.1191  0.3817
  961TP3     H114702   0.483   1.736   1.820 -0.8220 -1.1220 -0.8583
  961TP3     H214703   0.424   1.622   1.901 -0.3720 -0.0806  0.9978
  962TP3      O14704   3.549   3.788   8.874 -0.0053 -0.1663 -0.1519
  962TP3     H114705   3.511   3.788   8.786 -0.9715 -1.5123  0.2365
  962TP3     H214706   3.565   3.696   8.893  0.5282  0.1379  0.9553
  963TP3      O14707   1.596   1.497   9.794  0.1176  0.4778 -0.0704
  963TP3     H114708   1.691   1.501   9.780  0.2938 -1.1127  0.4822
  963TP3     H214709   1.574   1.405   9.782 -1.4898  0.9291 -0.8652
  964TP3      O14710   1.670   0.016   7.014  0.5453  0.0757  0.7604
  964TP3     H114711   1.671   0.100   7.059  2.1260  0.2074  0.5683
  964TP3     H214712   1.605  -0.036   7.060  0.8767  0.7939  2.0889
  965TP3      O14713   0.585   4.158   1.015 -0.4374  0.2350  0.0926
  965TP3     H114714   0.494   4.134   0.997 -0.1411 -1.4492  0.6732
  965TP3     H214715   0.635   4.115   0.946 -0.0173  0.4518  0.2585
  966TP3      O14716   4.248   2.540   7.853 -0.2508 -0.0945 -0.1352
  966TP3     H114717   4.292   2.576   7.930  0.5592  1.2908 -1.2120
  966TP3     H214718   4.269   2.600   7.782 -0.7379 -1.4872 -1.5287
  967TP3      O14719   2.831   0.793   8.691 -0.2716 -0.0232 -0.4405
  967TP3     H114720   2.773   0.851   8.641  1.9747  1.2731 -1.7297
  967TP3     H214721   2.912   0.844   8.702  1.5611 -2.6087 -0.9348
  968TP3      O14722   0.746   4.763   8.847 -0.0424 -0.6486 -0.0465
  968TP3     H114723   0.653   4.776   8.863 -0.2561 -0.3319 -1.4822
  968TP3     H214724   0.750   4.689   8.786  0.4190  1.4235 -2.6867
  969TP3      O14725   4.288   2.697   0.477  0.1968 -0.0603 -0.1649
  969TP3     H114726   4.288   2.783   0.519  0.1934  0.9941 -2.2018
  969TP3     H214727   4.301   2.635   0.549  0.8370  1.6679  1.2729
  970TP3      O14728   3.740   4.602   1.556 -0.0320 -0.3475 -0.0423
  970TP3     H114729   3.769   4.564   1.473 -0.6580  0.1935 -0.5209
  970TP3     H214730   3.813   4.658   1.582 -0.0111 -0.1683 -0.4653
  971TP3      O14731   2.838   0.390   7.016 -0.2523 -0.3946  0.0294
  971TP3     H114732   2.756   0.343   7.032  0.1169 -0.8433  0.7000
  971TP3     H214733   2.853   0.438   7.098 -0.7551  1.1211 -0.7381
  972TP3      O14734   0.446   1.731   3.019  0.1029 -0.3736 -0.1002
  972TP3     H114735   0.443   1.649   2.971  2.5912 -1.2111  0.9973
  972TP3     H214736   0.494   1.710   3.099 -2.1491  1.4110  1.8806
  973TP3      O14737   2.990   3.198   1.814  0.7760  0.2392  0.0078
  973TP3     H114738   3.022   3.162   1.731  0.0683  1.1419 -0.6782
  973TP3     H214739   3.047   3.160   1.881  1.3561 -0.5011 -0.8944
  974TP3      O14740   3.228   4.496   8.950  0.0319 -0.0614  0.4343
  974TP3     H114741   3.185   4.421   8.909  0.8484  0.7126 -2.0034
  974TP3     H214742   3.160   4.563   8.957 -0.5133 -0.7266  1.9420
  975TP3      O14743   0.429   0.353   2.202  0.0562 -0.0505  0.1273
  975TP3     H114744   0.427   0.352   2.106  0.2622  1.3236  0.0850
  975TP3     H214745   0.464   0.440   2.224  2.9412 -1.3962  1.3998
  976TP3      O14746   1.325   3.641   8.137 -0.0794 -0.4718  0.1465
  976TP3     H114747   1.367   3.727   8.140 -1.7250  0.5566 -2.5308
  976TP3     H214748   1.379   3.590   8.076 -0.9733 -0.1334 -0.9665
  977TP3      O14749   4.687   0.666   2.255 -0.1530  0.4101  0.0016
  977TP3     H114750   4.601   0.702   2.230 -0.6682 -0.8737 -0.1682
  977TP3     H214751   4.748   0.707   2.194 -0.8995  0.0561 -1.0253
  978TP3      O14752   1.425   0.445   2.092  0.0666 -0.2945  0.2269
  978TP3     H114753   1.362   0.455   2.163  0.3930  0.2794  0.4395
  978TP3     H214754   1.480   0.523   2.097  1.9362 -1.5728  1.1689
  979TP3      O14755   2.960   4.876   8.444 -0.4900  0.4166 -0.1200
  979TP3     H114756   2.990   4.804   8.388 -0.2146  0.3569  0.0989
  979TP3     H214757   2.980   4.955   8.395  1.9845  0.4949  0.8885
  980TP3      O14758   4.175   0.068   8.976 -0.1318  0.2198  0.7827
  980TP3     H114759   4.238   0.100   9.040 -0.7035  0.0020  1.4654
  980TP3     H214760   4.091   0.072   9.022 -0.4878 -0.3241  0.1809
  981TP3      O14761   3.262   3.435   8.179 -0.1957  0.3290 -0.1556
  981TP3     H114762   3.262   3.530   8.170 -1.2708  0.4216  0.6705
  981TP3     H214763   3.191   3.405   8.122 -1.1597  0.2024  1.0746
  982TP3      O14764   2.338   1.369   0.760 -0.2663  0.3107 -0.0892
  982TP3     H114765   2.355   1.278   0.736  0.1707  0.4404 -0.2776
  982TP3     H214766   2.306   1.365   0.850 -0.6014 -0.0604 -0.2228
  983TP3      O14767   1.138   1.204   7.128 -0.1816 -0.2143 -0.1939
  983TP3     H114768   1.202   1.134   7.144  0.4405  0.2961 -0.4350
  983TP3     H214769   1.121   1.199   7.034  0.3035  0.3325 -0.3125
  984TP3      O14770   1.619   3.558   0.749  0.1764  0.0833  0.0257
  984TP3     H114771   1.587   3.478   0.791  1.9150 -0.2775  0.7052
  984TP3     H214772   1.644   3.530   0.661  0.1817  0.0297  0.0444
  985TP3      O14773   2.552   3.446   2.750 -0.2391  0.1618 -0.6201
  985TP3     H114774   2.559   3.531   2.706  0.9501  0.1286 -0.5356
  985TP3     H214775   2.478   3.456   2.810 -0.6187  0.8656 -1.1911
  986TP3      O14776   0.181   0.325   0.847  0.0415  0.4919 -0.1950
  986TP3     H114777   0.179   0.419   0.828 -0.3918  0.2135 -1.6329
  986TP3     H214778   0.247   0.291   0.786  1.8919  0.1663  1.8843
  987TP3      O14779   0.555   4.412   7.548 -0.7163  0.6292 -0.5210
  987TP3     H114780   0.515   4.327   7.565 -0.7209  0.0914 -2.9091
  987TP3     H214781   0.490   4.475   7.579 -0.3480 -0.1638  2.0658
  988TP3      O14782   1.329   4.436   9.270 -0.6923  0.4942 -0.1303
  988TP3     H114783   1.254   4.494   9.279 -1.8624 -1.0029  0.1583
  988TP3     H214784   1.340   4.397   9.357 -0.9198 -0.8496 -0.6756
  989TP3      O14785   3.116   2.223   1.832 -0.4279  0.0552 -0.3711
  989TP3     H114786   3.124   2.237   1.926  0.8620 -0.7399 -0.3321
  989TP3     H214787   3.036   2.172   1.822 -1.9663  2.2557  0.0158
  990TP3      O14788   0.198   2.342   6.607 -0.1558 -0.1880 -0.1619
  990TP3     H114789   0.220   2.320   6.697 -1.9057  0.1572  0.3869
  990TP3     H214790   0.123   2.286   6.586  1.2211 -1.4964 -2.0238
  991TP3      O14791   2.379   1.677   7.520 -0.3913  0.3174 -0.3541
  991TP3     H114792   2.346   1.743   7.581  0.4948  2.0057 -1.5991
  991TP3     H214793   2.320   1.683   7.445 -1.6484 -1.9443  0.3689
  992TP3      O14794   4.127   2.430   9.660 -0.6007 -0.0371  0.1955
  992TP3     H114795   4.152   2.478   9.581 -1.2854  0.7520  0.4485
  992TP3     H214796   4.178   2.471   9.730  0.2327 -0.9313  0.1380
  993TP3      O14797   2.973   1.325   9.575  0.8988  0.2530  0.3268
  993TP3     H114798   2.973   1.420   9.562 -1.3556  0.1496 -0.8868
  993TP3     H214799   2.893   1.308   9.625  1.3260 -1.0238  0.6055
  994TP3      O14800   4.261   0.395   8.686 -0.5836 -0.3100 -0.3568
  994TP3     H114801   4.235   0.480   8.648 -2.1432 -0.9789 -0.8889
  994TP3     H214802   4.233   0.331   8.621  0.2759 -1.2636  0.1930
  995TP3      O14803   0.183   4.776   9.186  0.0279 -0.0622  0.9059
  995TP3     H114804   0.096   4.815   9.173  0.2876  1.1943  2.5604
  995TP3     H214805   0.174   4.722   9.265  0.6153 -0.3465  0.7836
  996TP3      O14806   2.390   2.951   8.269 -0.1283 -0.1253  0.0107
  996TP3     H114807   2.431   2.875   8.226 -0.0405 -0.3012  0.3985
  996TP3     H214808   2.402   3.023   8.207  1.6806  0.0766  0.5284
  997TP3      O14809   0.865   3.221   0.338  0.4561  0.7019 -0.4220
  997TP3     H114810   0.910   3.156   0.283 -0.1175  0.8846 -1.1189
  997TP3     H214811   0.791   3.249   0.285 -0.5639  0.3140  0.7636
  998TP3      O14812   2.660   1.791   8.934 -0.2713 -0.0005  0.1485
  998TP3     H114813   2.620   1.733   8.999 -1.1330  0.9578  0.4907
  998TP3     H214814   2.745   1.751   8.915 -0.2124 -0.5510  1.5066
  999TP3      O14815   3.598   1.370   9.201 -0.2102 -0.3849  0.0978
  999TP3     H114816   3.532   1.393   9.136  1.1945  1.0098 -0.8995
  999TP3     H214817   3.641   1.453   9.224  2.5247 -1.4121 -0.8153
 1000TP3      O14818   3.394   2.651   2.599  0.0247  0.3997  0.2800
 1000TP3     H114819   3.351   2.725   2.556 -4.5910 -0.7562  2.2533
 1000TP3     H214820   3.365   2.575   2.549  1.4244 -0.3796  0.6220
 1001TP3      O14821   0.734   1.150   9.602  0.3766  0.7316  0.1486
 1001TP3     H114822   0.779   1.232   9.622 -0.0711  0.6792  1.4712
 1001TP3     H214823   0.761   1.090   9.672  0.9693 -0.3651 -0.9915
 1002TP3      O14824   1.340   4.665   0.282  0.2869  0.3675  0.1940
 1002TP3     H114825   1.302   4.750   0.257 -0.0462  0.6177  1.4667
 1002TP3     H214826   1.272   4.601   0.263 -1.1667  0.8847  3.0739
 1003TP3      O14827   1.364   1.819   1.661 -0.7611 -0.7037  0.1040
 1003TP3     H114828   1.347   1.799   1.569 -0.2546  0.3583 -0.2376
 1003TP3     H214829   1.456   1.843   1.664 -0.8000 -0.6251  0.8652
 1004TP3      O14830   2.590   0.399   9.273 -0.5613 -0.0554  0.4045
 1004TP3     H114831   2.525   0.429   9.209 -0.8725 -0.6825  0.4121
 1004TP3     H214832   2.543   0.397   9.356 -0.0881  0.9852  0.6998
 1005TP3      O14833   0.710   3.453   1.272  0.4587 -0.2348 -0.1455
 1005TP3     H114834   0.784   3.471   1.213  0.0942  0.0989 -0.5100
 1005TP3     H214835   0.747   3.463   1.360  0.7858  0.2062 -0.3271
 1006TP3      O14836   1.978   2.601   9.766 -0.1662 -0.0563 -0.1263
 1006TP3     H114837   1.943   2.556   9.844  0.3122 -0.0314  0.1078
 1006TP3     H214838   2.017   2.681   9.801  1.3629 -0.7431 -0.1818
 1007TP3      O14839   2.309   4.017   8.401  0.5274  0.3254  0.0882
 1007TP3     H114840   2.278   3.983   8.317  0.4498 -2.4497  1.1326
 1007TP3     H214841   2.230   4.052   8.443  0.3793  0.8149 -0.5884
 1008TP3      O14842   2.492   2.166   1.912 -0.6229 -0.2082 -0.2798
 1008TP3     H114843   2.574   2.126   1.942  0.1365  1.1268 -0.4940
 1008TP3     H214844   2.518   2.252   1.880 -2.0520  0.0444 -0.8281
 1009TP3      O14845   2.348   2.617   7.245 -0.4106 -0.1382  0.6385
 1009TP3     H114846   2.273   2.659   7.286 -1.3186 -1.8426  0.8328
 1009TP3     H214847   2.375   2.549   7.307  0.5537 -0.3327  0.0399
 1010TP3      O14848   0.402   5.168   0.862  0.3585 -0.2190  0.1119
 1010TP3     H114849   0.392   5.136   0.952 -1.7474  2.3624  0.9099
 1010TP3     H214850   0.496   5.165   0.846  0.6240 -2.6490  1.5910
 1011TP3      O14851   3.693   2.855   9.284 -0.3019  0.1091 -0.3568
 1011TP3     H114852   3.648   2.844   9.200  1.0949 -2.0057 -0.9076
 1011TP3     H214853   3.699   2.766   9.319 -0.0032  0.8407  1.5578
 1012TP3      O14854   3.544   3.499   0.369 -0.1741  0.0803  0.4059
 1012TP3     H114855   3.513   3.541   0.289 -0.6741 -0.5525  0.2484
 1012TP3     H214856   3.469   3.505   0.429  1.1223  3.1282  1.9115
 1013TP3      O14857   0.443   2.494   7.509 -0.1248  0.0374  0.2205
 1013TP3     H114858   0.417   2.524   7.596 -2.2063 -2.1256  0.4365
 1013TP3     H214859   0.360   2.486   7.461  0.7016 -1.5110 -1.0401
 1014TP3      O14860   4.335   0.475   1.944 -0.3868 -0.3441  0.0947
 1014TP3     H114861   4.425   0.459   1.914 -0.6376 -0.0048 -0.8679
 1014TP3     H214862   4.301   0.387   1.961  0.2302 -0.4592  0.7962
 1015TP3      O14863   1.917   0.633   1.830 -0.2173 -0.5080  0.0248
 1015TP3     H114864   2.005   0.595   1.823  0.1350  0.0020  1.2991
 1015TP3     H214865   1.906   0.650   1.924 -1.4547 -0.0295 -0.1864
 1016TP3      O14866   2.754   0.881   3.230  0.6064  0.1481  0.0460
 1016TP3     H114867   2.690   0.833   3.284  0.4896 -0.5958 -0.7246
 1016TP3     H214868   2.821   0.910   3.292 -0.3543  0.7509  0.8426
 1017TP3      O14869   4.683   2.358   8.267  0.3206 -0.1373  0.3531
 1017TP3     H114870   4.733   2.408   8.331 -0.7840  1.6119 -0.0634
 1017TP3     H214871   4.592   2.380   8.286 -0.1805 -1.4818 -0.3168
 1018TP3      O14872   3.707   4.180   0.597  0.0112  0.2962  0.0997
 1018TP3     H114873   3.754   4.263   0.606 -0.5305  0.5027  1.1935
 1018TP3     H214874   3.615   4.203   0.608 -0.3556 -0.1546 -1.6829
 1019TP3      O14875   2.038   3.110   0.091 -0.2393 -0.3284  0.1054
 1019TP3     H114876   2.094   3.105   0.014  0.1581  0.6823  0.3172
 1019TP3     H214877   2.064   3.191   0.136 -3.3692  1.4920 -0.9991
 1020TP3      O14878   4.247   0.173   8.206  0.1813  0.0426  0.2118
 1020TP3     H114879   4.265   0.258   8.248  0.6756  0.4904 -0.8539
 1020TP3     H214880   4.202   0.196   8.125  2.6427 -0.4691 -1.4328
 1021TP3      O14881   5.029   0.820   2.378 -0.4565  0.1644  0.2481
 1021TP3     H114882   4.941   0.785   2.368  0.3958 -2.0756  0.1500
 1021TP3     H214883   5.037   0.841   2.471 -0.9217 -0.0681  0.3408
 1022TP3      O14884   2.348   4.141   0.573 -0.0237 -0.4677  0.4060
 1022TP3     H114885   2.304   4.188   0.501 -0.6682 -0.6518  0.6694
 1022TP3     H214886   2.292   4.157   0.649  0.7919 -0.0654  0.9317
 1023TP3      O14887   2.069   0.700  10.347  0.2227 -0.0163 -0.5064
 1023TP3     H114888   2.030   0.741  10.269  1.7319 -0.2879 -1.4337
 1023TP3     H214889   2.157   0.675  10.319  0.6770 -0.4099  1.2127
 1024TP3      O14890   0.059   3.412   6.807  0.5119 -0.0529  0.2562
 1024TP3     H114891   0.103   3.359   6.740 -0.1690 -1.2575  0.7230
 1024TP3     H214892   0.034   3.349   6.874  0.7726  1.0684  1.4393
 1025TP3      O14893   0.074   4.052   0.364 -0.1210  0.0583 -0.3560
 1025TP3     H114894   0.013   4.087   0.429  0.1260  0.6501 -0.4384
 1025TP3     H214895   0.019   4.023   0.292 -0.4155 -0.7749  0.1853
 1026TP3      O14896   0.882   3.923   9.324 -0.6058  0.7802  0.4091
 1026TP3     H114897   0.839   3.924   9.410 -1.5571 -0.3706 -0.0287
 1026TP3     H214898   0.941   3.999   9.326 -1.2404  1.2705  1.7581
 1027TP3      O14899   4.042   0.736   6.474  0.3895  0.0923 -0.1440
 1027TP3     H114900   4.051   0.643   6.491  1.0132  0.1532 -0.1066
 1027TP3     H214901   4.130   0.764   6.448 -0.4210 -0.0010 -3.4587
 1028TP3      O14902   3.283   1.863   1.188 -0.0368 -0.6662 -0.0989
 1028TP3     H114903   3.268   1.947   1.232 -3.3495 -2.6751  3.0964
 1028TP3     H214904   3.374   1.842   1.208  1.0757  2.2100 -1.4164
 1029TP3      O14905   4.128   0.205   8.486  0.5749  0.0823  0.2071
 1029TP3     H114906   4.171   0.120   8.472  1.8589  1.0449 -2.1587
 1029TP3     H214907   4.174   0.266   8.429 -1.1959  2.1344  0.8074
 1030TP3      O14908   4.696   3.059   2.388 -0.3704 -0.6853  0.0897
 1030TP3     H114909   4.683   3.151   2.363  1.0036 -0.2221  0.9672
 1030TP3     H214910   4.607   3.022   2.389 -0.7998  0.1453 -1.9832
 1031TP3      O14911   1.023   0.107   9.536  0.3895  0.2105  0.1627
 1031TP3     H114912   1.012   0.086   9.628 -0.7285 -0.1792 -0.0437
 1031TP3     H214913   1.113   0.137   9.529 -0.2506  2.8466  1.8772
 1032TP3      O14914   4.387   0.622   8.889  0.5124 -0.2387 -0.2572
 1032TP3     H114915   4.326   0.581   8.829 -1.5937  1.1300  0.8380
 1032TP3     H214916   4.340   0.697   8.926  1.0893 -1.6941  4.0800
 1033TP3      O14917   3.707   0.382   1.623  0.0316  0.1042 -0.0676
 1033TP3     H114918   3.793   0.418   1.601 -0.2756  1.6011  1.0178
 1033TP3     H214919   3.661   0.377   1.539  0.2949  1.7556 -0.3456
 1034TP3      O14920   4.608   0.016   1.092 -0.0088  0.0681 -0.1487
 1034TP3     H114921   4.548  -0.055   1.114 -0.2797  0.4481  0.3543
 1034TP3     H214922   4.551   0.086   1.058  0.4114 -0.5904 -2.3635
 1035TP3      O14923   4.879   4.377   0.209 -0.1458  0.0293 -0.1423
 1035TP3     H114924   4.973   4.396   0.213 -0.2653  0.5094  2.4439
 1035TP3     H214925   4.875   4.284   0.189  0.8229  0.1772 -1.1852
 1036TP3      O14926   3.540   0.291   2.988 -0.3403  0.0969 -0.2646
 1036TP3     H114927   3.616   0.244   3.023 -0.4866  0.0198 -0.0549
 1036TP3     H214928   3.496   0.328   3.065 -0.5371  0.1119 -0.3838
 1037TP3      O14929   0.114   3.142   7.813  0.0310 -0.6978 -0.1624
 1037TP3     H114930   0.182   3.138   7.880  0.4358  2.1998 -0.2483
 1037TP3     H214931   0.161   3.133   7.730  0.4284  1.4244 -0.2275
 1038TP3      O14932   5.163   2.051   2.409 -0.0989 -0.1157  0.0590
 1038TP3     H114933   5.256   2.028   2.407 -0.4648 -2.0127  1.5817
 1038TP3     H214934   5.162   2.146   2.422  1.6129  0.0050 -0.4302
 1039TP3      O14935   4.152   4.618   9.049  0.4556  0.5424 -0.4004
 1039TP3     H114936   4.230   4.603   9.102 -0.8269 -0.6991  1.2326
 1039TP3     H214937   4.123   4.530   9.023  0.1016  1.0369 -1.7850
 1040TP3      O14938   3.435   2.782   9.938 -0.6683 -0.2118  0.2869
 1040TP3     H114939   3.521   2.824   9.930 -1.0884  0.6535  0.2358
 1040TP3     H214940   3.432   2.751  10.029 -0.5315  0.2745  0.4591
 1041TP3      O14941   5.173   4.186   0.558 -0.2061  0.3333 -0.6394
 1041TP3     H114942   5.213   4.272   0.575 -0.8225  1.3192 -3.5700
 1041TP3     H214943   5.089   4.190   0.603  0.9202  0.0567  1.6513
 1042TP3      O14944   1.571   4.904   1.311 -0.3613  0.5797 -0.7409
 1042TP3     H114945   1.643   4.870   1.257 -1.4966  0.8566 -2.5296
 1042TP3     H214946   1.603   4.988   1.343  0.4689  0.2648 -0.7313
 1043TP3      O14947   3.057   4.020   1.783  0.1214  0.1451 -0.4948
 1043TP3     H114948   3.002   4.061   1.850 -0.2084 -2.3653  0.9228
 1043TP3     H214949   3.121   3.968   1.833 -0.1032 -1.7891 -2.0893
 1044TP3      O14950   2.279   1.261   9.282 -0.5504  0.3006 -0.2335
 1044TP3     H114951   2.335   1.331   9.317 -0.5487  0.4734 -0.5806
 1044TP3     H214952   2.330   1.225   9.209  0.5865 -1.7214  1.4341
 1045TP3      O14953   3.722   1.599   0.188 -0.0590  0.5996  0.2779
 1045TP3     H114954   3.636   1.639   0.181 -1.0027 -1.5296 -1.4404
 1045TP3     H214955   3.718   1.545   0.267 -0.1998  0.7170  0.3498
 1046TP3      O14956   3.388   3.701   0.736  0.4986 -0.0102 -0.5472
 1046TP3     H114957   3.360   3.669   0.650 -1.0312 -0.7633  0.1980
 1046TP3     H214958   3.339   3.783   0.748  0.2840 -0.1993 -0.1475
 1047TP3      O14959   1.870   2.014   8.466 -0.3084 -0.0227 -0.0894
 1047TP3     H114960   1.871   2.097   8.512 -1.7682  0.2687 -0.5267
 1047TP3     H214961   1.855   1.948   8.534  1.2722 -0.0082  0.3153
 1048TP3      O14962   1.408   4.948   8.660 -0.2460 -0.4113  0.0396
 1048TP3     H114963   1.374   4.891   8.728 -0.1814 -1.8135 -1.0587
 1048TP3     H214964   1.420   4.891   8.584  0.8356  0.8435 -0.7872
 1049TP3      O14965   3.678   2.495   7.724  0.2222  0.4388  0.7777
 1049TP3     H114966   3.695   2.546   7.804  0.5455 -0.0843  1.0459
 1049TP3     H214967   3.705   2.406   7.746  2.6400  0.7248 -0.7040
 1050TP3      O14968   2.281   3.435   8.861  0.1872 -0.7535 -0.1783
 1050TP3     H114969   2.199   3.387   8.850 -0.9310  0.8403  0.8275
 1050TP3     H214970   2.336   3.405   8.789 -0.8785 -2.6311 -0.2756
 1051TP3      O14971   0.704   0.817   8.156 -0.1645  0.3461  0.0910
 1051TP3     H114972   0.659   0.733   8.146  1.6796 -0.4938 -1.6432
 1051TP3     H214973   0.776   0.799   8.216 -1.0550  1.2993  1.5385
 1052TP3      O14974   2.305   2.206   0.491 -0.0190 -0.2310 -0.2932
 1052TP3     H114975   2.225   2.213   0.542 -1.4021  0.2922 -2.4250
 1052TP3     H214976   2.329   2.297   0.472  0.8465 -0.3997 -0.0757
 1053TP3      O14977   3.379   4.612   2.125 -0.2741  0.0562 -0.1995
 1053TP3     H114978   3.379   4.625   2.220  1.6769  0.1326 -0.1708
 1053TP3     H214979   3.366   4.699   2.088  0.2465  0.2239  0.0066
 1054TP3      O14980   4.644   3.547   7.284 -0.1773  0.5046 -0.3772
 1054TP3     H114981   4.658   3.641   7.296 -0.6981  0.3859  1.4889
 1054TP3     H214982   4.550   3.538   7.270 -0.1213  0.2642 -0.6166
 1055TP3      O14983   3.909   1.467   9.916 -1.0319  0.2711 -0.2886
 1055TP3     H114984   3.871   1.551   9.890  0.4847  1.2380  0.4829
 1055TP3     H214985   3.879   1.454  10.006 -0.1409  0.6938  0.0796
 1056TP3      O14986   3.985   4.705   0.142  0.1715 -0.4062 -0.0675
 1056TP3     H114987   4.000   4.799   0.157  2.0471 -0.6236 -0.3661
 1056TP3     H214988   3.906   4.702   0.087  1.1241  1.1018 -1.6154
 1057TP3      O14989   3.240   4.917  10.086 -0.1942 -0.6943 -0.1501
 1057TP3     H114990   3.208   4.831  10.113 -1.2165  0.2291  1.8000
 1057TP3     H214991   3.326   4.925  10.128 -0.7990 -0.1509  1.0110
 1058TP3      O14992   5.103   2.058   8.254 -0.0594 -0.2352 -0.2388
 1058TP3     H114993   5.157   1.995   8.303 -1.3403 -2.3744 -1.4364
 1058TP3     H214994   5.166   2.111   8.206  1.0882 -0.1947  1.2419
 1059TP3      O14995   2.636   1.141   1.662  0.2274 -0.5910  0.2092
 1059TP3     H114996   2.595   1.081   1.725  0.9372  0.1636  1.4238
 1059TP3     H214997   2.716   1.171   1.706  1.7867 -1.5210 -1.8296
 1060TP3      O14998   4.587   3.157   7.171 -0.3234  0.3667 -0.3913
 1060TP3     H114999   4.546   3.208   7.242  0.1966  1.0792 -0.5947
 1060TP3     H215000   4.610   3.222   7.105  0.3025 -0.1419 -0.6820
 1061TP3      O15001   3.138   1.481   7.595  0.5501 -0.0184 -0.4044
 1061TP3     H115002   3.185   1.439   7.523  1.4690  0.7123 -0.2475
 1061TP3     H215003   3.054   1.507   7.556  0.5576 -0.6826 -0.8848
 1062TP3      O15004   3.933   2.044   7.446 -0.0432 -0.4484 -0.1279
 1062TP3     H115005   3.921   1.966   7.500 -0.0179 -1.0387 -0.9486
 1062TP3     H215006   3.954   2.113   7.508 -0.4469 -1.0065  0.6555
 1063TP3      O15007   2.711   3.960  10.006  0.1885  0.0996 -0.3638
 1063TP3     H115008   2.717   3.951   9.911  1.8582 -3.1397 -0.0786
 1063TP3     H215009   2.663   3.883  10.036 -0.4515  1.1270  1.4347
 1064TP3      O15010   3.605   4.799   2.114 -0.4261  0.1739  0.6653
 1064TP3     H115011   3.553   4.795   2.033  0.3505  2.0166  0.0146
 1064TP3     H215012   3.677   4.738   2.100  0.1553  1.0770 -0.4101
 1065TP3      O15013   0.824   2.034   1.153  0.1526  0.2324  0.0202
 1065TP3     H115014   0.814   2.104   1.218 -1.4118  0.7760 -0.7720
 1065TP3     H215015   0.914   2.044   1.122 -0.0551  1.9827 -0.1486
 1066TP3      O15016   4.237   3.102   0.919 -0.4891 -0.1339  0.1237
 1066TP3     H115017   4.287   3.060   0.990 -1.0284 -1.4978 -0.2637
 1066TP3     H215018   4.208   3.029   0.865 -3.3520  0.5544  0.6043
 1067TP3      O15019   0.818   3.499   8.970 -0.3806  0.5003 -0.1142
 1067TP3     H115020   0.827   3.442   8.894 -0.5872  2.9805 -2.1681
 1067TP3     H215021   0.735   3.544   8.955  0.3774  2.2481  0.6598
 1068TP3      O15022   2.284   4.729   7.744 -0.3806 -0.0497  0.6351
 1068TP3     H115023   2.325   4.798   7.693 -0.0542  0.4686  1.5802
 1068TP3     H215024   2.327   4.648   7.714 -0.1909  0.2446  0.1093
 1069TP3      O15025   3.098   3.401  10.140  0.5060  0.4316 -0.0991
 1069TP3     H115026   3.111   3.369  10.230 -0.5633  0.5977  0.1306
 1069TP3     H215027   3.181   3.445  10.118  0.6361  0.7445  0.9555
 1070TP3      O15028   4.724   1.682   7.914 -0.0824  0.0511 -0.1767
 1070TP3     H115029   4.783   1.758   7.906 -1.6962  1.2206 -1.5526
 1070TP3     H215030   4.764   1.616   7.859 -0.8142  1.3944 -2.4370
 1071TP3      O15031   4.860   0.570   0.355  0.5790 -0.1519 -0.0274
 1071TP3     H115032   4.822   0.500   0.408 -0.5882  0.8664  0.5275
 1071TP3     H215033   4.950   0.579   0.388 -1.1710  3.2083  4.9166
 1072TP3      O15034   2.941   4.677   9.874 -0.0454  0.8769 -0.7498
 1072TP3     H115035   2.962   4.584   9.877 -3.6332 -0.1439 -1.7764
 1072TP3     H215036   2.932   4.703   9.966 -0.1348 -0.1128 -0.4698
 1073TP3      O15037   4.323   2.912   8.800 -0.3196 -0.6654 -0.3947
 1073TP3     H115038   4.335   2.946   8.889 -0.1180  1.1252 -1.0582
 1073TP3     H215039   4.228   2.913   8.786 -0.3572 -1.0358 -0.1728
 1074TP3      O15040   0.172   2.565   6.849  0.0403 -0.3249 -0.0003
 1074TP3     H115041   0.192   2.476   6.878  0.6984 -1.1562 -2.7264
 1074TP3     H215042   0.087   2.558   6.805 -0.5252  0.7000  0.8677
 1075TP3      O15043   0.564   4.973   2.051  0.5959 -0.4587  0.0905
 1075TP3     H115044   0.495   4.973   1.984  2.8543 -0.2133 -2.3774
 1075TP3     H215045   0.575   5.066   2.074  1.3172 -0.2824 -0.9011
 1076TP3      O15046   4.703   3.410   2.029 -0.0804 -0.0987  0.5877
 1076TP3     H115047   4.641   3.436   1.961  1.8059  1.0265 -0.8134
 1076TP3     H215048   4.693   3.476   2.097 -0.0515  0.3759  0.1364
 1077TP3      O15049   4.751   3.960  10.302 -0.4206 -0.6867 -0.0812
 1077TP3     H115050   4.699   3.885  10.330  0.9997 -1.1036  1.6718
 1077TP3     H215051   4.833   3.921  10.271  0.2833  0.0952  0.7301
 1078TP3      O15052   4.118   4.761   2.439 -0.7699  0.1465  0.2591
 1078TP3     H115053   4.122   4.842   2.389 -0.8555 -0.5769 -0.9628
 1078TP3     H215054   4.162   4.781   2.522  0.2350  1.1019 -0.4840
 1079TP3      O15055   4.879   2.668   0.090  0.1861 -0.0919  0.8485
 1079TP3     H115056   4.953   2.608   0.097 -1.6249 -2.6677 -0.5459
 1079TP3     H215057   4.825   2.633   0.020 -1.2385  3.0118  0.2006
 1080TP3      O15058   3.070   1.692   8.129  0.1589 -0.0772  0.1584
 1080TP3     H115059   3.150   1.717   8.083 -0.1572 -0.3258 -0.5371
 1080TP3     H215060   3.039   1.773   8.169 -0.6571  0.6131 -1.7468
 1081TP3      O15061   0.072   0.200   0.493 -0.4557 -0.7230 -0.1660
 1081TP3     H115062   0.025   0.172   0.415 -0.3449  0.8179 -0.8253
 1081TP3     H215063   0.019   0.168   0.566 -1.6249 -0.4807 -0.8848
 1082TP3      O15064   0.480   3.489   9.023 -0.4440  0.0457 -0.0123
 1082TP3     H115065   0.437   3.544   8.957  1.8176 -0.4734 -2.0620
 1082TP3     H215066   0.444   3.519   9.106 -3.0235  1.1295 -1.4020
 1083TP3      O15067   0.642   3.446   8.431 -0.1016 -0.3123  0.2083
 1083TP3     H115068   0.552   3.442   8.462 -0.2172  2.9009  0.6014
 1083TP3     H215069   0.692   3.399   8.498 -1.1850  0.4410  1.5931
 1084TP3      O15070   3.542   0.258   1.350 -0.0174 -0.2899 -0.1756
 1084TP3     H115071   3.497   0.189   1.399  0.2923 -0.1321  0.3309
 1084TP3     H215072   3.495   0.338   1.372 -0.8360 -0.4256 -1.3289
 1085TP3      O15073   3.077   3.263   8.015 -0.4005  0.4472 -0.1129
 1085TP3     H115074   3.113   3.177   8.035 -1.6030 -0.1292 -0.3162
 1085TP3     H215075   2.996   3.268   8.066 -0.3113  1.4879 -0.0503
 1086TP3      O15076   3.021   3.037   9.323  0.0054 -0.1998  1.1561
 1086TP3     H115077   3.065   3.050   9.407  0.7534  3.7520  0.3321
 1086TP3     H215078   2.942   3.090   9.329 -0.3812 -0.5682 -0.3269
 1087TP3      O15079   0.688   3.645   7.082 -0.2909  0.2739 -0.2342
 1087TP3     H115080   0.755   3.657   7.015  0.3647 -0.7164  0.2295
 1087TP3     H215081   0.616   3.701   7.054  1.2891  2.5766  0.0524
 1088TP3      O15082   2.176   0.258   9.928 -0.0824 -0.8595  0.3013
 1088TP3     H115083   2.085   0.229   9.914  0.0745 -0.9482 -0.5953
 1088TP3     H215084   2.197   0.228  10.017 -1.1555 -0.2135  0.7961
 1089TP3      O15085   1.849   4.605   6.815  0.4534 -0.0328 -0.1373
 1089TP3     H115086   1.791   4.571   6.747  0.9530 -0.3563 -0.4080
 1089TP3     H215087   1.936   4.597   6.777  0.7281 -0.1434  0.5166
 1090TP3      O15088   1.866   1.829   1.658 -0.5222 -0.1358 -0.1667
 1090TP3     H115089   1.852   1.742   1.620 -1.5360 -0.0275 -0.0804
 1090TP3     H215090   1.955   1.827   1.692 -0.5362 -1.1468 -0.1615
 1091TP3      O15091   2.904   3.510   7.582 -0.0761  0.0861 -0.0698
 1091TP3     H115092   2.821   3.465   7.568  0.8922 -1.6627 -0.4504
 1091TP3     H215093   2.927   3.544   7.496 -0.1441  0.1142 -0.0768
 1092TP3      O15094   3.902   1.578   9.559 -0.7416  0.1467 -0.0091
 1092TP3     H115095   3.826   1.637   9.550 -1.0548 -0.3104 -0.4099
 1092TP3     H215096   3.963   1.627   9.615 -1.3407  0.5104  0.3456
 1093TP3      O15097   0.209   2.148   1.609  0.1951  0.1784 -0.2398
 1093TP3     H115098   0.236   2.104   1.528  0.0525 -0.4341  0.0438
 1093TP3     H215099   0.275   2.121   1.673  1.0003  1.6107 -0.4251
 1094TP3      O15100   0.627   2.747   0.594  0.0271 -0.3437 -0.7317
 1094TP3     H115101   0.631   2.739   0.499 -2.7415  0.7217 -1.0136
 1094TP3     H215102   0.711   2.711   0.625  1.2638 -0.1092 -3.5693
 1095TP3      O15103   0.833   3.831   2.613 -0.5941 -0.6879  0.3720
 1095TP3     H115104   0.907   3.854   2.668  1.0265 -1.7275 -1.2288
 1095TP3     H215105   0.835   3.896   2.542 -1.0470 -0.8710  0.1909
 1096TP3      O15106   2.476   4.995   1.168 -0.1094  0.1597  0.1722
 1096TP3     H115107   2.473   4.913   1.217 -0.3902  0.3711  0.5180
 1096TP3     H215108   2.425   4.978   1.089 -0.9998  0.2959  0.7073
 1097TP3      O15109   3.846   3.180   3.609  0.0704  0.2515 -0.3555
 1097TP3     H115110   3.827   3.167   3.702  0.7276  1.7009  0.0052
 1097TP3     H215111   3.759   3.183   3.567 -0.3157  1.4254  0.4861
 1098TP3      O15112   2.481   2.570   7.699 -0.2657  0.4644 -0.2414
 1098TP3     H115113   2.557   2.588   7.754  0.2337  0.0472 -0.7807
 1098TP3     H215114   2.406   2.583   7.756  0.2237  0.6120  0.3719
 1099TP3      O15115   1.941   0.682   7.501 -0.1815 -0.1241 -0.4176
 1099TP3     H115116   2.021   0.659   7.550  1.2571  2.5501 -1.3352
 1099TP3     H215117   1.959   0.652   7.412 -1.3230 -1.7708 -0.1413
 1100TP3      O15118   1.265   4.553   1.477  0.3139 -0.5448  0.1655
 1100TP3     H115119   1.341   4.610   1.473  0.6941 -1.1099 -1.7426
 1100TP3     H215120   1.230   4.565   1.565  2.5826 -0.2590  1.0884
 1101TP3      O15121   3.317   3.568   0.509  0.4173  0.4985 -0.5295
 1101TP3     H115122   3.273   3.490   0.543  1.7355 -0.0832 -0.0765
 1101TP3     H215123   3.258   3.602   0.443 -0.6130 -0.3614 -0.0847
 1102TP3      O15124   2.845   3.886   0.675  0.2941  0.6461  0.1411
 1102TP3     H115125   2.883   3.821   0.734  0.8153 -1.1691 -2.0610
 1102TP3     H215126   2.768   3.919   0.723 -1.4187 -3.3210  0.5556
 1103TP3      O15127   1.925   0.816   7.911 -0.1654 -0.1199  0.0684
 1103TP3     H115128   1.971   0.733   7.901  0.4440  0.2970 -0.6903
 1103TP3     H215129   1.985   0.871   7.961 -0.7479 -0.2565  0.9575
 1104TP3      O15130   2.874   0.091   7.667  0.3113  0.1073 -0.2063
 1104TP3     H115131   2.958   0.052   7.691  0.4055 -2.6565 -4.0911
 1104TP3     H215132   2.810   0.024   7.690 -0.2708  0.2503 -1.3694
 1105TP3      O15133   4.815   0.394   1.906  0.1239  0.3386 -0.6382
 1105TP3     H115134   4.864   0.357   1.979  1.3690 -0.5249 -1.8532
 1105TP3     H215135   4.737   0.433   1.946  1.3935  1.0334  1.2675
 1106TP3      O15136   2.853   1.332   9.148 -0.5920 -0.2336 -0.1947
 1106TP3     H115137   2.885   1.257   9.097  0.8904  1.1695 -1.4433
 1106TP3     H215138   2.788   1.294   9.208 -0.9383 -2.2752 -1.7443
 1107TP3      O15139   3.834   1.656   8.012  0.0471  0.7057  0.2922
 1107TP3     H115140   3.905   1.593   8.006  0.5648  1.2419  0.6905
 1107TP3     H215141   3.877   1.739   8.032 -0.6395  1.1516 -0.0482
 1108TP3      O15142   1.962   4.991   3.711  0.2649  0.3935 -0.0572
 1108TP3     H115143   1.978   5.040   3.631 -0.5386 -0.3189 -0.6654
 1108TP3     H215144   1.866   4.984   3.717  0.3513 -1.2988 -0.1216
 1109TP3      O15145   2.536   1.808   8.210  0.3013 -0.2778  0.1324
 1109TP3     H115146   2.536   1.897   8.246 -1.6721 -0.7286  1.4073
 1109TP3     H215147   2.618   1.770   8.242 -0.2092  0.1624  2.1216
 1110TP3      O15148   4.035   2.298   1.840  0.0973  0.2652  0.0992
 1110TP3     H115149   4.088   2.252   1.905  0.5150 -0.3956 -0.6784
 1110TP3     H215150   4.084   2.287   1.758 -1.5805 -0.9832 -0.7940
 1111TP3      O15151   1.492   2.811   8.186 -0.2657 -1.3466 -0.7564
 1111TP3     H115152   1.512   2.731   8.137  1.4032 -0.4305 -1.6574
 1111TP3     H215153   1.424   2.855   8.133  0.2108 -1.2498 -1.3022
 1112TP3      O15154   1.257   3.967   7.948 -0.2114  0.1874  0.5610
 1112TP3     H115155   1.302   3.927   7.874  1.1258  1.6609  0.5106
 1112TP3     H215156   1.170   3.928   7.948  0.6036 -1.7579 -0.1974
 1113TP3      O15157   4.432   0.721   0.351  0.1896 -0.3973  0.2568
 1113TP3     H115158   4.496   0.775   0.306  0.4894 -1.4039 -0.5689
 1113TP3     H215159   4.473   0.700   0.435  1.1782 -1.4213 -0.4501
 1114TP3      O15160   4.008   0.293   8.822  0.0140  0.1941  0.0487
 1114TP3     H115161   4.018   0.312   8.916 -0.8432 -1.2766  0.4692
 1114TP3     H215162   4.098   0.293   8.789  0.5012 -1.0124  1.2567
 1115TP3      O15163   2.120   2.660   7.371  0.0943 -0.2985  0.1366
 1115TP3     H115164   2.119   2.584   7.430 -2.6627  0.0403  0.6546
 1115TP3     H215165   2.029   2.668   7.342  0.3166  2.7394  0.0217
 1116TP3      O15166   0.298   0.558   7.415  0.7990  0.0928 -0.3866
 1116TP3     H115167   0.351   0.635   7.391  1.4704 -0.3252 -0.2618
 1116TP3     H215168   0.209   0.584   7.393  0.5245  2.1521  2.6006
 1117TP3      O15169   0.387   2.111   9.650 -0.6354  0.0473 -0.1688
 1117TP3     H115170   0.372   2.019   9.674 -0.4951  0.6774  2.7114
 1117TP3     H215171   0.301   2.142   9.621 -1.3371 -0.3505  1.3793
 1118TP3      O15172   4.391   1.813   2.728  0.1447 -0.5223 -0.2191
 1118TP3     H115173   4.357   1.749   2.790  0.3210 -1.6363 -1.2484
 1118TP3     H215174   4.338   1.892   2.743 -3.3316 -2.2806 -2.0556
 1119TP3      O15175   4.381   4.472   8.102 -0.1045 -0.5399  0.1552
 1119TP3     H115176   4.446   4.539   8.086 -0.8703  0.6868  1.8428
 1119TP3     H215177   4.426   4.389   8.085  1.6324  0.3024  0.4905
 1120TP3      O15178   3.072   1.813   9.756  0.3121  0.5285  0.3938
 1120TP3     H115179   2.995   1.763   9.784  1.5197 -1.9715 -0.4878
 1120TP3     H215180   3.036   1.883   9.702 -1.3593 -1.3417 -1.0978
 1121TP3      O15181   3.559   0.506   9.789 -0.1318 -0.4261  0.2891
 1121TP3     H115182   3.481   0.491   9.735 -0.7293 -0.0828  1.0454
 1121TP3     H215183   3.529   0.494   9.879 -0.3303  3.5584  0.9413
 1122TP3      O15184   4.701   5.053  10.238  0.3913  0.4129  0.1323
 1122TP3     H115185   4.781   5.096  10.270  0.4645  0.0724  0.4114
 1122TP3     H215186   4.646   5.125  10.209  0.3180  0.7330  1.0473
 1123TP3      O15187   0.770   3.732   7.367  0.6637  0.1924  0.3075
 1123TP3     H115188   0.774   3.736   7.271 -2.7367 -1.8032 -0.0609
 1123TP3     H215189   0.718   3.808   7.393 -0.0327 -0.2974  0.3668
 1124TP3      O15190   1.937   4.500   8.915 -0.9297 -0.9495  0.7302
 1124TP3     H115191   1.865   4.467   8.861 -0.4543 -2.0472  0.7412
 1124TP3     H215192   1.998   4.427   8.921  0.5950  0.2064  0.0282
 1125TP3      O15193   0.448   2.619   2.271 -0.2235 -0.4571  0.2881
 1125TP3     H115194   0.526   2.578   2.308  1.3150  0.8544 -1.3083
 1125TP3     H215195   0.404   2.548   2.224  2.6228 -0.4087 -2.8003
 1126TP3      O15196   3.831   5.072   9.477 -0.3750 -0.2408 -0.5292
 1126TP3     H115197   3.899   5.123   9.434 -0.1944  0.4932  0.5845
 1126TP3     H215198   3.844   4.983   9.446  0.7427 -0.0115 -0.7523
 1127TP3      O15199   1.091   4.141   0.938  0.0065 -0.1312  0.3668
 1127TP3     H115200   1.050   4.106   0.859 -0.4519 -1.0478  0.9900
 1127TP3     H215201   1.181   4.162   0.911 -0.3894  0.3939 -0.6091
 1128TP3      O15202   0.868   2.392   9.643 -0.4667  0.6016 -0.2920
 1128TP3     H115203   0.782   2.433   9.651 -0.2005  0.9456  1.0587
 1128TP3     H215204   0.856   2.305   9.682 -0.3803  0.3544 -0.8038
 1129TP3      O15205   2.123   0.992   8.034  0.0924  0.4400 -0.3505
 1129TP3     H115206   2.074   1.073   8.051 -0.8987 -0.4414  1.2482
 1129TP3     H215207   2.138   0.993   7.939  0.8528  2.8843 -0.2768
 1130TP3      O15208   5.115   1.928   8.906  0.0756  0.1997 -0.9504
 1130TP3     H115209   5.069   1.855   8.947 -1.4797  1.9371  0.5838
 1130TP3     H215210   5.207   1.916   8.930 -0.4001 -0.3789  0.6584
 1131TP3      O15211   1.712   1.809   8.576  0.0041 -0.1636  0.4787
 1131TP3     H115212   1.733   1.732   8.630  0.3824  0.5597  1.3858
 1131TP3     H215213   1.694   1.773   8.489 -2.8968 -1.6163  1.5538
 1132TP3      O15214   0.323   2.752   1.831 -0.6215 -0.5725  0.0204
 1132TP3     H115215   0.383   2.769   1.904 -1.9840 -0.2394  1.0946
 1132TP3     H215216   0.291   2.663   1.847 -1.2398 -0.3446  0.0498
 1133TP3      O15217   2.811   3.261   2.509 -0.2267  0.0018  0.1119
 1133TP3     H115218   2.786   3.259   2.602 -0.4322  1.7280  0.1316
 1133TP3     H215219   2.744   3.316   2.468  0.4051  0.0483 -0.8776
 1134TP3      O15220   1.187   4.512   3.261 -0.2922  0.2970  0.6207
 1134TP3     H115221   1.182   4.420   3.235  0.2805  0.6763 -0.9189
 1134TP3     H215222   1.147   4.514   3.349  0.1432 -1.4824  0.8969
 1135TP3      O15223   1.282   3.155   3.232  0.1267 -0.0476 -0.5876
 1135TP3     H115224   1.212   3.111   3.282  0.6396 -0.4651 -0.2201
 1135TP3     H215225   1.300   3.235   3.282 -1.3321  1.0076 -1.6634
 1136TP3      O15226   3.604   1.324   8.450  0.0531  0.2854  0.7676
 1136TP3     H115227   3.548   1.260   8.407 -0.1199  0.5750  0.5680
 1136TP3     H215228   3.691   1.282   8.451  0.0340  0.2309  0.2482
 1137TP3      O15229   3.013   2.998   0.970  0.0569  0.1717 -0.5267
 1137TP3     H115230   3.000   3.072   0.911 -1.1562 -0.1603 -0.7057
 1137TP3     H215231   3.106   2.978   0.963  0.4272  1.7127 -0.4139
 1138TP3      O15232   5.087   4.844   0.111 -0.3243  0.3193 -0.1015
 1138TP3     H115233   5.174   4.879   0.093 -0.0216  1.3269  2.7788
 1138TP3     H215234   5.061   4.802   0.030  3.6428 -1.7932 -0.5340
 1139TP3      O15235   1.262   1.329   8.867  0.1353 -0.1273  0.5940
 1139TP3     H115236   1.286   1.248   8.912  1.9290 -0.6772 -1.2436
 1139TP3     H215237   1.172   1.315   8.838  0.5472 -1.6491 -0.0390
 1140TP3      O15238   0.331   2.765   1.553  0.0402  0.4694  0.3935
 1140TP3     H115239   0.316   2.781   1.647 -0.8765 -2.4620  0.8520
 1140TP3     H215240   0.408   2.708   1.551 -1.7963 -2.1691 -0.2842
 1141TP3      O15241   0.825   0.689   1.412  0.1869 -0.2745 -0.3907
 1141TP3     H115242   0.764   0.760   1.394 -1.6269 -1.4870  0.6817
 1141TP3     H215243   0.820   0.677   1.507  0.1513 -2.0835 -0.5942
 1142TP3      O15244   4.302   3.820   0.000 -0.2195 -0.1674 -0.1679
 1142TP3     H115245   4.330   3.745   0.054 -1.1461 -1.2248 -1.0928
 1142TP3     H215246   4.383   3.862  -0.026  0.2702  0.2706  1.8739
 1143TP3      O15247   0.005   1.483   3.005  0.4268  0.2458 -0.1576
 1143TP3     H115248   0.083   1.430   3.021  0.3378  0.3373  0.6019
 1143TP3     H215249  -0.034   1.495   3.091  0.9964  2.3992 -0.1463
 1144TP3      O15250   4.864   0.624   0.646 -0.2941  0.2589 -0.3163
 1144TP3     H115251   4.890   0.542   0.605 -1.5589 -0.7671  0.8508
 1144TP3     H215252   4.769   0.627   0.635 -0.3632  1.1526  0.4011
 1145TP3      O15253   0.715   4.796   1.774 -0.1440  0.8283 -0.2985
 1145TP3     H115254   0.776   4.834   1.837  0.6620  0.2122 -0.6851
 1145TP3     H215255   0.669   4.871   1.737  0.6349  1.3384 -0.2528
 1146TP3      O15256   0.092   2.402   9.670 -0.1339  0.4222 -0.1868
 1146TP3     H115257   0.084   2.351   9.751  0.6416 -0.6654 -0.7722
 1146TP3     H215258   0.007   2.445   9.661 -1.4247 -2.0087 -0.4808
 1147TP3      O15259   0.387   3.168   8.565  0.3327 -0.6703  0.1740
 1147TP3     H115260   0.468   3.216   8.546 -0.7953  0.3038 -2.5596
 1147TP3     H215261   0.346   3.219   8.635  0.4967  0.8180 -0.7624
 1148TP3      O15262   0.869   4.891   7.319  0.5883 -0.4514  0.4729
 1148TP3     H115263   0.853   4.976   7.278  0.1413 -0.3822  0.7744
 1148TP3     H215264   0.812   4.830   7.271  0.5937 -0.5028  0.5309
 1149TP3      O15265   2.990   0.627   9.661 -0.5615 -0.0115  0.4479
 1149TP3     H115266   3.030   0.707   9.626  0.2482 -0.1837  0.9384
 1149TP3     H215267   2.966   0.576   9.583 -0.4721  0.4187  0.1350
 1150TP3      O15268   0.967   0.404   2.197  0.7286 -0.6277 -0.7803
 1150TP3     H115269   0.949   0.310   2.198  1.3538 -0.7731  1.3984
 1150TP3     H215270   0.881   0.445   2.201  0.4850 -1.2252  2.5351
 1151TP3      O15271   2.883   3.804   1.175 -0.1672  0.0516 -0.7434
 1151TP3     H115272   2.808   3.859   1.198 -0.0663  0.8052 -2.1135
 1151TP3     H215273   2.957   3.847   1.217 -0.4239 -0.5052  0.3298
 1152TP3      O15274   4.211   3.177  10.169 -0.0423 -0.9836 -0.3608
 1152TP3     H115275   4.158   3.254  10.148 -1.0083 -1.5062  0.1002
 1152TP3     H215276   4.151   3.117  10.213  0.6968 -2.0082 -0.6983
 1153TP3      O15277   4.426   2.169   9.853 -0.1183 -0.3595 -0.4884
 1153TP3     H115278   4.356   2.202   9.797  0.3470 -1.8487 -2.0269
 1153TP3     H215279   4.503   2.169   9.797  1.0388  0.7060  1.0094
 1154TP3      O15280   3.082   3.615   8.982 -0.1204 -0.7455  0.1643
 1154TP3     H115281   3.049   3.665   9.056  0.6182  0.1379 -0.0863
 1154TP3     H215282   3.175   3.600   9.003  0.8648  1.8976 -1.7805
 1155TP3      O15283   1.347   1.333   9.533  0.5506  0.0221 -0.4685
 1155TP3     H115284   1.395   1.415   9.519 -0.2277  0.6824  0.5772
 1155TP3     H215285   1.283   1.331   9.462  2.3299 -1.0701 -2.1204
 1156TP3      O15286   3.667   4.470   0.556  0.2734 -0.8184  0.4735
 1156TP3     H115287   3.759   4.479   0.581  0.3348 -0.9000  0.2778
 1156TP3     H215288   3.669   4.424   0.473  0.0505 -0.8808  0.5018
 1157TP3      O15289   3.098   3.463   1.290 -0.1717  0.1778 -0.5051
 1157TP3     H115290   3.116   3.457   1.196  0.1629 -0.7093 -0.3949
 1157TP3     H215291   3.004   3.478   1.296 -0.3926 -0.9307 -0.9674
 1158TP3      O15292   1.998   2.595   7.641 -0.0587  0.4448  0.1922
 1158TP3     H115293   2.068   2.647   7.681  0.9442 -0.9667  0.3131
 1158TP3     H215294   2.042   2.521   7.601 -1.3774  0.1457 -0.7798
 1159TP3      O15295   3.417   4.994   9.629 -0.0400  0.0573  0.4585
 1159TP3     H115296   3.444   5.036   9.548  0.5714 -1.2940 -0.0694
 1159TP3     H215297   3.453   5.050   9.698 -0.4319  1.1273 -0.1848
 1160TP3      O15298   3.166   0.498   8.113  0.6718 -0.1653  0.1777
 1160TP3     H115299   3.248   0.455   8.135  0.8362  0.6989  1.3270
 1160TP3     H215300   3.183   0.591   8.124 -0.5670  0.0121  0.8287
 1161TP3      O15301   4.626   1.491   1.272 -0.3455 -0.6179 -0.0618
 1161TP3     H115302   4.631   1.566   1.331  1.9076  0.2654 -1.2579
 1161TP3     H215303   4.659   1.524   1.188  1.4729 -3.0650 -0.4400
 1162TP3      O15304   5.101   0.841   7.400  0.8208 -0.5701 -0.0170
 1162TP3     H115305   5.052   0.765   7.369  1.1608 -0.4165 -0.9380
 1162TP3     H215306   5.136   0.813   7.485  0.5609 -1.2810 -0.1353
 1163TP3      O15307   3.113   1.050   1.245 -0.3355 -0.2481  0.1320
 1163TP3     H115308   3.162   1.053   1.327 -2.6282 -0.5833  1.6268
 1163TP3     H215309   3.100   0.957   1.229  1.7484 -0.2858 -1.7550
 1164TP3      O15310   0.113   5.074   2.201  0.1315  0.0852 -0.1839
 1164TP3     H115311   0.021   5.074   2.226  0.1179  1.6178 -0.1789
 1164TP3     H215312   0.112   5.054   2.107 -0.2645  0.8668 -0.3525
 1165TP3      O15313   0.475   0.631   2.246 -0.1805  0.0588  0.0821
 1165TP3     H115314   0.432   0.674   2.172 -1.2799  0.0667  0.7074
 1165TP3     H215315   0.517   0.702   2.294 -1.0825  0.3147  0.5119
 1166TP3      O15316   0.892   4.699   0.262 -0.3338 -0.0376  0.4537
 1166TP3     H115317   0.931   4.633   0.319 -0.0007  1.4037  1.9801
 1166TP3     H215318   0.894   4.780   0.314  0.3256  1.4442 -1.7484
 1167TP3      O15319   1.592   2.021   9.009  0.7296  0.5705  0.2888
 1167TP3     H115320   1.517   2.077   8.985 -0.5335 -1.1565  0.0114
 1167TP3     H215321   1.649   2.024   8.932 -1.7713 -2.4054 -1.9486
 1168TP3      O15322   2.484   0.783  10.257 -0.2191  0.3862 -0.1326
 1168TP3     H115323   2.409   0.839  10.235 -0.4396 -0.1628 -0.8177
 1168TP3     H215324   2.557   0.820  10.208  0.2088  1.4967  1.2675
 1169TP3      O15325   0.885   2.326   0.962  0.4355  0.0756 -0.1479
 1169TP3     H115326   0.831   2.345   0.885  0.5334 -0.8780 -0.4681
 1169TP3     H215327   0.872   2.401   1.020 -0.2481  0.4439 -0.7658
 1170TP3      O15328   2.582   0.924   7.377 -0.4817  0.1202  0.3483
 1170TP3     H115329   2.573   1.010   7.336  3.2970 -0.6971 -2.9526
 1170TP3     H215330   2.540   0.864   7.315 -0.1714 -0.6691  0.8865
 1171TP3      O15331   5.123   0.694   0.377 -0.6658  0.8566 -0.2924
 1171TP3     H115332   5.150   0.609   0.342 -1.7716  0.4441 -0.1584
 1171TP3     H215333   5.096   0.745   0.301 -3.1889 -0.0829 -0.1001
 1172TP3      O15334   1.110   3.094   2.672 -0.0078 -0.4152 -0.3062
 1172TP3     H115335   1.179   3.029   2.685 -0.2630 -0.6601 -0.1694
 1172TP3     H215336   1.113   3.149   2.751  0.3027 -0.1677 -0.4855
 1173TP3      O15337   2.188   1.236   1.734  0.8064  0.2974 -0.1858
 1173TP3     H115338   2.108   1.270   1.693  1.1294 -0.5703 -1.5833
 1173TP3     H215339   2.234   1.315   1.764  0.7090  1.0086 -1.7980
 1174TP3      O15340   2.228   2.753   2.642 -0.7758  0.2935  0.2786
 1174TP3     H115341   2.305   2.721   2.689 -1.1848 -0.1821  0.6440
 1174TP3     H215342   2.249   2.740   2.550  0.4040  2.0931  0.2639
 1175TP3      O15343   2.318   2.124   0.234  0.0889 -0.0597 -0.3295
 1175TP3     H115344   2.404   2.104   0.198  0.2628 -0.0940  0.0986
 1175TP3     H215345   2.335   2.147   0.326 -0.3100  0.3331 -0.3523
 1176TP3      O15346   2.489   4.152   9.767 -0.0168  0.0387 -0.3015
 1176TP3     H115347   2.504   4.186   9.855 -0.0707 -3.7128  1.3340
 1176TP3     H215348   2.402   4.184   9.744  0.0012  1.1109  0.9755
 1177TP3      O15349   0.132   2.689   8.760  0.5725  0.9036  0.3475
 1177TP3     H115350   0.106   2.668   8.670  0.4045  0.5671  0.4739
 1177TP3     H215351   0.057   2.736   8.797 -0.2292 -0.8235  0.9877
 1178TP3      O15352   1.371   4.474   7.958  1.0625  0.3982 -0.0128
 1178TP3     H115353   1.353   4.491   8.050  0.6336  1.1121 -0.2233
 1178TP3     H215354   1.403   4.557   7.923 -0.5387  0.6822 -0.9282
 1179TP3      O15355   4.260   3.351   1.847 -0.3367  0.3186 -0.3800
 1179TP3     H115356   4.345   3.394   1.856  0.8214 -1.3361 -2.2621
 1179TP3     H215357   4.255   3.329   1.754 -2.6155 -0.1078 -0.2062
 1180TP3      O15358   4.043   0.841   0.854  0.1417 -0.2660 -0.1291
 1180TP3     H115359   4.091   0.768   0.814  3.0508  2.0929 -1.3797
 1180TP3     H215360   4.092   0.862   0.933  0.1520  1.0843 -0.4621
 1181TP3      O15361   1.070   4.340   9.649 -0.5015 -0.2278 -0.4679
 1181TP3     H115362   1.074   4.303   9.737 -1.7976 -0.3073 -0.4178
 1181TP3     H215363   1.161   4.349   9.622 -0.1092 -1.6469  0.2774
 1182TP3      O15364   1.098   2.922  10.185  0.5270 -0.5067 -0.0450
 1182TP3     H115365   1.031   2.879  10.132  0.5292  0.6443 -1.0137
 1182TP3     H215366   1.049   2.960  10.258  0.2264 -0.3407 -0.3282
 1183TP3      O15367   2.200   3.805   0.102  0.6226  0.3704 -0.2034
 1183TP3     H115368   2.172   3.836   0.188 -0.0044 -1.5868  0.3681
 1183TP3     H215369   2.151   3.857   0.040 -1.5104 -0.3998  0.7199
 1184TP3      O15370   0.880   0.399   9.477 -0.0650 -0.0414 -0.6720
 1184TP3     H115371   0.818   0.360   9.539 -0.7438  1.4264 -0.3906
 1184TP3     H215372   0.966   0.377   9.513 -0.4437  0.4337  0.5984
 1185TP3      O15373   1.584   4.327   3.166  0.7066 -0.1348 -0.3285
 1185TP3     H115374   1.673   4.304   3.137  0.8765  0.3376 -0.1858
 1185TP3     H215375   1.581   4.298   3.257  0.4992 -0.7295 -0.5211
 1186TP3      O15376   0.832   4.431   1.345 -0.4576 -0.3267  0.7316
 1186TP3     H115377   0.917   4.391   1.366 -0.0349  0.5923  0.8041
 1186TP3     H215378   0.849   4.482   1.266 -0.2987  1.8699  2.1126
 1187TP3      O15379   2.282   4.033   2.540 -0.5035 -0.1869 -0.5487
 1187TP3     H115380   2.219   3.983   2.593  0.8371 -1.3189  0.0454
 1187TP3     H215381   2.335   3.966   2.497  0.8074  0.7274 -0.4118
 1188TP3      O15382   4.091   1.479   6.863  0.1438 -0.5004  0.2470
 1188TP3     H115383   4.011   1.473   6.811  1.2121  0.8687 -1.6886
 1188TP3     H215384   4.064   1.521   6.944 -1.1318 -0.2243 -0.2951
 1189TP3      O15385   3.106   0.339   7.518  0.0935 -0.2788  0.4078
 1189TP3     H115386   3.046   0.331   7.592 -1.5992  1.6655 -0.6429
 1189TP3     H215387   3.183   0.287   7.543 -1.2388 -1.3206  2.6175
 1190TP3      O15388   3.362   4.592   0.284 -0.5005  0.7892 -0.3745
 1190TP3     H115389   3.427   4.662   0.272 -0.6267  1.3359  1.7091
 1190TP3     H215390   3.414   4.516   0.311 -0.5130  0.4775 -1.1891
 1191TP3      O15391   0.415   4.422   3.128 -0.1051 -0.0937 -0.2326
 1191TP3     H115392   0.394   4.343   3.178 -3.2293 -0.2023 -1.4662
 1191TP3     H215393   0.468   4.390   3.054  0.3881 -0.6777  0.3557
 1192TP3      O15394   1.548   4.322   7.294 -0.1188  0.1919 -0.3942
 1192TP3     H115395   1.634   4.359   7.276  0.1090 -0.9824 -1.9151
 1192TP3     H215396   1.517   4.292   7.209 -1.4033 -0.7357  0.3681
 1193TP3      O15397   4.651   1.696  10.196  0.4333 -1.1242 -0.6167
 1193TP3     H115398   4.590   1.646  10.143 -1.7768  0.7482  0.0053
 1193TP3     H215399   4.632   1.670  10.286 -0.7007  0.6600 -0.2882
 1194TP3      O15400   2.770   0.254   7.491  0.5125  0.0554  0.5562
 1194TP3     H115401   2.747   0.197   7.418  3.2587 -0.1898 -0.2411
 1194TP3     H215402   2.815   0.196   7.553  3.5724  1.2321 -0.3755
 1195TP3      O15403   1.325   0.457   7.509  0.2085  0.6987 -0.4635
 1195TP3     H115404   1.400   0.402   7.487  0.2084  0.8448 -0.8265
 1195TP3     H215405   1.250   0.409   7.474 -0.0870 -0.3567  1.4468
 1196TP3      O15406   0.208   2.340   7.906  0.5548  0.4045 -0.3688
 1196TP3     H115407   0.145   2.412   7.914  0.7539  0.5963 -0.5024
 1196TP3     H215408   0.292   2.380   7.931  0.8181  0.4491 -1.2702
 1197TP3      O15409   1.394   4.919   9.387 -0.1332  0.2016 -0.0742
 1197TP3     H115410   1.489   4.906   9.375 -0.4280 -1.1263 -1.2075
 1197TP3     H215411   1.376   5.001   9.342  0.2748 -0.1951 -0.9819
 1198TP3      O15412   0.143   3.061   8.902 -0.4037  0.1869  0.4327
 1198TP3     H115413   0.071   3.003   8.876 -1.0076  1.5754 -1.1395
 1198TP3     H215414   0.220   3.026   8.856 -0.6747  0.3594 -0.1588
 1199TP3      O15415   4.145   1.018   8.897 -0.2726  0.0239  0.2308
 1199TP3     H115416   4.067   1.063   8.929 -0.5592  0.0076 -0.4298
 1199TP3     H215417   4.113   0.961   8.827  0.4349  0.5551 -0.5378
 1200TP3      O15418   3.115   1.912   0.294  0.0629  0.1188  0.7098
 1200TP3     H115419   3.155   1.956   0.219  1.7771 -1.1063  0.8333
 1200TP3     H215420   3.071   1.835   0.257 -1.0525  0.7186  0.7375
 1201TP3      O15421   4.475   5.124   0.744  0.0229  0.3771 -0.1248
 1201TP3     H115422   4.452   5.214   0.769  1.6437  0.1891  2.3927
 1201TP3     H215423   4.570   5.127   0.729  0.4043 -1.2103  1.6627
 1202TP3      O15424   4.126   2.524   8.279  0.1383  0.0857  0.1757
 1202TP3     H115425   4.147   2.431   8.287 -0.8279  0.0100  2.6051
 1202TP3     H215426   4.124   2.556   8.369  0.3557  2.4678 -0.5931
 1203TP3      O15427   2.178   1.349   9.637 -0.4664 -0.0357  0.3601
 1203TP3     H115428   2.145   1.438   9.649 -0.6864 -0.1607  0.6842
 1203TP3     H215429   2.124   1.313   9.567 -1.3153 -0.3806  1.1660
 1204TP3      O15430   0.628   3.600   8.146  0.3680 -0.0367  0.0802
 1204TP3     H115431   0.675   3.539   8.203 -0.3752  0.0373  0.7949
 1204TP3     H215432   0.685   3.676   8.140  0.3124  0.0885  1.0117
 1205TP3      O15433   0.587   3.662   1.541 -0.3004  0.4347  0.2444
 1205TP3     H115434   0.531   3.658   1.463  0.4683  1.5416 -0.4088
 1205TP3     H215435   0.533   3.629   1.612 -1.8372  1.5856 -0.3348
 1206TP3      O15436   1.118   1.037   0.228  0.6801 -0.1100  0.1067
 1206TP3     H115437   1.072   1.048   0.145  1.6793  0.0906 -0.4351
 1206TP3     H215438   1.189   1.101   0.225  0.7449 -0.1168  1.1079
 1207TP3      O15439   1.097   3.462   7.286 -0.5135 -0.0688  0.4013
 1207TP3     H115440   1.176   3.506   7.316 -0.0760 -1.0672  0.7571
 1207TP3     H215441   1.090   3.484   7.193  0.3178 -0.1855  0.3089
 1208TP3      O15442   3.247   3.019   6.939 -0.5635 -0.3957  0.6900
 1208TP3     H115443   3.247   2.957   6.865  0.1438 -0.3366  0.6338
 1208TP3     H215444   3.223   2.965   7.015 -0.5983 -0.6029  0.5338
 1209TP3      O15445   2.167   4.255   8.286 -0.4703 -0.2130 -0.1713
 1209TP3     H115446   2.161   4.230   8.379 -1.6093 -1.0588 -0.4446
 1209TP3     H215447   2.108   4.330   8.277 -2.0999 -1.4799 -0.6065
 1210TP3      O15448   5.160   0.432   9.240 -0.1140  0.4189  0.3210
 1210TP3     H115449   5.253   0.453   9.237 -0.4363  1.9472 -0.0308
 1210TP3     H215450   5.155   0.338   9.224  1.3468  0.3646  0.0967
 1211TP3      O15451   0.258   1.170   8.238 -0.5620 -0.0848  0.5924
 1211TP3     H115452   0.308   1.216   8.305 -0.1920 -1.7970  1.5547
 1211TP3     H215453   0.209   1.239   8.193 -0.4082  1.1809  2.2646
 1212TP3      O15454   0.220   0.387   0.133  0.6524 -0.0994 -0.3534
 1212TP3     H115455   0.232   0.444   0.058  1.1022  0.0870 -0.1472
 1212TP3     H215456   0.251   0.301   0.104 -1.3847 -0.6100 -1.1341
 1213TP3      O15457   4.870   4.225   9.518  0.0220  0.1058 -0.0895
 1213TP3     H115458   4.806   4.283   9.477  0.6518 -0.6286 -2.2707
 1213TP3     H215459   4.905   4.275   9.591 -0.7254  1.7553 -0.8097
 1214TP3      O15460   4.733   5.143   8.474  0.3123  0.0270  0.1337
 1214TP3     H115461   4.702   5.204   8.541  0.7360 -1.9971  2.3213
 1214TP3     H215462   4.660   5.136   8.412 -0.7902  0.7214  1.3033
 1215TP3      O15463   1.036   1.946   0.299  0.7286 -0.1350  0.5277
 1215TP3     H115464   1.022   1.857   0.330  2.2285 -0.2672  0.8983
 1215TP3     H215465   0.958   1.967   0.249 -0.3629 -1.0621  1.7894
 1216TP3      O15466   4.934   4.671   0.986 -0.0154  0.7600 -0.2550
 1216TP3     H115467   5.010   4.664   0.928  0.4092  1.7230  0.1646
 1216TP3     H215468   4.967   4.643   1.072  0.0744  1.8943  0.0924
 1217TP3      O15469   4.416   2.000   8.152  0.4541  0.4056  0.6276
 1217TP3     H115470   4.510   1.983   8.141  0.2647 -0.3605  0.0511
 1217TP3     H215471   4.395   1.965   8.239 -0.2613 -4.3279 -1.1322
 1218TP3      O15472   0.755   2.205   7.853  0.1870  0.0052  0.4177
 1218TP3     H115473   0.786   2.272   7.792  0.2808 -1.0758 -0.7607
 1218TP3     H215474   0.740   2.128   7.799  0.1648 -0.9688  1.7471
 1219TP3      O15475   4.879   3.052   8.084  0.2013 -0.0529  0.5971
 1219TP3     H115476   4.969   3.056   8.116  0.0281 -0.3039  1.1274
 1219TP3     H215477   4.833   3.120   8.134  0.2526  0.5818 -0.2014
 1220TP3      O15478   2.148   1.993   7.328 -0.3325 -0.3504  0.0955
 1220TP3     H115479   2.102   2.044   7.394  1.3967 -0.5969  1.5833
 1220TP3     H215480   2.211   2.055   7.290  0.3514 -0.8278  0.4331
 1221TP3      O15481   3.603   3.777   7.443  0.1523  0.4310  0.3902
 1221TP3     H115482   3.653   3.747   7.519  2.0752  2.1144 -0.1028
 1221TP3     H215483   3.559   3.857   7.473 -1.4511 -0.4599  0.5066
 1222TP3      O15484   1.950   4.097   1.712  0.1541 -0.3118  0.5190
 1222TP3     H115485   1.910   4.011   1.727  0.4900 -0.5059  0.3126
 1222TP3     H215486   1.897   4.137   1.644 -0.5841  0.0385  1.2865
 1223TP3      O15487   4.362   4.076   9.112  0.6146  0.2544  0.9776
 1223TP3     H115488   4.445   4.112   9.081  0.6995 -0.8966 -0.2533
 1223TP3     H215489   4.317   4.150   9.153  1.4298  1.3661 -0.0573
 1224TP3      O15490   0.632   2.041   3.038  0.2497 -0.5409 -0.8160
 1224TP3     H115491   0.723   2.069   3.050  0.0084  0.3880 -1.0525
 1224TP3     H215492   0.595   2.037   3.126  0.1089  0.5448 -0.8176
 1225TP3      O15493   2.533   3.644   8.948 -0.0815  0.0296  0.4125
 1225TP3     H115494   2.598   3.597   9.001  0.7772  0.0029 -0.6425
 1225TP3     H215495   2.517   3.587   8.873 -3.9180 -1.6308  2.1723
 1226TP3      O15496   3.510   4.295   1.716  0.4670  0.0575 -0.5786
 1226TP3     H115497   3.560   4.370   1.749 -0.2842  1.0342 -1.5943
 1226TP3     H215498   3.425   4.303   1.758  0.7898 -0.9959  0.3212
 1227TP3      O15499   0.308   1.945   1.413  0.2447 -0.6930 -0.5199
 1227TP3     H115500   0.268   1.918   1.330  1.9150  0.0890 -1.6183
 1227TP3     H215501   0.379   1.882   1.427  0.5115 -0.3026 -0.1101
 1228TP3      O15502   2.520   4.933   9.697  0.4696  0.4697  0.2855
 1228TP3     H115503   2.555   4.980   9.621  0.3761  2.2070  1.2779
 1228TP3     H215504   2.439   4.979   9.719 -0.4737 -1.1435  0.3692
 1229TP3      O15505   4.975   2.535   9.146 -0.5313 -0.2382  0.2428
 1229TP3     H115506   5.001   2.619   9.110 -1.3257 -0.5442 -1.0971
 1229TP3     H215507   4.949   2.482   9.070  1.3587 -2.2307  0.8773
 1230TP3      O15508   1.904   2.681   7.889 -0.3266 -0.2170  0.4175
 1230TP3     H115509   1.961   2.655   7.962  1.1958  2.4272  0.3262
 1230TP3     H215510   1.931   2.625   7.817 -0.0242 -1.1049  1.1957
 1231TP3      O15511   0.380   3.230  10.272  0.0065  0.0541 -0.0105
 1231TP3     H115512   0.304   3.193  10.228 -0.7172  1.0213  0.4025
 1231TP3     H215513   0.455   3.185  10.233 -0.5829  0.9435 -2.2828
 1232TP3      O15514   0.881   2.970   7.918  0.2546  0.5182 -0.3257
 1232TP3     H115515   0.893   3.061   7.889 -1.9406  1.1574  0.5248
 1232TP3     H215516   0.937   2.919   7.861  0.0757  2.2289 -2.1505
 1233TP3      O15517   0.925   3.482   9.276 -0.3999  0.0244 -0.5634
 1233TP3     H115518   0.886   3.494   9.190 -1.6334  3.7506  0.2971
 1233TP3     H215519   0.982   3.558   9.286  1.8027 -1.7218  0.9340
 1234TP3      O15520   1.263   2.339   2.853 -0.9306  0.2465 -0.0814
 1234TP3     H115521   1.272   2.256   2.900 -1.4176  1.7547  2.9265
 1234TP3     H215522   1.353   2.371   2.844 -0.8740  0.2778  0.5452
 1235TP3      O15523   4.175   3.993   3.527 -0.1163 -0.1590 -0.6028
 1235TP3     H115524   4.184   3.908   3.482 -0.3166 -0.9632  0.8228
 1235TP3     H215525   4.265   4.026   3.532 -0.1180  0.0959 -1.8303
 1236TP3      O15526   4.829   3.520   8.948  0.2561  0.5280 -0.3397
 1236TP3     H115527   4.860   3.553   8.864 -0.4983  1.4150 -0.2786
 1236TP3     H215528   4.761   3.582   8.975 -1.5863 -1.3335 -0.4707
 1237TP3      O15529   1.676   1.507   9.407 -0.0765 -0.2237  0.2379
 1237TP3     H115530   1.736   1.577   9.381 -0.0364 -0.9490 -1.7744
 1237TP3     H215531   1.697   1.435   9.348 -2.3691 -0.7778  0.0258
 1238TP3      O15532   3.748   3.800   3.628  0.1907 -0.2246 -0.8906
 1238TP3     H115533   3.719   3.726   3.576 -1.8046 -0.1565  0.0370
 1238TP3     H215534   3.810   3.762   3.691 -0.9650 -1.1845 -0.2902
 1239TP3      O15535   4.329   0.240   2.702 -0.1831 -0.3955  0.2385
 1239TP3     H115536   4.280   0.160   2.720 -0.0331 -0.4144  0.5745
 1239TP3     H215537   4.320   0.253   2.608 -0.0536 -0.9107  0.1520
 1240TP3      O15538   0.051   3.368   9.539 -0.3936 -0.6184 -0.0011
 1240TP3     H115539  -0.005   3.355   9.462  0.4386  0.7721 -0.8811
 1240TP3     H215540   0.138   3.385   9.504  0.3820 -1.6966  1.3232
 1241TP3      O15541   1.316   0.865   9.193 -0.1549 -0.3753  0.0351
 1241TP3     H115542   1.238   0.813   9.172 -1.4156  1.2918  0.3230
 1241TP3     H215543   1.386   0.801   9.204 -1.6108 -1.9938  0.3293
 1242TP3      O15544   3.351   3.764   1.701 -0.2095 -0.1440  0.0560
 1242TP3     H115545   3.444   3.743   1.710 -0.1109  0.1476 -0.2280
 1242TP3     H215546   3.333   3.825   1.772  0.1983  0.9951 -0.7924
 1243TP3      O15547   2.008   2.467   8.721  0.4534  0.7114  0.1332
 1243TP3     H115548   1.971   2.432   8.639  1.7319 -1.8398  0.5280
 1243TP3     H215549   1.951   2.431   8.789  0.3043  1.5401  0.4471
 1244TP3      O15550   0.908   0.835   0.291  0.2740 -1.1953 -0.0817
 1244TP3     H115551   0.994   0.877   0.292  0.0019 -0.5021 -2.0056
 1244TP3     H215552   0.924   0.748   0.328  1.9620 -1.3309 -1.0058
 1245TP3      O15553   1.371   0.794   7.798 -0.0582  0.9682 -0.1903
 1245TP3     H115554   1.403   0.805   7.887 -0.0533 -0.0284 -0.0604
 1245TP3     H215555   1.418   0.860   7.747  0.5297  1.0071  0.4009
 1246TP3      O15556   4.347   1.343   7.828  0.1390 -0.0228 -0.2573
 1246TP3     H115557   4.379   1.298   7.750 -0.2253 -0.1876 -0.3137
 1246TP3     H215558   4.426   1.360   7.880  0.3304 -0.3251 -0.4460
 1247TP3      O15559   2.525   1.658   0.402 -0.2854 -0.3046  0.3650
 1247TP3     H115560   2.612   1.697   0.407  0.2599 -1.6166  1.7411
 1247TP3     H215561   2.499   1.644   0.493 -1.4634 -0.9404 -0.0481
 1248TP3      O15562   2.097   0.973   9.150 -0.5405  0.2450  0.5415
 1248TP3     H115563   2.120   1.026   9.226  0.2012  0.5792  0.0895
 1248TP3     H215564   2.121   0.884   9.175  1.2610  0.5685  0.1071
 1249TP3      O15565   3.683   2.410   0.601  0.1397  0.2781 -0.0543
 1249TP3     H115566   3.766   2.386   0.558 -0.3224 -1.3317 -0.1013
 1249TP3     H215567   3.708   2.479   0.662  0.9493  2.2060 -2.3772
 1250TP3      O15568   3.403   2.258   1.474 -0.0942  0.4078 -0.2399
 1250TP3     H115569   3.355   2.243   1.555 -0.5000  0.5534 -0.4504
 1250TP3     H215570   3.495   2.242   1.497 -0.3473 -1.0437 -0.1066
 1251TP3      O15571   4.405   1.429   9.639  0.1046  0.0176 -0.3983
 1251TP3     H115572   4.497   1.414   9.659  0.1605  0.3507 -0.4087
 1251TP3     H215573   4.363   1.437   9.725 -0.0362 -0.8328 -0.3741
 1252TP3      O15574   1.685   0.562   1.104  0.7030  0.1469 -0.3465
 1252TP3     H115575   1.684   0.532   1.194  0.0950 -0.7435 -0.6331
 1252TP3     H215576   1.662   0.654   1.109  1.1086  0.2136  0.4373
 1253TP3      O15577   4.908   1.655   2.420 -0.0862  0.2567  0.5098
 1253TP3     H115578   4.977   1.589   2.425  0.0513  0.4825  1.8455
 1253TP3     H215579   4.907   1.681   2.327  0.1591 -1.2700  0.0506
 1254TP3      O15580   2.974   4.248   3.855 -0.1854 -0.5188  0.4663
 1254TP3     H115581   2.933   4.279   3.936  1.1057  2.4366  0.1102
 1254TP3     H215582   2.912   4.272   3.786  0.9883  1.8046  0.1512
 1255TP3      O15583   3.501   0.801   8.550  0.0572  0.1169 -0.4106
 1255TP3     H115584   3.477   0.717   8.512  0.2985 -0.2138  0.1636
 1255TP3     H215585   3.418   0.837   8.583  0.3880 -1.3965  2.3202
 1256TP3      O15586   0.713   0.303   6.911  0.5362  0.1390 -0.3691
 1256TP3     H115587   0.700   0.323   7.004  0.2525  0.6263 -0.5162
 1256TP3     H215588   0.719   0.207   6.909  1.1164  0.1487  0.2240
 1257TP3      O15589   2.783   2.961   1.465  0.0001 -0.8169 -0.0210
 1257TP3     H115590   2.823   3.044   1.438  0.4409 -1.1356 -0.3633
 1257TP3     H215591   2.689   2.979   1.468 -0.0046 -0.6070 -1.1845
 1258TP3      O15592   4.725   0.156   7.818 -0.0368  0.0813 -0.1701
 1258TP3     H115593   4.632   0.179   7.813  0.6623  3.0732 -1.3686
 1258TP3     H215594   4.763   0.194   7.739  2.2135 -1.2262  0.1989
 1259TP3      O15595   1.802   3.050   8.279  0.2463 -0.3038  0.3989
 1259TP3     H115596   1.801   2.956   8.261  0.7512 -0.2768  0.2049
 1259TP3     H215597   1.710   3.074   8.288 -0.0125 -0.4408 -1.4769
 1260TP3      O15598   1.727   1.553  10.375  0.1252 -0.3522 -0.1596
 1260TP3     H115599   1.759   1.619  10.436 -0.1706 -0.6463  0.3209
 1260TP3     H215600   1.644   1.524  10.412  0.0856 -0.7467 -0.5470
 1261TP3      O15601   0.150   0.890   8.326  0.7607 -0.0138 -0.0661
 1261TP3     H115602   0.110   0.921   8.407  1.2946  0.7648 -0.0940
 1261TP3     H215603   0.208   0.960   8.299  0.0464  0.0485 -1.5386
 1262TP3      O15604   3.066   2.231  10.142  0.1454 -0.1272  0.0709
 1262TP3     H115605   3.078   2.155  10.084 -0.8524  1.8263 -2.9069
 1262TP3     H215606   3.098   2.305  10.091  0.0304  1.6528  2.4484
 1263TP3      O15607   1.521   4.463   1.646 -0.3670 -0.4439  0.2791
 1263TP3     H115608   1.526   4.544   1.596  1.7910 -1.4082 -1.2093
 1263TP3     H215609   1.448   4.414   1.607 -0.3381 -0.0909 -0.2231
 1264TP3      O15610   2.226   0.913   2.740  0.1981  0.4389  0.4008
 1264TP3     H115611   2.218   0.845   2.674 -0.0734  1.8109 -1.0310
 1264TP3     H215612   2.137   0.923   2.775  0.2203  0.1414  0.5465
 1265TP3      O15613   3.918   0.431   7.383  0.0368  0.1000  0.1694
 1265TP3     H115614   3.892   0.377   7.309  0.7949 -1.9036  1.3045
 1265TP3     H215615   3.971   0.501   7.344  1.9877 -1.9258 -1.0549
 1266TP3      O15616   1.085   1.253   7.473 -0.6128  0.0315  0.3730
 1266TP3     H115617   1.059   1.283   7.560 -1.0871 -1.0282  0.6135
 1266TP3     H215618   1.141   1.177   7.489 -1.6657 -0.9053 -0.2496
 1267TP3      O15619   0.615   1.848   2.825 -0.3136  0.0578 -0.0576
 1267TP3     H115620   0.585   1.783   2.889 -0.0785  0.6003  0.6244
 1267TP3     H215621   0.635   1.926   2.878 -1.2516  0.9293 -0.9194
 1268TP3      O15622   1.808   4.597   7.094 -0.3044 -0.3826 -0.2621
 1268TP3     H115623   1.715   4.576   7.099 -0.0488 -1.4164  0.7309
 1268TP3     H215624   1.821   4.631   7.006 -1.7099  0.2824 -0.2445
 1269TP3      O15625   2.765   3.420   9.800 -0.0627 -0.3956 -0.2776
 1269TP3     H115626   2.722   3.502   9.774 -1.8127 -1.7031 -1.7998
 1269TP3     H215627   2.706   3.351   9.768  1.2582 -2.2646  1.1050
 1270TP3      O15628   3.995   4.158   9.124 -0.3665 -0.4213  0.8295
 1270TP3     H115629   3.908   4.147   9.085 -0.1995  0.2515  0.2481
 1270TP3     H215630   3.984   4.129   9.215 -0.8499 -1.6400  0.3944
 1271TP3      O15631   0.320   4.337   8.567  0.0800  0.7136  0.2079
 1271TP3     H115632   0.282   4.351   8.480 -1.2873 -0.8714  0.5082
 1271TP3     H215633   0.387   4.405   8.574  1.2336  0.0150 -2.6467
 1272TP3      O15634   3.066   3.336   7.378  0.3694 -0.0877 -0.6759
 1272TP3     H115635   3.013   3.404   7.336 -1.1513 -0.0288  1.2454
 1272TP3     H215636   3.022   3.254   7.357 -0.3852 -0.0607  0.7247
 1273TP3      O15637   2.533   2.942   9.326  0.2666  0.1547  0.2800
 1273TP3     H115638   2.536   2.912   9.235  2.4283  0.4562  0.2042
 1273TP3     H215639   2.605   3.005   9.333 -0.0463  0.3658  2.1301
 1274TP3      O15640   1.194   1.632   0.921  0.6520  0.1859  0.4600
 1274TP3     H115641   1.263   1.601   0.978 -0.1196  0.8496  1.8116
 1274TP3     H215642   1.141   1.690   0.976 -1.3844 -0.8286 -0.2997
 1275TP3      O15643   3.256   5.124   7.174  0.1073  0.2020  0.2259
 1275TP3     H115644   3.280   5.044   7.222 -0.5460 -0.2317 -0.1469
 1275TP3     H215645   3.170   5.146   7.209  0.0421  0.4210 -0.0771
 1276TP3      O15646   1.056   1.365   7.996  0.0313 -0.4713 -0.0995
 1276TP3     H115647   1.094   1.417   8.066 -0.9202  0.0429  0.0562
 1276TP3     H215648   1.018   1.429   7.936 -0.0051 -0.9391 -0.5916
 1277TP3      O15649   2.013   1.983   7.771  0.3785 -0.2346  0.5609
 1277TP3     H115650   2.019   1.987   7.867 -0.6382 -0.4511  0.6435
 1277TP3     H215651   1.934   1.931   7.754  1.0630 -0.9927 -0.4055
 1278TP3      O15652   1.289   4.838   0.513  0.0759  0.8802 -0.3287
 1278TP3     H115653   1.322   4.786   0.439  0.1373  0.8085 -0.2510
 1278TP3     H215654   1.208   4.794   0.538  1.0397 -0.2787  0.9114
 1279TP3      O15655   1.720   0.355   9.575 -0.0534  0.0900  0.0773
 1279TP3     H115656   1.724   0.262   9.554 -0.8104  0.4998 -2.1492
 1279TP3     H215657   1.803   0.372   9.621  0.9307 -1.3325 -1.0572
 1280TP3      O15658   2.495   1.180   1.406 -0.0371  0.4712 -0.3081
 1280TP3     H115659   2.562   1.223   1.459  1.0520  0.4976 -1.6568
 1280TP3     H215660   2.498   1.225   1.322 -0.0058 -1.1407 -1.2117
 1281TP3      O15661   3.436   4.479   0.677 -0.3326 -0.2673 -0.0884
 1281TP3     H115662   3.528   4.486   0.653 -0.5266  0.8731 -0.5761
 1281TP3     H215663   3.418   4.385   0.676  0.6813 -0.4759 -0.5083
 1282TP3      O15664   1.170   0.318   9.152  0.0392 -0.1771  0.0624
 1282TP3     H115665   1.176   0.262   9.075 -0.2148  0.3206 -0.3223
 1282TP3     H215666   1.093   0.372   9.137 -0.0361 -0.1022  0.6856
 1283TP3      O15667   2.220   3.355   0.597 -0.0774 -0.2522  0.0012
 1283TP3     H115668   2.135   3.312   0.589  0.0904 -0.5614 -0.1219
 1283TP3     H215669   2.199   3.447   0.612 -0.4277 -0.2209 -0.6567
 1284TP3      O15670   5.088   4.572   9.039  0.5991  0.2077  0.0535
 1284TP3     H115671   5.034   4.498   9.063  0.9773 -0.2383 -0.4441
 1284TP3     H215672   5.119   4.552   8.950  1.5806  0.4469  0.3259
 1285TP3      O15673   1.214   2.593   0.429 -0.4317  0.3871  0.4339
 1285TP3     H115674   1.285   2.600   0.493  0.2131  1.5815 -0.3906
 1285TP3     H215675   1.255   2.556   0.351 -0.6205  1.3776 -0.1529
 1286TP3      O15676   4.394   2.218   7.442  0.6191  0.5845 -0.1873
 1286TP3     H115677   4.354   2.225   7.356  0.6961  1.8375 -0.1444
 1286TP3     H215678   4.321   2.220   7.503  0.4629 -1.5646 -0.2214
 1287TP3      O15679   0.694   4.835   7.691 -0.5871  0.4187  0.0978
 1287TP3     H115680   0.696   4.834   7.787 -0.0351 -1.0785  0.1034
 1287TP3     H215681   0.603   4.815   7.669 -0.5621  0.0525  0.3191
 1288TP3      O15682   3.285   0.726   1.510 -0.1743 -0.4119 -0.1420
 1288TP3     H115683   3.335   0.707   1.589 -0.9854 -0.4515  0.3662
 1288TP3     H215684   3.198   0.691   1.527 -0.6806  0.5784 -0.5985
 1289TP3      O15685   1.861   2.361   9.528  0.2751 -0.2400  0.2598
 1289TP3     H115686   1.811   2.350   9.448 -0.5028 -0.0298  0.7039
 1289TP3     H215687   1.813   2.427   9.578  1.2453  0.3057  0.5035
 1290TP3      O15688   2.047   1.210   0.416  0.0769 -0.0906 -0.1214
 1290TP3     H115689   2.124   1.173   0.458 -0.3439  0.7760  1.5002
 1290TP3     H215690   1.973   1.170   0.463 -0.3946  2.3308  1.3718
 1291TP3      O15691   0.951   1.744   9.009  0.5971 -0.0167 -0.5215
 1291TP3     H115692   0.914   1.672   8.959 -0.4979 -0.7574  1.2675
 1291TP3     H215693   0.895   1.819   8.988  0.0477 -0.3599 -0.3002
 1292TP3      O15694   2.013   2.875   8.846  0.0879 -0.7370  0.0767
 1292TP3     H115695   2.090   2.928   8.827  0.3743 -0.8730  0.8374
 1292TP3     H215696   1.979   2.909   8.929  0.6983 -2.1941  0.9493
 1293TP3      O15697   0.412   3.982   0.343 -0.3407 -0.4486 -0.4269
 1293TP3     H115698   0.381   3.909   0.397 -1.0877 -0.1063 -0.3757
 1293TP3     H215699   0.482   4.022   0.394 -1.7604  0.5448  0.8294
 1294TP3      O15700   3.345   4.887   7.259  0.2137  0.2055 -0.5078
 1294TP3     H115701   3.310   4.837   7.333  1.7164 -0.7048 -0.3727
 1294TP3     H215702   3.438   4.864   7.256  0.8055  2.4028 -0.9486
 1295TP3      O15703   2.838   4.912  10.321  0.3782  0.4841  0.2634
 1295TP3     H115704   2.889   4.979  10.367 -2.2266  1.5766  1.8129
 1295TP3     H215705   2.813   4.955  10.239 -0.0350  0.8624  0.5812
 1296TP3      O15706   1.497   3.121   1.234  0.0882 -0.3611  0.1340
 1296TP3     H115707   1.421   3.139   1.289 -0.1762 -0.2582 -0.2609
 1296TP3     H215708   1.547   3.202   1.233 -1.7690  0.9231 -2.7128
 1297TP3      O15709   3.460   0.571   6.567 -0.7143  0.5035 -0.0665
 1297TP3     H115710   3.470   0.560   6.661  0.5211 -1.3577 -0.3676
 1297TP3     H215711   3.433   0.485   6.535  0.6150  0.6069 -1.6040
 1298TP3      O15712   3.450   4.631   9.146  0.1210  0.7108  0.2911
 1298TP3     H115713   3.473   4.724   9.155 -0.2297  0.9197 -0.7813
 1298TP3     H215714   3.424   4.622   9.055 -2.5741  0.1596  1.0482
 1299TP3      O15715   4.226   1.655   9.005  0.2733 -0.0613  0.6707
 1299TP3     H115716   4.156   1.632   8.945  0.3549 -0.4967  0.7416
 1299TP3     H215717   4.256   1.572   9.041 -0.1700  0.2205  1.7526
 1300TP3      O15718   2.382   2.204   6.959  0.6230 -0.4045  0.1150
 1300TP3     H115719   2.403   2.290   6.996 -0.3170 -0.7238  1.4496
 1300TP3     H215720   2.452   2.147   6.991  0.5427 -0.4025  0.2951
 1301TP3      O15721   0.121   3.190   9.264  0.0968 -0.1581 -0.4535
 1301TP3     H115722   0.035   3.229   9.250  0.3127  0.8773  0.8988
 1301TP3     H215723   0.105   3.095   9.266 -1.2075  0.0557  0.8594
 1302TP3      O15724   1.662   1.443   8.166  0.5934  0.4270 -0.7467
 1302TP3     H115725   1.725   1.504   8.203  0.5529 -0.2267  0.4375
 1302TP3     H215726   1.603   1.421   8.238  0.6566 -1.0777 -1.0994
 1303TP3      O15727   4.039   2.208   9.342  0.4521 -0.2816 -0.2826
 1303TP3     H115728   4.102   2.200   9.413 -0.2712  1.9214  0.7055
 1303TP3     H215729   4.054   2.295   9.306 -2.3855  0.6273  0.4419
 1304TP3      O15730   3.265   0.756   8.108 -0.6172  0.2845  0.5388
 1304TP3     H115731   3.251   0.820   8.038 -0.1603  0.4751  0.6210
 1304TP3     H215732   3.357   0.731   8.100 -0.1209  1.4930  2.0542
 1305TP3      O15733   3.910   4.366   8.257  0.2084  0.2260 -0.5520
 1305TP3     H115734   3.995   4.329   8.282 -0.0704  0.6355  1.1588
 1305TP3     H215735   3.915   4.457   8.285 -1.0068  0.0911  0.1619
 1306TP3      O15736   3.061   5.010   9.604  0.7248 -0.0793 -0.4463
 1306TP3     H115737   3.090   5.039   9.690 -0.5211  0.9937 -0.3590
 1306TP3     H215738   3.128   4.948   9.576  0.9335 -0.8035  1.4877
 1307TP3      O15739   0.103   1.690   2.251 -0.0899 -0.5174  0.7171
 1307TP3     H115740   0.095   1.782   2.227 -1.3949  0.0844  3.1398
 1307TP3     H215741   0.189   1.683   2.293  0.0424 -0.4311  0.4614
 1308TP3      O15742   3.040   0.504   8.693 -0.7955  0.5132 -0.0258
 1308TP3     H115743   2.954   0.509   8.735 -1.3043  0.5232 -1.0470
 1308TP3     H215744   3.097   0.466   8.760 -1.3832  1.3255  0.9723
 1309TP3      O15745   5.190   1.946   7.804 -0.5576  0.1036  0.0511
 1309TP3     H115746   5.172   1.871   7.748 -0.2552  0.6644 -0.8155
 1309TP3     H215747   5.235   1.910   7.880 -0.4125 -0.5872 -0.3604
 1310TP3      O15748   1.887   3.949   1.421 -0.0687 -0.8416  0.3189
 1310TP3     H115749   1.942   3.908   1.354 -0.4401 -0.0236 -0.5156
 1310TP3     H215750   1.821   3.883   1.442  0.8533 -1.6086  0.8898
 1311TP3      O15751   0.019   4.596   2.578 -0.5357  0.0947  0.0098
 1311TP3     H115752  -0.053   4.537   2.555  0.0679 -1.0766  0.9717
 1311TP3     H215753   0.098   4.546   2.557  0.0141  1.4128 -1.1717
 1312TP3      O15754   4.839   3.590   7.467 -0.1499  0.2007  0.2353
 1312TP3     H115755   4.923   3.544   7.466  1.1038  2.3843  0.2372
 1312TP3     H215756   4.797   3.564   7.385  1.7129  1.1091 -1.0735
 1313TP3      O15757   0.079   3.729   7.765 -0.1456  0.1644 -0.2547
 1313TP3     H115758  -0.004   3.688   7.742 -0.6903  1.9975 -1.7914
 1313TP3     H215759   0.144   3.660   7.749 -1.3027 -1.2352  0.8080
 1314TP3      O15760   4.695   3.917   2.455  0.4104  0.3657 -0.3731
 1314TP3     H115761   4.755   3.844   2.442  1.6974  0.9346  1.8202
 1314TP3     H215762   4.633   3.910   2.383  2.0266 -1.3341 -1.7084
 1315TP3      O15763   4.368   1.810   0.461  0.7463 -0.0881 -0.2913
 1315TP3     H115764   4.362   1.827   0.367 -0.8182 -0.0496 -0.2084
 1315TP3     H215765   4.305   1.739   0.477  1.0437 -0.1506  0.7230
 1316TP3      O15766   1.460   0.165   8.212  0.7541  0.2786 -0.9171
 1316TP3     H115767   1.529   0.114   8.170  1.0879  1.3029 -1.6581
 1316TP3     H215768   1.480   0.160   8.305  2.9306  1.9978 -1.1968
 1317TP3      O15769   4.556   2.691   9.005 -0.0628  0.3701 -0.3186
 1317TP3     H115770   4.560   2.597   8.988  0.0568  0.1948  0.6010
 1317TP3     H215771   4.563   2.698   9.101 -0.8066  1.2668 -0.3126
 1318TP3      O15772   1.148   0.756   8.395 -0.2210  0.3312 -0.4368
 1318TP3     H115773   1.158   0.734   8.488 -0.1551 -1.6557 -0.8715
 1318TP3     H215774   1.215   0.822   8.380 -0.8492  1.3966  1.1247
 1319TP3      O15775   2.118   3.348   0.187 -0.0577  0.1865 -0.6595
 1319TP3     H115776   2.163   3.393   0.259  0.5134  0.1035 -0.9620
 1319TP3     H215777   2.159   3.383   0.108  1.5544 -2.0038 -0.8917
 1320TP3      O15778   0.211   1.536   9.067 -0.5925  0.1057 -0.3496
 1320TP3     H115779   0.265   1.612   9.086  1.0277 -1.0964  0.0303
 1320TP3     H215780   0.265   1.461   9.091 -1.8531 -1.2063 -1.4006
 1321TP3      O15781   1.897   0.296   2.996 -0.3779 -0.1553 -0.1516
 1321TP3     H115782   1.976   0.250   3.025 -0.9344 -1.0545 -0.0283
 1321TP3     H215783   1.874   0.256   2.913 -1.0572 -0.3341  0.1111
 1322TP3      O15784   3.032   2.410   9.228 -0.2442 -0.1038  0.1314
 1322TP3     H115785   2.941   2.392   9.204 -0.0436 -0.1887 -0.5912
 1322TP3     H215786   3.068   2.325   9.253 -0.0731 -0.2574 -0.6085
 1323TP3      O15787   4.818   1.606   9.572  0.0511 -0.3944 -0.9998
 1323TP3     H115788   4.751   1.538   9.584  0.8640 -1.3032 -1.3928
 1323TP3     H215789   4.861   1.582   9.489  2.1203 -0.9798  0.1610
 1324TP3      O15790   5.019   2.492   9.806  0.1809 -0.0975 -0.2408
 1324TP3     H115791   4.941   2.448   9.839  0.3323 -1.0912 -1.1239
 1324TP3     H215792   5.002   2.585   9.817 -1.1506 -0.3030 -0.4766
 1325TP3      O15793   1.341   2.173   7.549 -0.0421  0.5535  0.2234
 1325TP3     H115794   1.261   2.225   7.552 -1.1790 -1.0764 -0.1727
 1325TP3     H215795   1.395   2.216   7.482 -0.0797  2.2999  1.2478
 1326TP3      O15796   0.579   4.349  10.366  0.4449 -0.3840  0.0689
 1326TP3     H115797   0.668   4.321  10.343  0.1012  0.2693 -2.2567
 1326TP3     H215798   0.524   4.274  10.345  0.3350 -0.4868  0.7035
 1327TP3      O15799   3.611   3.080   1.842  0.8421 -0.9677  0.1596
 1327TP3     H115800   3.519   3.098   1.826  0.6353 -1.9429  0.1955
 1327TP3     H215801   3.615   3.052   1.934  1.4580  0.8332  0.7370
 1328TP3      O15802   1.877   0.325  10.221 -0.9936 -0.4334  0.0015
 1328TP3     H115803   1.929   0.364  10.292 -0.6610 -0.9418  0.0353
 1328TP3     H215804   1.908   0.369  10.142 -1.4347  0.2090  0.1661
 1329TP3      O15805   3.628   1.969   8.551  0.6838  0.2670  0.5454
 1329TP3     H115806   3.585   2.029   8.612  0.4162  1.4604 -0.7723
 1329TP3     H215807   3.557   1.927   8.503  0.8335  2.6241 -2.0018
 1330TP3      O15808   4.620   0.699   1.677  0.1489 -0.4150 -0.5496
 1330TP3     H115809   4.650   0.773   1.624 -2.2690  1.1455  0.0675
 1330TP3     H215810   4.700   0.658   1.709  1.5984  1.2061 -1.9164
 1331TP3      O15811   4.169   3.834   2.428  0.1600 -0.1459 -0.3145
 1331TP3     H115812   4.216   3.873   2.501 -1.0364  0.5185  0.1122
 1331TP3     H215813   4.078   3.832   2.455 -0.2548 -0.2723 -1.6259
 1332TP3      O15814   4.946   1.691   9.009  0.3406 -0.2263 -0.2188
 1332TP3     H115815   4.924   1.694   8.916  0.6351 -0.9513 -0.3134
 1332TP3     H215816   4.861   1.690   9.053  0.1864  0.9300 -0.4337
 1333TP3      O15817   5.152   3.030   1.323 -0.0068  0.2048 -0.5324
 1333TP3     H115818   5.158   3.110   1.375  1.3997  0.9227 -1.7228
 1333TP3     H215819   5.211   2.969   1.366  1.5775  0.9735 -1.4904
 1334TP3      O15820   4.586   2.563   7.369  0.0129  0.3359  0.4687
 1334TP3     H115821   4.551   2.506   7.301 -0.6955  1.0494  0.2094
 1334TP3     H215822   4.641   2.506   7.423 -0.9833 -0.6747  0.4544
 1335TP3      O15823   0.684   2.751   0.308 -0.2042  0.1032 -0.8616
 1335TP3     H115824   0.632   2.685   0.263 -0.5969 -1.0063  1.1130
 1335TP3     H215825   0.771   2.712   0.315 -0.4211 -0.2167  0.2536
 1336TP3      O15826   2.292   3.247   0.974  0.2095  0.0400 -0.1585
 1336TP3     H115827   2.223   3.237   0.909  0.2275  1.1020 -0.3660
 1336TP3     H215828   2.356   3.304   0.932  0.0073  1.1103  0.9148
 1337TP3      O15829   0.942   4.730   6.428  0.2944 -0.0012  0.0972
 1337TP3     H115830   0.847   4.736   6.439  0.0947  0.0479 -1.3731
 1337TP3     H215831   0.967   4.650   6.474 -0.4710 -0.0532  0.4418
 1338TP3      O15832   2.492   4.707   8.007 -0.8412 -0.0008 -0.4531
 1338TP3     H115833   2.511   4.734   7.917 -2.6692  2.0746 -0.3033
 1338TP3     H215834   2.490   4.789   8.056 -5.2179 -0.3552  0.3640
 1339TP3      O15835   2.775   3.728   9.284  0.1010 -0.1715 -0.0979
 1339TP3     H115836   2.789   3.676   9.363 -0.0690 -1.9610 -1.1902
 1339TP3     H215837   2.686   3.707   9.257 -0.6911  2.1741  0.4260
 1340TP3      O15838   2.106   1.409   0.229  0.0090  0.4571 -0.1211
 1340TP3     H115839   2.097   1.495   0.271  1.8194  0.6297 -0.0036
 1340TP3     H215840   2.107   1.347   0.302  0.4169  0.5156 -0.0694
 1341TP3      O15841   3.990   0.541   9.717 -0.8500  0.3035  0.0582
 1341TP3     H115842   3.969   0.576   9.630  1.0042 -0.0031 -0.5423
 1341TP3     H215843   3.994   0.446   9.705 -2.0548  0.1222  0.8428
 1342TP3      O15844   0.642   5.027   9.838 -0.8191  0.6606 -0.6370
 1342TP3     H115845   0.615   5.117   9.858  1.1872  0.9241  1.1934
 1342TP3     H215846   0.734   5.035   9.812 -0.1747 -0.9797  0.9409
 1343TP3      O15847   4.586   0.227   2.332 -0.6514 -0.1731  0.2169
 1343TP3     H115848   4.501   0.184   2.323 -1.0676  0.5595  0.4780
 1343TP3     H215849   4.571   0.294   2.398 -0.0010  0.2995 -0.1042
 1344TP3      O15850   2.803   2.266   1.109 -0.0677  0.0906 -0.2451
 1344TP3     H115851   2.813   2.217   1.027 -0.0584  0.0572 -0.2241
 1344TP3     H215852   2.708   2.268   1.124 -0.1556  1.0490 -0.8316
 1345TP3      O15853   2.752   4.496   2.710 -0.5685 -0.3358 -0.1314
 1345TP3     H115854   2.731   4.451   2.792 -0.6884 -0.1896 -0.0815
 1345TP3     H215855   2.787   4.427   2.653 -1.7423 -0.7237 -0.4352
 1346TP3      O15856   4.852   1.994   1.122  0.2713  0.6207  0.1812
 1346TP3     H115857   4.906   1.948   1.186 -0.0404  0.1345  0.1014
 1346TP3     H215858   4.875   1.953   1.038 -0.7355 -0.0939  0.2336
 1347TP3      O15859   2.479   3.584   8.468 -0.2659 -0.0014 -0.0193
 1347TP3     H115860   2.472   3.657   8.529 -0.2761  0.4596 -0.5623
 1347TP3     H215861   2.535   3.618   8.398  0.4515 -0.8066  0.1453
 1348TP3      O15862   3.292   1.343   0.180 -0.2670  0.4020 -0.1973
 1348TP3     H115863   3.332   1.318   0.263 -1.0525 -0.9537 -0.2038
 1348TP3     H215864   3.365   1.377   0.128  0.6004 -0.5834  0.3313
 1349TP3      O15865   1.723   0.721  10.301 -0.3837  0.1495  0.2098
 1349TP3     H115866   1.656   0.790  10.308  0.7478  1.2457  0.5531
 1349TP3     H215867   1.731   0.705  10.207  1.1397  2.3510 -0.0971
 1350TP3      O15868   2.567   4.389   1.555  0.9034 -0.4194 -0.3097
 1350TP3     H115869   2.543   4.311   1.605  1.2048  0.2713  0.9531
 1350TP3     H215870   2.592   4.355   1.469  0.4441 -1.6503  0.0195
 1351TP3      O15871   2.460   5.215   1.636 -0.2861  0.1360 -0.3694
 1351TP3     H115872   2.498   5.231   1.550 -1.7624  0.1223 -1.0449
 1351TP3     H215873   2.386   5.157   1.620  0.2010 -0.9457  1.0801
 1352TP3      O15874   0.905   3.339   8.772 -0.6848  0.3251  0.3150
 1352TP3     H115875   0.966   3.267   8.754  2.5713  2.2804  2.4898
 1352TP3     H215876   0.921   3.402   8.703  0.5848  1.2483  1.3991
 1353TP3      O15877   2.694   4.885   2.013 -0.7001  0.2432 -0.1628
 1353TP3     H115878   2.614   4.888   2.065 -0.5849  0.3530  0.0112
 1353TP3     H215879   2.673   4.935   1.934 -0.6340  0.7263  0.1244
 1354TP3      O15880   0.585   1.068   1.850 -0.4174 -0.5384  0.0189
 1354TP3     H115881   0.589   1.151   1.803 -0.7462 -1.2555 -1.3171
 1354TP3     H215882   0.539   1.089   1.931 -1.8959  0.2767 -0.9826
 1355TP3      O15883   0.382   2.229   8.223 -0.2260  0.1642  0.1202
 1355TP3     H115884   0.393   2.137   8.196  2.8788 -0.2293  2.1624
 1355TP3     H215885   0.395   2.279   8.143 -2.6709 -1.0760 -1.1904
 1356TP3      O15886   1.751   4.628   9.113  0.2345  0.2108 -0.4564
 1356TP3     H115887   1.675   4.569   9.115  0.4107 -0.0066  0.1668
 1356TP3     H215888   1.812   4.585   9.053 -0.1386  0.3953 -0.9744
 1357TP3      O15889   3.045   1.825   9.217  0.0867  0.4230  0.2137
 1357TP3     H115890   3.039   1.730   9.217  1.6708  0.2750 -1.0721
 1357TP3     H215891   3.008   1.851   9.133  0.2513  0.8863  0.2801
 1358TP3      O15892   0.310   0.984   2.367  0.6457 -0.4362 -0.1129
 1358TP3     H115893   0.334   0.976   2.274  1.6098 -0.3873  0.1213
 1358TP3     H215894   0.215   0.998   2.366  0.3865 -1.9584 -1.0182
 1359TP3      O15895   0.070   0.705   7.137 -0.2066  0.7775  0.0077
 1359TP3     H115896   0.138   0.642   7.112 -1.0040  0.3319 -1.1046
 1359TP3     H215897   0.027   0.727   7.055 -0.9492  1.5966  0.6103
 1360TP3      O15898   0.181   4.455   0.871  0.3922 -0.2434  0.2768
 1360TP3     H115899   0.137   4.459   0.786  0.3845 -3.1770  0.0460
 1360TP3     H215900   0.112   4.471   0.935  0.0795  0.4155 -0.2171
 1361TP3      O15901   4.429   5.052   1.134  0.1400  0.6532 -1.0481
 1361TP3     H115902   4.414   4.968   1.092 -0.4313 -0.2347  0.8017
 1361TP3     H215903   4.352   5.065   1.190  1.0174  1.5628  0.0033
 1362TP3      O15904   3.898   2.946   8.388  0.3764  0.0221 -0.3141
 1362TP3     H115905   3.890   3.024   8.333 -1.9763  0.6597  0.8286
 1362TP3     H215906   3.879   2.976   8.476 -1.3393 -1.9470  0.0659
 1363TP3      O15907   5.210   3.327   0.899 -0.4677 -0.0118  0.4368
 1363TP3     H115908   5.290   3.316   0.949  0.7305  0.3356 -1.3168
 1363TP3     H215909   5.206   3.250   0.842 -2.0936 -0.6870  1.3881
 1364TP3      O15910   0.564   0.310   1.094 -0.1327 -0.1969 -0.1968
 1364TP3     H115911   0.593   0.377   1.155  3.3591 -1.8900  0.2364
 1364TP3     H215912   0.580   0.348   1.008  0.8085 -0.0461  0.0330
 1365TP3      O15913   0.368   0.702   8.207  0.0058 -0.4910 -0.9591
 1365TP3     H115914   0.343   0.787   8.171 -0.2855 -1.2597 -2.6537
 1365TP3     H215915   0.336   0.704   8.298  1.1846  1.6939 -0.5195
 1366TP3      O15916   1.177   4.490   0.231 -0.2733 -0.4803  0.3112
 1366TP3     H115917   1.106   4.489   0.296 -2.0903  1.1923 -1.5113
 1366TP3     H215918   1.157   4.417   0.173 -1.6181  1.0452 -1.2341
 1367TP3      O15919   1.134   4.235   0.094  0.0906  0.7297 -0.0359
 1367TP3     H115920   1.124   4.273   0.007  1.9610 -0.2260 -0.7128
 1367TP3     H215921   1.114   4.142   0.082  0.1662  0.6278  0.6143
 1368TP3      O15922   4.650   1.107   7.755 -0.2476 -0.4039  0.1068
 1368TP3     H115923   4.706   1.179   7.784  0.2311 -1.1539  1.1009
 1368TP3     H215924   4.572   1.150   7.720  1.2516  0.7200 -2.1421
 1369TP3      O15925   1.599   1.667   0.824 -0.6290 -0.3383 -0.3187
 1369TP3     H115926   1.639   1.597   0.876 -0.2375 -1.1793 -1.7132
 1369TP3     H215927   1.660   1.682   0.752 -2.1024 -0.6249 -1.6759
 1370TP3      O15928   2.045   3.999   9.618  0.4682 -0.5164  0.6532
 1370TP3     H115929   1.976   3.958   9.670 -0.4274 -1.1640 -0.9597
 1370TP3     H215930   2.020   4.092   9.614 -0.3604 -0.7490  0.0573
 1371TP3      O15931   1.592   4.242   3.420  0.2656  0.0039 -0.3561
 1371TP3     H115932   1.621   4.204   3.503  1.2537 -0.2885 -0.8113
 1371TP3     H215933   1.548   4.170   3.375  1.2065 -0.3338 -0.7725
 1372TP3      O15934   2.456   0.388  10.014 -0.5150 -0.1457  0.2701
 1372TP3     H115935   2.511   0.413   9.940 -0.1494  1.3414  1.0054
 1372TP3     H215936   2.367   0.411   9.986 -0.3978  0.2527  0.2109
 1373TP3      O15937   1.777   0.259   7.203 -0.9386  0.2236  0.1469
 1373TP3     H115938   1.742   0.197   7.266 -2.1418  0.8238  0.1036
 1373TP3     H215939   1.704   0.276   7.143  0.0716 -0.0624 -1.1976
 1374TP3      O15940   0.191   1.484   8.644 -0.0887 -0.8311  0.4729
 1374TP3     H115941   0.271   1.476   8.696  1.5110 -1.3878 -1.9400
 1374TP3     H215942   0.147   1.561   8.680  2.4636  0.6177  0.7033
 1375TP3      O15943   1.891   3.875   0.096 -0.1579 -0.2098 -0.0977
 1375TP3     H115944   1.850   3.812   0.037 -0.1809 -1.0731  0.8140
 1375TP3     H215945   1.967   3.907   0.049 -0.1786 -0.8826 -0.5932
 1376TP3      O15946   1.156   2.380   0.977 -0.2657 -0.0176  0.0850
 1376TP3     H115947   1.163   2.387   1.073 -0.5132 -1.3832  0.2270
 1376TP3     H215948   1.064   2.357   0.963 -1.3968  4.2694 -0.7980
 1377TP3      O15949   3.665   0.291   8.093 -0.2320  0.2014 -0.0750
 1377TP3     H115950   3.712   0.209   8.110 -0.4966  0.1441  0.4015
 1377TP3     H215951   3.731   0.348   8.054 -0.0086 -0.1921 -0.2871
 1378TP3      O15952   2.454   3.025   7.966 -0.0005 -0.1703 -0.0911
 1378TP3     H115953   2.527   2.999   7.909 -0.9615 -1.7980 -0.6392
 1378TP3     H215954   2.430   3.112   7.935  0.7748 -0.2121 -0.8727
 1379TP3      O15955   3.470   2.640   7.986 -0.3318  0.8368  0.3413
 1379TP3     H115956   3.479   2.568   8.049  0.0604 -0.1370 -0.8082
 1379TP3     H215957   3.557   2.679   7.982 -0.3923  0.9914  0.4956
 1380TP3      O15958   0.871   1.852   7.363 -0.1857  0.1736  0.0198
 1380TP3     H115959   0.778   1.835   7.375 -0.4216  0.5448 -1.1856
 1380TP3     H215960   0.875   1.927   7.304  0.8325  3.1970  3.5371
 1381TP3      O15961   2.103   0.872   8.855 -0.3581  0.1299 -0.3824
 1381TP3     H115962   2.052   0.938   8.902 -1.2190 -1.1020  0.4646
 1381TP3     H215963   2.119   0.911   8.769  0.1182  1.8988  0.4489
 1382TP3      O15964   5.181   3.574   2.408 -0.7850 -0.5960  0.6250
 1382TP3     H115965   5.194   3.488   2.447  0.1770  0.1774  2.1135
 1382TP3     H215966   5.207   3.563   2.316  0.1225 -1.7044  0.9926
 1383TP3      O15967   1.404   1.106   9.297  0.5754  0.2005 -0.0136
 1383TP3     H115968   1.493   1.120   9.264  0.5636 -0.3864 -0.2891
 1383TP3     H215969   1.375   1.026   9.255  0.0750  0.1524  0.4211
 1384TP3      O15970   1.078   2.903   7.375  0.1825 -0.4583  0.8557
 1384TP3     H115971   1.103   2.991   7.347  0.4473 -0.6870  0.3739
 1384TP3     H215972   1.150   2.847   7.346  0.0745 -0.8165  1.2744
 1385TP3      O15973   4.325   1.006   7.442 -0.5684 -0.0791  0.2116
 1385TP3     H115974   4.408   0.965   7.418  0.9568  1.5811  2.3327
 1385TP3     H215975   4.265   0.982   7.370  1.4150 -2.1625 -0.8689
 1386TP3      O15976   4.752   3.583   0.739  0.1639  0.2048  0.6453
 1386TP3     H115977   4.812   3.631   0.796  1.4508  0.7031 -1.0400
 1386TP3     H215978   4.808   3.523   0.690 -0.9976 -0.7206  0.4016
 1387TP3      O15979   0.390   1.933   7.791  0.0922 -0.3377 -0.1099
 1387TP3     H115980   0.297   1.910   7.794  0.0709 -0.3999 -1.0679
 1387TP3     H215981   0.431   1.860   7.745  0.4258  0.2843 -0.8083
 1388TP3      O15982   1.018   4.693   1.218 -0.4082  0.2072  0.1156
 1388TP3     H115983   1.012   4.758   1.148 -0.2866  1.7813  1.5032
 1388TP3     H215984   1.111   4.683   1.235 -0.3492 -1.3481 -0.9590
 1389TP3      O15985   5.201   0.645   8.822 -0.7449  0.3525  0.4770
 1389TP3     H115986   5.254   0.572   8.789 -0.8608  0.5212 -0.0906
 1389TP3     H215987   5.134   0.602   8.876 -0.8567  0.0221  0.0868
 1390TP3      O15988   1.111   0.326   0.965 -0.3695 -0.1311  0.0226
 1390TP3     H115989   1.098   0.407   0.915 -2.4730 -0.6807 -0.4236
 1390TP3     H215990   1.128   0.259   0.898 -0.1848 -0.3299  0.2687
 1391TP3      O15991   1.072   2.683   8.292 -0.2388  0.1683  0.2124
 1391TP3     H115992   1.071   2.647   8.203  0.4184  2.5649 -0.8302
 1391TP3     H215993   1.026   2.766   8.285 -0.5288  0.2206  2.2326
 1392TP3      O15994   1.513   0.686   2.007 -0.5875  0.4798  0.0366
 1392TP3     H115995   1.424   0.721   1.995 -0.4580  0.5319 -0.7749
 1392TP3     H215996   1.542   0.662   1.919  0.2765  0.6276  0.2742
 1393TP3      O15997   0.344   2.982   3.529  0.1437  0.4662  0.2636
 1393TP3     H115998   0.380   2.899   3.499  0.0327  0.3526  0.4433
 1393TP3     H215999   0.343   3.037   3.451  1.6775  0.8181  0.4539
 1394TP3      O16000   2.096   1.965   2.501  0.3567  0.3869 -0.3302
 1394TP3     H116001   2.157   1.893   2.485 -0.6694 -0.7752  0.7061
 1394TP3     H216002   2.114   2.028   2.431  1.1902 -0.9536 -1.3832
 1395TP3      O16003   2.370   0.985   6.845  0.3247 -0.0261 -0.2389
 1395TP3     H116004   2.443   1.034   6.882  0.3127 -0.3608  0.2437
 1395TP3     H216005   2.408   0.902   6.819 -0.1862 -0.9118  1.6426
 1396TP3      O16006   4.097   1.153   7.578  0.2897  0.0666  0.2851
 1396TP3     H116007   4.016   1.163   7.529  0.1567  1.1580  0.6965
 1396TP3     H216008   4.160   1.120   7.514  0.1631  1.6140 -0.6824
 1397TP3      O16009   0.613   4.551   0.878  0.0400  0.5482 -0.4144
 1397TP3     H116010   0.656   4.481   0.927 -0.9625  0.7353  0.7597
 1397TP3     H216011   0.562   4.504   0.811  0.0305  0.1978 -0.1652
 1398TP3      O16012   2.345   2.501   9.494  0.4989  0.1702  0.1054
 1398TP3     H116013   2.425   2.550   9.511  0.3746  0.0701  0.9978
 1398TP3     H216014   2.376   2.420   9.453  0.9053 -0.1242  0.9727
 1399TP3      O16015   3.059   0.296   1.148 -0.7096  0.1970  1.0440
 1399TP3     H116016   3.065   0.360   1.219 -1.8049  0.3984  0.9824
 1399TP3     H216017   3.104   0.337   1.074  0.0440  0.1765  1.4787
 1400TP3      O16018   1.626   4.624   8.809  0.0032 -0.5459 -0.1102
 1400TP3     H116019   1.648   4.711   8.773 -1.4090 -0.1186  0.0070
 1400TP3     H216020   1.640   4.564   8.736 -1.1329  0.0853 -0.8852
 1401TP3      O16021   2.198   2.475   7.026  0.1358 -0.3420 -0.3990
 1401TP3     H116022   2.158   2.561   7.041 -0.7192 -0.6816 -0.7244
 1401TP3     H216023   2.268   2.470   7.091 -1.6979 -0.6258  1.6457
 1402TP3      O16024   0.958   4.648   7.125 -0.3747 -0.4349  0.3543
 1402TP3     H116025   0.874   4.690   7.145 -0.9863  1.0499 -4.0742
 1402TP3     H216026   0.935   4.560   7.097 -0.8711  0.3896 -2.2032
 1403TP3      O16027   0.484   4.738   7.368  0.3402  0.1019 -0.0743
 1403TP3     H116028   0.397   4.708   7.342  0.2539  1.3782 -1.4260
 1403TP3     H216029   0.539   4.720   7.291  0.8646  0.9026  0.1032
 1404TP3      O16030   5.147   1.725   7.643  0.0976 -0.0349  0.3500
 1404TP3     H116031   5.155   1.677   7.561  3.0749  0.2326  0.3572
 1404TP3     H216032   5.164   1.660   7.711 -0.4925  0.1054  0.6319
 1405TP3      O16033   5.203   1.419   2.722  0.1838 -0.3771 -0.2383
 1405TP3     H116034   5.167   1.503   2.692  0.2263 -0.4562 -0.5184
 1405TP3     H216035   5.212   1.429   2.817 -1.6556 -0.7620  0.0290
 1406TP3      O16036   3.169   2.406   8.172 -0.4506 -0.0228  0.0859
 1406TP3     H116037   3.147   2.371   8.086 -1.2290  0.2596  0.1538
 1406TP3     H216038   3.135   2.496   8.170  0.6607  0.4092  0.2454
 1407TP3      O16039   0.860   1.863   9.317 -0.1936  0.3060  0.6096
 1407TP3     H116040   0.874   1.802   9.245  0.2656  0.1140  0.8581
 1407TP3     H216041   0.947   1.877   9.354 -0.0263  2.3914 -0.4489
 1408TP3      O16042   0.773   3.960   0.125  0.5186 -0.1886  0.1202
 1408TP3     H116043   0.758   3.911   0.206  2.5030 -1.6253 -0.3055
 1408TP3     H216044   0.765   4.052   0.151 -1.0846 -0.6575  1.4298
 1409TP3      O16045   3.270   3.156   0.775 -0.0078  0.0847  0.2264
 1409TP3     H116046   3.276   3.115   0.862 -0.7181 -0.6195 -0.0343
 1409TP3     H216047   3.360   3.179   0.752  0.4996 -1.7368  0.2259
 1410TP3      O16048   4.878   4.361   7.939  0.0320 -0.4170 -0.3638
 1410TP3     H116049   4.854   4.442   7.984  1.4943 -0.3834  0.4133
 1410TP3     H216050   4.829   4.364   7.856 -1.7874  0.0954  0.6713
 1411TP3      O16051   4.807   3.316   8.614 -0.2181  0.3355 -0.2642
 1411TP3     H116052   4.823   3.294   8.706 -2.0456 -1.1817 -0.2344
 1411TP3     H216053   4.892   3.344   8.581  1.0347 -1.3412  1.2985
 1412TP3      O16054   3.329   1.492  10.242  0.1088  1.1468  0.4261
 1412TP3     H116055   3.332   1.424  10.174  0.3082  0.2173  1.3305
 1412TP3     H216056   3.267   1.458  10.307 -0.8795  2.5037  0.2234
 1413TP3      O16057   0.162   3.759   3.439 -0.5761 -0.2267 -0.0840
 1413TP3     H116058   0.101   3.757   3.365  0.2196  1.4793 -0.8479
 1413TP3     H216059   0.112   3.721   3.512 -1.4546 -1.7634 -1.4060
 1414TP3      O16060   1.861   0.145   1.613  0.6292  0.0395 -0.0125
 1414TP3     H116061   1.943   0.110   1.647 -0.0218 -2.0047 -0.4159
 1414TP3     H216062   1.864   0.126   1.519 -0.2578  0.0409 -0.0514
 1415TP3      O16063   4.487   4.261   1.806 -0.1785 -0.6710 -0.4148
 1415TP3     H116064   4.569   4.223   1.776  0.0844  0.5458 -1.3152
 1415TP3     H216065   4.490   4.254   1.902 -0.1362 -2.8134 -0.5403
 1416TP3      O16066   4.651   2.086   1.274 -0.9255 -0.5671  0.0581
 1416TP3     H116067   4.726   2.064   1.218 -0.2728  1.8601 -0.1365
 1416TP3     H216068   4.683   2.158   1.328 -2.9265  0.0526  0.4667
 1417TP3      O16069   2.267   0.440   8.881 -0.3569 -0.3254 -0.3142
 1417TP3     H116070   2.195   0.493   8.848  0.8937  0.5589 -1.7746
 1417TP3     H216071   2.233   0.350   8.880 -1.6527  0.1485 -0.2631
 1418TP3      O16072   3.769   1.818   8.353  0.8168 -0.4393 -0.6840
 1418TP3     H116073   3.733   1.730   8.349  1.1974 -0.7079  1.1553
 1418TP3     H216074   3.736   1.854   8.435  1.4560  0.7799 -0.9324
 1419TP3      O16075   4.501   3.273   1.418 -0.1552  0.4168  0.3566
 1419TP3     H116076   4.563   3.232   1.356 -1.4981 -0.4103 -0.4845
 1419TP3     H216077   4.428   3.300   1.363 -1.2818 -0.1316  1.5545
 1420TP3      O16078   2.280   2.523   8.752  0.6408  0.3731  0.0624
 1420TP3     H116079   2.212   2.480   8.701  0.9928  1.2888 -1.2622
 1420TP3     H216080   2.250   2.519   8.842 -1.7041  1.6522 -0.5740
 1421TP3      O16081   1.337   0.202   7.254 -0.0442  0.2541 -0.2560
 1421TP3     H116082   1.263   0.231   7.307 -0.1304  0.8408 -0.6856
 1421TP3     H216083   1.320   0.109   7.237 -0.6202  0.3557 -0.2555
 1422TP3      O16084   2.936   1.482   2.690  0.4688  0.1801  0.1272
 1422TP3     H116085   3.015   1.526   2.721  1.8891 -0.9117 -1.7761
 1422TP3     H216086   2.936   1.397   2.736  0.5847  0.0441 -0.1232
 1423TP3      O16087   1.967   5.024   2.990  0.1772 -0.1214 -0.3587
 1423TP3     H116088   1.884   4.986   2.960 -0.2327  0.4205  0.0762
 1423TP3     H216089   2.028   4.950   2.989  0.4398  0.0128 -3.3475
 1424TP3      O16090   1.455   0.389   0.857  0.2206  0.2176  0.6265
 1424TP3     H116091   1.381   0.405   0.799  0.2954  1.6416  0.8910
 1424TP3     H216092   1.416   0.373   0.943  0.1907  0.0918  0.5900
 1425TP3      O16093   1.192   0.725   9.911  0.3179  0.3726  0.2373
 1425TP3     H116094   1.100   0.726   9.937  0.0258 -2.0450 -0.4724
 1425TP3     H216095   1.233   0.791   9.967 -1.9866  2.3386 -0.1972
 1426TP3      O16096   2.555   3.621   0.106  0.1434 -0.0972 -0.0250
 1426TP3     H116097   2.543   3.665   0.022 -1.3177  0.8279  0.6179
 1426TP3     H216098   2.473   3.575   0.121  0.3510 -0.1826  0.9269
 1427TP3      O16099   3.061   0.242   9.221 -0.1908  0.1050 -0.4593
 1427TP3     H116100   2.979   0.255   9.270 -0.8748 -0.4886 -1.4151
 1427TP3     H216101   3.040   0.173   9.158  1.0167  0.0442 -0.8125
 1428TP3      O16102   2.609   2.156   0.445  0.5139  0.0294  0.2811
 1428TP3     H116103   2.619   2.078   0.499 -0.6162  0.0248  0.5049
 1428TP3     H216104   2.516   2.176   0.448  0.3580 -0.1209 -1.9015
 1429TP3      O16105   2.018   2.971   9.178  0.3194 -0.5796  0.0076
 1429TP3     H116106   2.099   3.014   9.205  0.9899 -1.9037  0.2069
 1429TP3     H216107   1.965   2.968   9.258  0.7677 -1.1729  0.2926
 1430TP3      O16108   4.168   4.082   9.519 -0.5892 -0.4358  0.2525
 1430TP3     H116109   4.260   4.077   9.492 -1.1411 -2.2647 -1.5999
 1430TP3     H216110   4.136   3.992   9.513 -1.9547 -0.2778  3.1912
 1431TP3      O16111   4.234   3.888  10.186  0.7124  0.1143  0.3127
 1431TP3     H116112   4.277   3.830  10.123  1.3223  0.8201  0.0518
 1431TP3     H216113   4.235   3.839  10.268  1.6770 -0.0516  0.2162
 1432TP3      O16114   2.666   5.221   8.376 -0.1390 -0.1363  0.2039
 1432TP3     H116115   2.638   5.239   8.466  1.0789  0.8411  0.4238
 1432TP3     H216116   2.722   5.295   8.354 -0.4720 -0.3362 -1.3973
 1433TP3      O16117   1.746   0.115   8.576 -0.3185  0.1320  0.1630
 1433TP3     H116118   1.798   0.193   8.554 -0.2576  0.1285  0.2893
 1433TP3     H216119   1.729   0.124   8.670  0.8827 -0.7091  0.4804
 1434TP3      O16120   1.316   0.856   2.414 -0.5025  0.0226  0.0702
 1434TP3     H116121   1.265   0.790   2.462  0.7247 -0.6294  0.5152
 1434TP3     H216122   1.292   0.939   2.455 -0.4141 -0.3997  0.9955
 1435TP3      O16123   0.819   4.117   1.361  0.2222  0.2992 -0.4086
 1435TP3     H116124   0.768   4.036   1.360 -2.0352  1.6332 -0.2176
 1435TP3     H216125   0.848   4.125   1.452 -1.4615  0.7587  0.1382
 1436TP3      O16126   2.439   5.014   6.629  0.2158  0.1332 -0.0747
 1436TP3     H116127   2.349   5.043   6.619 -0.3013 -1.1551  0.6161
 1436TP3     H216128   2.479   5.076   6.690 -0.2237  0.6534 -0.3140
 1437TP3      O16129   2.896   4.028  10.239 -0.1932 -0.7382  0.2542
 1437TP3     H116130   2.844   3.990  10.310 -1.3257  0.4732  0.1156
 1437TP3     H216131   2.843   4.013  10.160 -0.4021  0.5848  0.1224
 1438TP3      O16132   0.202   2.718   2.948 -0.3465  0.0904 -0.1939
 1438TP3     H116133   0.263   2.645   2.937 -2.1373 -1.8004  1.4444
 1438TP3     H216134   0.248   2.779   3.006  1.2651  0.4498 -1.7483
 1439TP3      O16135   0.696   3.228   1.646  0.0767  0.2026  0.7220
 1439TP3     H116136   0.669   3.292   1.711  0.8330  0.7303  0.5301
 1439TP3     H216137   0.632   3.237   1.575 -0.5056 -0.0886  1.2013
 1440TP3      O16138   4.996   2.001   3.125  0.2452  0.0840  0.6696
 1440TP3     H116139   5.009   1.994   3.220 -0.1077  1.3891  0.8319
 1440TP3     H216140   5.075   1.962   3.087  0.9807  0.6950  1.5188
 1441TP3      O16141   2.014   3.386   9.978  0.3864 -0.0091  0.3571
 1441TP3     H116142   2.090   3.439   9.954  1.5936 -1.4958  0.7709
 1441TP3     H216143   2.008   3.394  10.073  1.1413 -1.2863  0.5392
 1442TP3      O16144   3.755   5.187   9.726 -0.0858 -0.3471  0.2213
 1442TP3     H116145   3.809   5.149   9.657  0.4217  0.9375 -0.1211
 1442TP3     H216146   3.815   5.198   9.800 -0.0859  0.2758  0.1334
 1443TP3      O16147   4.249   1.238   1.697  0.1463 -0.5730  0.6536
 1443TP3     H116148   4.335   1.210   1.666  0.3093 -1.1722  1.5958
 1443TP3     H216149   4.189   1.171   1.665 -0.4405  1.2011 -2.2991
 1444TP3      O16150   3.146   1.141   0.444  0.6735 -0.2350  0.2747
 1444TP3     H116151   3.210   1.211   0.458  1.9540 -0.9969 -1.4414
 1444TP3     H216152   3.065   1.187   0.425  1.4515  0.8115 -0.6326
 1445TP3      O16153   0.820   4.071   6.630 -0.5296  0.3087  0.2262
 1445TP3     H116154   0.896   4.128   6.623 -0.7334  0.6873  0.9934
 1445TP3     H216155   0.837   4.017   6.708 -1.6739  1.3922  1.2778
 1446TP3      O16156   1.423   2.427   7.013 -0.2528  0.2666  0.2867
 1446TP3     H116157   1.421   2.522   7.006  0.9637  0.2194 -2.0082
 1446TP3     H216158   1.332   2.401   7.021 -0.6304  1.6032  0.5405
 1447TP3      O16159   1.551   1.043   8.548  0.1835  0.6021 -0.7136
 1447TP3     H116160   1.599   0.986   8.608 -0.3946  0.1183 -0.6951
 1447TP3     H216161   1.519   1.114   8.604  0.9745  0.9935 -0.7524
 1448TP3      O16162   1.691   4.867   0.570 -0.1302 -0.1493 -0.5240
 1448TP3     H116163   1.706   4.777   0.541  0.1117  0.6619 -3.2492
 1448TP3     H216164   1.634   4.858   0.647 -0.5941 -2.6094 -1.0542
 1449TP3      O16165   0.686   3.440   1.859 -0.4477 -0.6708 -0.4822
 1449TP3     H116166   0.641   3.519   1.887 -1.5765 -1.1432 -0.9019
 1449TP3     H216167   0.741   3.415   1.934 -1.8854 -0.8009  0.5588
 1450TP3      O16168   1.498   1.757   8.197  0.1902 -0.6421  0.0475
 1450TP3     H116169   1.583   1.744   8.239  0.0732 -0.7299  0.2579
 1450TP3     H216170   1.519   1.796   8.112  0.4041 -0.0393  0.3705
 1451TP3      O16171   2.399   2.735   0.568 -0.7050  0.5421  0.2280
 1451TP3     H116172   2.490   2.750   0.593 -0.5042 -0.4406  0.1297
 1451TP3     H216173   2.348   2.785   0.631 -0.1349  0.0368  1.1087
 1452TP3      O16174   0.362   5.189   0.575  0.2644  0.0741  0.3945
 1452TP3     H116175   0.284   5.185   0.630 -0.8977 -1.2910 -1.2585
 1452TP3     H216176   0.423   5.244   0.624 -0.7025 -1.0257  2.9889
 1453TP3      O16177   2.520   4.852   2.857 -0.3440  0.4609  0.1509
 1453TP3     H116178   2.475   4.770   2.836  0.6782 -0.0012 -0.3102
 1453TP3     H216179   2.513   4.860   2.952  0.3767 -0.6831  0.3260
 1454TP3      O16180   4.096   1.546   7.123  0.0499  0.5249 -0.7553
 1454TP3     H116181   4.021   1.603   7.138 -1.3969 -1.3690 -0.4315
 1454TP3     H216182   4.065   1.459   7.147  2.6736 -0.1925  0.3852
 1455TP3      O16183   2.683   3.037  10.064 -0.0789  0.1298  0.0685
 1455TP3     H116184   2.755   3.099  10.078  1.4300 -1.1390 -1.6964
 1455TP3     H216185   2.647   3.060   9.979  0.7656 -1.5957 -0.8074
 1456TP3      O16186   4.088   4.826   7.042  0.5177 -0.2661  0.2850
 1456TP3     H116187   4.122   4.738   7.061  4.9389  0.9951 -0.5982
 1456TP3     H216188   4.037   4.848   7.120  1.1112 -2.7717  1.5157
 1457TP3      O16189   3.893   0.687   3.501 -0.1188  0.0537  0.2384
 1457TP3     H116190   3.870   0.613   3.444  0.8894  0.4348 -0.6863
 1457TP3     H216191   3.978   0.663   3.539 -0.2937  0.2724  0.7856
 1458TP3      O16192   2.935   0.674   2.183  0.0211  0.2915 -0.2077
 1458TP3     H116193   2.862   0.685   2.244  0.8816 -0.2372  0.9503
 1458TP3     H216194   2.902   0.615   2.115 -0.4360 -0.4449  0.6422
 1459TP3      O16195   0.192   0.523   9.228  0.2985  0.2028  0.0701
 1459TP3     H116196   0.266   0.545   9.171 -0.6551 -0.7240 -1.6381
 1459TP3     H216197   0.155   0.607   9.253 -0.7965  0.7169 -2.8765
 1460TP3      O16198   1.721   0.088  10.254 -0.3422 -0.0072  0.2561
 1460TP3     H116199   1.762   0.043  10.328  1.0315 -1.1022 -1.0964
 1460TP3     H216200   1.770   0.169  10.245  1.2831 -1.0586 -1.0043
 1461TP3      O16201   1.563   0.570   9.003 -0.0728 -0.1237 -0.2532
 1461TP3     H116202   1.519   0.488   8.981  2.7065 -1.2951 -1.9818
 1461TP3     H216203   1.529   0.634   8.941 -1.7553 -0.0852  0.6611
 1462TP3      O16204   1.629   0.107   3.534  0.5203 -0.2379 -0.3947
 1462TP3     H116205   1.659   0.185   3.581 -0.2183 -0.6528  0.8049
 1462TP3     H216206   1.555   0.137   3.481  0.4227 -0.0616 -0.1593
 1463TP3      O16207   1.223   4.693   1.762  0.2655  0.1741 -0.3854
 1463TP3     H116208   1.255   4.779   1.790  0.5666  0.8041 -2.5135
 1463TP3     H216209   1.283   4.631   1.803  0.3404  0.9857  0.7899
 1464TP3      O16210   2.549   5.196   1.377  0.0369  0.1521  0.3169
 1464TP3     H116211   2.552   5.284   1.338 -0.8258  0.2655  0.4863
 1464TP3     H216212   2.530   5.138   1.303  0.8134  0.0734  0.1685
 1465TP3      O16213   0.610   1.367   0.827  0.1338  0.3246 -0.1894
 1465TP3     H116214   0.527   1.414   0.833  0.2199  0.7939 -2.1184
 1465TP3     H216215   0.586   1.275   0.822 -0.0938  0.1828  2.2311
 1466TP3      O16216   4.691   2.491   1.646 -0.6772  0.5161  0.0297
 1466TP3     H116217   4.740   2.492   1.729 -0.1058 -1.5025 -0.2322
 1466TP3     H216218   4.698   2.581   1.614 -0.5376  1.2428  1.9449
 1467TP3      O16219   0.374   3.308   0.113  0.0647  0.4901 -0.1159
 1467TP3     H116220   0.395   3.301   0.019 -0.2669  0.2182 -0.1692
 1467TP3     H216221   0.279   3.323   0.115 -0.1525 -0.8781  0.2334
 1468TP3      O16222   2.073   4.982   0.982  0.2116  0.5148  0.4946
 1468TP3     H116223   2.017   4.985   1.059  1.1493  2.2018  1.1481
 1468TP3     H216224   2.013   4.963   0.910 -0.4246 -3.2904  1.7960
 1469TP3      O16225   0.159   4.879   7.685 -0.0887  0.3327  0.2493
 1469TP3     H116226   0.135   4.955   7.737 -1.7193  0.0775 -0.0621
 1469TP3     H216227   0.076   4.849   7.646  0.9767  0.3870 -2.3104
 1470TP3      O16228   1.190   1.759   9.721 -0.3494  0.5088 -0.2777
 1470TP3     H116229   1.138   1.709   9.658  0.6975 -0.9535 -0.0487
 1470TP3     H216230   1.258   1.697   9.749  1.9307  2.5118 -1.0544
 1471TP3      O16231   2.117   2.065   0.062  0.1757  0.5348 -0.2467
 1471TP3     H116232   2.161   2.111  -0.010  0.2714  1.2589  0.2606
 1471TP3     H216233   2.178   2.072   0.135 -0.0337  0.0262 -0.0211
 1472TP3      O16234   5.156   1.438  10.287 -0.0683  0.3129 -0.5074
 1472TP3     H116235   5.155   1.342  10.281 -0.5493  0.3023 -0.3439
 1472TP3     H216236   5.064   1.461  10.302  0.2390  0.6953  0.9618
 1473TP3      O16237   0.352   1.034   8.517  0.4562 -0.5522  0.5833
 1473TP3     H116238   0.321   1.102   8.458  2.3886 -1.0278 -1.0945
 1473TP3     H216239   0.424   0.992   8.470  0.3972 -2.6954  2.2309
 1474TP3      O16240   0.384   3.685   8.106 -0.3182  0.0057  0.4531
 1474TP3     H116241   0.375   3.637   8.024  0.1586  2.7430 -1.3381
 1474TP3     H216242   0.476   3.673   8.130 -0.8699 -2.3515  1.7411
 1475TP3      O16243   4.503   1.067   2.281  1.0497  0.0447 -0.4743
 1475TP3     H116244   4.498   0.984   2.233  0.0964  0.4438 -1.0850
 1475TP3     H216245   4.568   1.051   2.350  0.2487 -1.4786 -0.0397
 1476TP3      O16246   3.155   1.379   3.616  0.6311 -0.0491  0.2407
 1476TP3     H116247   3.146   1.287   3.592  1.1840 -0.2536  0.7784
 1476TP3     H216248   3.219   1.414   3.553 -2.5328  1.0515 -2.6665
 1477TP3      O16249   5.010   1.242   1.804  0.0142 -0.1644 -0.1462
 1477TP3     H116250   5.091   1.223   1.757  0.2630 -1.4446  0.7465
 1477TP3     H216251   4.943   1.251   1.736  0.3120 -2.1849 -0.7620
 1478TP3      O16252   0.404   2.862   9.648 -0.1287  0.8407 -0.4008
 1478TP3     H116253   0.322   2.841   9.693 -0.2822  0.6770 -0.7484
 1478TP3     H216254   0.429   2.780   9.605  0.8459  0.5561  0.6737
 1479TP3      O16255   5.032   4.919   8.019 -0.2276 -0.3611 -0.1371
 1479TP3     H116256   4.992   5.003   7.997 -1.6316 -0.6042  1.2893
 1479TP3     H216257   5.080   4.935   8.100 -0.1483 -0.8322 -0.0884
 1480TP3      O16258   4.454   1.962   3.447 -0.4835  0.1519  0.0824
 1480TP3     H116259   4.380   2.022   3.450  1.3061  2.4769  0.4302
 1480TP3     H216260   4.521   2.003   3.502  1.4206 -1.3421 -0.9796
 1481TP3      O16261   3.513   0.362   0.473  0.0359  0.2556 -0.5555
 1481TP3     H116262   3.590   0.386   0.525 -1.6549  0.2793  2.1249
 1481TP3     H216263   3.516   0.266   0.471  0.0410  0.2488 -0.2931
 1482TP3      O16264   1.249   1.794   8.996 -0.1833  0.0327 -0.6376
 1482TP3     H116265   1.258   1.872   9.052  1.3972 -0.3008 -0.3586
 1482TP3     H216266   1.156   1.774   8.997 -0.4734  1.2945  0.1648
 1483TP3      O16267   3.975   0.998   7.873  0.0213  0.3851 -0.4269
 1483TP3     H116268   4.018   1.083   7.876  0.4339  0.2391 -1.5151
 1483TP3     H216269   3.892   1.015   7.827  0.0707  0.2131 -0.5812
 1484TP3      O16270   0.474   4.591   7.832  0.2321  0.3305 -0.3722
 1484TP3     H116271   0.502   4.670   7.787 -1.6759  1.9069  1.0302
 1484TP3     H216272   0.390   4.614   7.872 -0.0305 -2.1715  0.7454
 1485TP3      O16273   3.211   3.393   2.032 -0.0692 -0.1858  0.5604
 1485TP3     H116274   3.117   3.385   2.020  0.1297  0.0343 -1.4003
 1485TP3     H216275   3.221   3.447   2.110 -1.5677  0.4639  0.3275
 1486TP3      O16276   2.101   2.496   8.044  0.7260 -0.3171 -0.0170
 1486TP3     H116277   2.122   2.442   8.121 -0.4858 -0.3859  0.2919
 1486TP3     H216278   2.078   2.432   7.977  1.4656 -0.2440 -0.3513
 1487TP3      O16279   2.351   2.718   8.116 -0.8065  0.0642 -0.7611
 1487TP3     H116280   2.412   2.681   8.053 -0.9515 -0.4245 -0.6200
 1487TP3     H216281   2.282   2.758   8.063 -1.2674 -0.9098 -0.9210
 1488TP3      O16282   1.497   0.341   1.535 -0.3315 -0.0188  0.3935
 1488TP3     H116283   1.483   0.352   1.629 -0.8229  1.8174  0.1439
 1488TP3     H216284   1.583   0.381   1.520 -1.2542  1.7934 -0.2592
 1489TP3      O16285   4.067   3.581   0.037  0.2703  0.3804 -0.1141
 1489TP3     H116286   4.023   3.553  -0.044 -1.9201 -2.6958  1.9125
 1489TP3     H216287   4.150   3.534   0.036  0.1019  0.0729 -0.4408
 1490TP3      O16288   5.002   2.999   0.862  0.7202 -0.5140 -0.3683
 1490TP3     H116289   5.040   3.009   0.949  0.1906 -3.2734  0.2734
 1490TP3     H216290   4.907   2.998   0.877  0.6180 -0.9763 -0.9791
 1491TP3      O16291   1.312   2.540   8.379 -0.1900  0.3278  0.4722
 1491TP3     H116292   1.257   2.597   8.325 -2.4097 -2.9947 -1.1244
 1491TP3     H216293   1.257   2.520   8.455  0.7073  0.5376  1.1899
 1492TP3      O16294   0.125   4.911   9.477  0.0054  0.2852  0.3801
 1492TP3     H116295   0.207   4.870   9.451 -0.0727 -0.5275  1.3582
 1492TP3     H216296   0.056   4.853   9.445 -0.2082  1.0140 -0.5246
 1493TP3      O16297   5.010   3.382   1.779  0.2674 -0.0062  0.3678
 1493TP3     H116298   5.033   3.335   1.860 -1.2802 -0.7692  0.4100
 1493TP3     H216299   4.936   3.333   1.744 -0.5992  1.6907 -0.2783
 1494TP3      O16300   2.409   1.353   0.406 -0.1202 -0.0494 -0.2032
 1494TP3     H116301   2.395   1.421   0.471  0.2132  0.7460 -0.9409
 1494TP3     H216302   2.355   1.280   0.435  1.0641 -0.2393  1.7166
 1495TP3      O16303   0.483   0.838   0.561 -0.3936 -0.0310  0.3895
 1495TP3     H116304   0.554   0.786   0.600 -0.3808 -0.8486 -0.6865
 1495TP3     H216305   0.444   0.883   0.635  1.2856  0.4861  1.0161
 1496TP3      O16306   4.794   1.320   7.894 -0.2620 -0.4269 -0.0574
 1496TP3     H116307   4.851   1.306   7.970  0.8123 -1.2747 -0.9826
 1496TP3     H216308   4.822   1.404   7.859 -0.6570 -0.1054  0.3890
 1497TP3      O16309   3.184   2.612   1.738  0.6650  0.5979  0.5166
 1497TP3     H116310   3.152   2.685   1.792  0.2772  0.4658  0.4645
 1497TP3     H216311   3.237   2.560   1.798 -1.3646 -0.6491  1.3167
 1498TP3      O16312   4.461   1.698   7.996  0.0069  0.1716 -0.0852
 1498TP3     H116313   4.551   1.694   7.966  0.2516  1.2471  0.4438
 1498TP3     H216314   4.465   1.750   8.076 -0.9833 -0.4036  0.3552
 1499TP3      O16315   2.351   1.624   2.150  0.0890  0.1972  0.3831
 1499TP3     H116316   2.318   1.554   2.092  2.4403 -0.3687 -0.3888
 1499TP3     H216317   2.425   1.584   2.195  1.1947  2.0346  0.2886
 1500TP3      O16318   3.119   3.581   9.398 -0.3855 -0.0610  0.0497
 1500TP3     H116319   3.049   3.527   9.436 -2.5263  0.8646 -2.2873
 1500TP3     H216320   3.169   3.612   9.474 -2.0319 -1.3981  1.7881
 1501TP3      O16321   3.953   2.397   7.574  0.3548  0.6641  0.0730
 1501TP3     H116322   3.936   2.454   7.648 -1.4230  2.6650 -1.7253
 1501TP3     H216323   3.950   2.455   7.498 -0.0294 -1.5807 -1.7532
 1502TP3      O16324   2.959   3.376   9.553 -0.1064  0.5855 -0.1280
 1502TP3     H116325   2.921   3.422   9.627  1.4970  0.7484  0.6519
 1502TP3     H216326   2.961   3.284   9.580 -0.9443  0.4223 -0.6164
 1503TP3      O16327   4.155   3.413   3.288 -0.6970  0.1007 -0.4026
 1503TP3     H116328   4.176   3.354   3.361 -1.7931  0.9538  0.6472
 1503TP3     H216329   4.239   3.432   3.247 -0.1976 -1.3236 -0.0959
 1504TP3      O16330   2.817   0.017   8.084 -0.5289  0.1143 -0.0568
 1504TP3     H116331   2.783   0.102   8.056  0.8666  0.3853 -1.0733
 1504TP3     H216332   2.823  -0.034   8.004 -0.2767 -0.5390  0.3723
 1505TP3      O16333   1.163   3.783   9.725  0.2260 -0.4112 -0.0948
 1505TP3     H116334   1.185   3.865   9.768 -1.2973 -0.5346  0.9893
 1505TP3     H216335   1.092   3.805   9.665 -1.2716 -1.1583  1.3275
 1506TP3      O16336   2.263   3.086   8.471  0.6657  0.4810 -0.3731
 1506TP3     H116337   2.179   3.041   8.461  1.6536 -1.6646  0.4470
 1506TP3     H216338   2.324   3.035   8.419  1.4914  2.0095 -0.9537
 1507TP3      O16339   5.091   4.203   8.559  0.7980 -0.4645  0.4649
 1507TP3     H116340   5.049   4.197   8.645  0.8603 -2.5255  0.3957
 1507TP3     H216341   5.149   4.279   8.566  0.7910 -0.5801  2.2443
 1508TP3      O16342   4.572   1.183   1.007  0.3239 -0.4012  0.4158
 1508TP3     H116343   4.588   1.132   1.087  0.0690 -0.6092  0.3344
 1508TP3     H216344   4.478   1.200   1.008  0.0416 -1.7039 -0.6131
 1509TP3      O16345   3.201   4.765   1.311  0.2835 -0.2237  0.1292
 1509TP3     H116346   3.263   4.697   1.340  1.2161  1.3578  2.1086
 1509TP3     H216347   3.164   4.731   1.229  2.1770 -2.1974  0.0098
 1510TP3      O16348   4.089   2.947   9.549 -0.2810  0.1118  0.3222
 1510TP3     H116349   4.074   2.942   9.455 -0.5541  1.1204  0.3083
 1510TP3     H216350   4.185   2.952   9.558 -0.0111 -2.9039  0.2676
 1511TP3      O16351   2.374   0.796   8.433  0.0128  0.5707  0.3056
 1511TP3     H116352   2.310   0.728   8.455  0.7780  0.1594  1.3754
 1511TP3     H216353   2.326   0.857   8.378 -0.4108 -1.4025 -1.6595
 1512TP3      O16354   1.451   4.148   8.442 -0.4023 -0.1001  0.0886
 1512TP3     H116355   1.369   4.157   8.392 -0.5485 -0.4603  0.2627
 1512TP3     H216356   1.443   4.064   8.486  0.1253 -0.1965 -0.0007
 1513TP3      O16357   4.528   2.390   8.940 -0.1632  0.3374  0.0064
 1513TP3     H116358   4.497   2.329   9.007 -1.4360  2.2920  1.2899
 1513TP3     H216359   4.623   2.376   8.938 -0.4220 -1.8284  0.0464
 1514TP3      O16360   0.543   2.298   1.167 -0.3150 -0.4596  0.5476
 1514TP3     H116361   0.540   2.254   1.251  0.2316 -0.5764  0.5111
 1514TP3     H216362   0.570   2.231   1.105  0.9635  0.0150  0.5683
 1515TP3      O16363   2.243   5.001   1.891  0.6997  0.1681  0.2581
 1515TP3     H116364   2.287   4.950   1.823  1.5010  2.3120 -0.9476
 1515TP3     H216365   2.157   4.961   1.900  0.9870 -0.8591 -1.2320
 1516TP3      O16366   0.781   5.113   2.541 -0.7160 -0.0248  0.0708
 1516TP3     H116367   0.817   5.104   2.453 -0.3464  0.0558  0.2123
 1516TP3     H216368   0.687   5.096   2.531 -0.6903  0.0889 -0.3528
 1517TP3      O16369   2.066   3.688   0.911 -0.3435 -0.3012  0.2540
 1517TP3     H116370   2.047   3.642   0.993 -2.5055  0.6499  0.3475
 1517TP3     H216371   2.121   3.761   0.937  0.2373 -0.8555  0.6152
 1518TP3      O16372   0.690   0.267   9.655  0.3617 -0.1077 -0.0412
 1518TP3     H116373   0.716   0.180   9.628 -1.4736 -0.8323  0.3433
 1518TP3     H216374   0.756   0.294   9.719  0.7964 -1.3386  0.0407
 1519TP3      O16375   0.333   5.028   1.095  0.0763  0.1462  0.4575
 1519TP3     H116376   0.293   4.943   1.115 -0.9380  0.3789 -0.5078
 1519TP3     H216377   0.381   5.051   1.175 -1.1568 -0.4762  1.4163
 1520TP3      O16378   2.297   5.074   9.769 -0.5256 -0.2093  0.5579
 1520TP3     H116379   2.221   5.090   9.712 -0.1936 -0.6409 -0.0175
 1520TP3     H216380   2.316   5.159   9.808 -1.0122  0.0060  0.3388
 1521TP3      O16381   0.375   3.517   7.350  0.2589 -0.3342 -0.2107
 1521TP3     H116382   0.461   3.494   7.318 -0.3538 -1.5392 -1.0644
 1521TP3     H216383   0.314   3.481   7.285 -0.8414  3.2508 -1.4087
 1522TP3      O16384   1.307   3.671   9.350 -0.2465  0.4944 -0.1017
 1522TP3     H116385   1.215   3.679   9.324 -0.4019  0.8678  0.5309
 1522TP3     H216386   1.328   3.757   9.387  0.0876  0.1115  0.6085
 1523TP3      O16387   4.628   1.974   2.085  0.6152  0.0411 -0.2012
 1523TP3     H116388   4.626   2.033   2.160  0.1390  0.0483 -0.2172
 1523TP3     H216389   4.537   1.968   2.057  0.9317  0.9278 -1.4828
 1524TP3      O16390   0.514   1.874   9.388 -0.0476  0.6093  0.5303
 1524TP3     H116391   0.471   1.855   9.471 -1.9485  2.7196  0.1460
 1524TP3     H216392   0.536   1.967   9.394 -1.0367  1.0457 -1.6171
 1525TP3      O16393   2.350   1.609  10.377  0.1333 -0.2306  0.5553
 1525TP3     H116394   2.379   1.553  10.448  2.1159 -0.0356 -0.0545
 1525TP3     H216395   2.372   1.698  10.405 -0.0585 -0.0476  0.1468
 1526TP3      O16396   1.985   1.418   2.468  0.0714 -0.6467  0.1572
 1526TP3     H116397   1.910   1.371   2.503 -0.1429 -0.1911  0.3230
 1526TP3     H216398   1.963   1.511   2.481  0.5021 -0.5022 -0.1201
 1527TP3      O16399   3.266   4.719   6.876  0.1252 -0.4096 -0.6761
 1527TP3     H116400   3.208   4.740   6.803 -1.7483  1.0539  1.1341
 1527TP3     H216401   3.300   4.803   6.905  0.4385 -0.9096  0.4479
 1528TP3      O16402   2.076   0.131   2.147 -0.4295  0.1966 -0.1745
 1528TP3     H116403   2.033   0.203   2.192  0.2320  0.5117 -0.0388
 1528TP3     H216404   2.123   0.084   2.215  0.8927  0.9031 -0.5675
 1529TP3      O16405   4.860   3.002   1.494  0.0792  0.1392  0.2300
 1529TP3     H116406   4.903   3.047   1.422  1.0695  0.6729  1.1373
 1529TP3     H216407   4.835   3.071   1.556 -2.2198 -0.1248 -0.2927
 1530TP3      O16408   2.999   3.292   0.847 -0.0437  0.2350  0.5699
 1530TP3     H116409   3.071   3.315   0.787  0.4292  0.6539  1.2841
 1530TP3     H216410   2.925   3.273   0.789  0.7878 -0.7658 -0.2043
 1531TP3      O16411   2.337   4.939   0.960 -0.0608  0.5821 -0.4779
 1531TP3     H116412   2.248   4.959   0.989  0.1753 -1.4801  2.1462
 1531TP3     H216413   2.328   4.861   0.906  0.1708 -0.3271  0.7356
 1532TP3      O16414   0.601   2.196  10.202  0.2590 -0.1099 -0.2257
 1532TP3     H116415   0.659   2.133  10.247  1.0834  1.1225  0.5130
 1532TP3     H216416   0.636   2.201  10.113  1.1327  0.3942  0.1301
 1533TP3      O16417   2.804   4.111   8.432 -0.0647  0.3680  0.3580
 1533TP3     H116418   2.719   4.147   8.457  0.1431  1.9337 -1.0024
 1533TP3     H216419   2.784   4.056   8.356  0.1826  1.3516 -0.4539
 1534TP3      O16420   3.257   0.522   3.109 -0.6099 -0.0215  0.0676
 1534TP3     H116421   3.284   0.613   3.120 -0.1403 -0.0438 -0.8088
 1534TP3     H216422   3.322   0.472   3.159 -0.6702  0.0978  0.2688
 1535TP3      O16423   1.949   1.378   9.067 -0.1004  0.3068  0.2542
 1535TP3     H116424   1.866   1.416   9.040  0.4940  2.1870  0.8765
 1535TP3     H216425   1.974   1.428   9.145  0.7727 -1.4047  1.1240
 1536TP3      O16426   4.371   2.873   1.731 -0.0621  0.4425  0.6056
 1536TP3     H116427   4.445   2.929   1.757  0.4057 -0.1431  0.5488
 1536TP3     H216428   4.383   2.793   1.782 -0.2706  0.0724  0.0815
 1537TP3      O16429   0.347   4.790   2.340  0.0194 -0.1425  0.2257
 1537TP3     H116430   0.349   4.728   2.267 -0.9570 -1.5656  1.3404
 1537TP3     H216431   0.291   4.861   2.309  0.7427 -0.0240 -0.8921
 1538TP3      O16432   1.468   2.032   7.756 -0.1050 -0.6085  0.1418
 1538TP3     H116433   1.437   2.067   7.672  0.1573 -1.8266 -0.4786
 1538TP3     H216434   1.446   2.100   7.820 -0.1626  0.4128 -0.9322
 1539TP3      O16435   1.067   1.094   3.539  0.0930  0.8600 -0.5421
 1539TP3     H116436   1.020   1.144   3.606  0.7146 -1.0080  1.4023
 1539TP3     H216437   1.117   1.030   3.588  0.6482 -0.5697 -2.8314
 1540TP3      O16438   2.326   2.661   9.811  0.1386  0.6518  0.1064
 1540TP3     H116439   2.275   2.703   9.880 -0.9991 -1.0135  0.3401
 1540TP3     H216440   2.337   2.571   9.841  1.1543  0.3532 -1.0789
 1541TP3      O16441   2.835   4.290   0.064  0.1654  0.3666  0.3527
 1541TP3     H116442   2.774   4.252   0.001 -0.6634  1.0304  0.7328
 1541TP3     H216443   2.786   4.362   0.104  0.2372 -0.7195  2.5518
 1542TP3      O16444   4.580   4.358  10.089 -0.2029 -0.4464 -0.3200
 1542TP3     H116445   4.659   4.388  10.134 -1.2668  1.0460  0.6373
 1542TP3     H216446   4.575   4.412  10.011  0.0177 -0.9423 -0.6830
 1543TP3      O16447   2.010   4.521   2.159  0.1608  0.5745  0.4542
 1543TP3     H116448   2.087   4.545   2.210  0.2392  2.4022 -0.4039
 1543TP3     H216449   1.936   4.538   2.218  0.3383  0.8010  0.6152
 1544TP3      O16450   1.572   0.100   0.614 -0.1613 -0.3898 -0.0598
 1544TP3     H116451   1.477   0.106   0.603 -0.0206  0.6372 -0.9440
 1544TP3     H216452   1.589   0.148   0.696 -0.3476  0.0401 -0.2668
 1545TP3      O16453   0.422   1.404   8.763 -0.0039 -0.0732  0.2840
 1545TP3     H116454   0.457   1.353   8.690 -0.5669 -0.9585  0.6180
 1545TP3     H216455   0.487   1.393   8.833 -0.6758 -1.2923  0.7337
 1546TP3      O16456   2.230   0.144   9.087  0.0178 -0.7657 -0.2010
 1546TP3     H116457   2.157   0.166   9.030 -0.1905 -3.4196 -1.0845
 1546TP3     H216458   2.226   0.208   9.158 -1.5760  0.7211 -1.5707
 1547TP3      O16459   1.060   4.612   7.696 -0.0500 -0.1752  0.7586
 1547TP3     H116460   1.025   4.693   7.657 -0.1422 -0.6395 -0.1551
 1547TP3     H216461   0.984   4.571   7.738  0.0619  0.3584  1.5131
 1548TP3      O16462   3.455   1.241   8.984 -0.0141  0.4603 -0.0448
 1548TP3     H116463   3.481   1.151   8.963 -0.2942  0.5598 -0.8231
 1548TP3     H216464   3.386   1.231   9.050  1.1520  0.1633  1.1733
 1549TP3      O16465   4.742   4.654  10.406 -0.4840  0.3023  0.3252
 1549TP3     H116466   4.787   4.717  10.462  1.7937  1.0591 -2.1642
 1549TP3     H216467   4.654   4.649  10.442  0.4407  1.7711  3.0750
 1550TP3      O16468   0.845   2.072   7.195 -0.0724 -0.4894 -0.2094
 1550TP3     H116469   0.753   2.100   7.190  0.5500  1.5117 -1.3304
 1550TP3     H216470   0.895   2.153   7.192  1.7511 -1.3886  2.3410
 1551TP3      O16471   4.878   2.469   8.495  0.2885  0.3870  0.1692
 1551TP3     H116472   4.855   2.389   8.542 -2.3329 -0.4571 -2.2752
 1551TP3     H216473   4.808   2.531   8.516  0.2755  0.7392 -0.8633
 1552TP3      O16474   3.620   0.322   1.867  0.0466  0.3359 -0.3133
 1552TP3     H116475   3.629   0.367   1.783 -0.6048  0.1973 -0.4662
 1552TP3     H216476   3.705   0.333   1.909  1.1987 -1.6129 -1.9739
 1553TP3      O16477   1.285   4.523   0.774  0.0345  0.0201  0.1928
 1553TP3     H116478   1.305   4.435   0.742  1.1443  0.3250 -0.0081
 1553TP3     H216479   1.248   4.509   0.861 -0.7956 -0.6941 -0.2524
 1554TP3      O16480   4.290   5.149   2.469  0.1767  0.4353  0.0971
 1554TP3     H116481   4.295   5.243   2.452  0.4133  0.6381  1.2084
 1554TP3     H216482   4.378   5.125   2.496 -0.4625  0.4427  2.3858
 1555TP3      O16483   2.114   2.092   8.318 -0.3523  0.4931 -0.6728
 1555TP3     H116484   2.032   2.070   8.363  0.3225  0.0131  0.3812
 1555TP3     H216485   2.179   2.034   8.359  0.4323  0.5487 -1.8028
 1556TP3      O16486   3.247   1.186   9.154 -0.4217  0.1993 -0.3707
 1556TP3     H116487   3.247   1.092   9.139 -1.2439  0.0755  0.3748
 1556TP3     H216488   3.193   1.199   9.232 -0.8039  1.3368 -0.7986
 1557TP3      O16489   2.488   3.230   8.204 -0.0602 -0.4581  0.5987
 1557TP3     H116490   2.524   3.318   8.192  1.8327 -1.0766  1.2631
 1557TP3     H216491   2.399   3.235   8.170  0.2342  1.5292 -0.0012
 1558TP3      O16492   0.628   0.265   2.364  0.0551 -0.2723  0.2496
 1558TP3     H116493   0.626   0.311   2.448 -0.5812 -0.3170  0.2627
 1558TP3     H216494   0.546   0.290   2.321 -0.1833 -1.1962  0.1543
 1559TP3      O16495   1.014   3.821   7.932 -0.1085 -0.4371  0.0723
 1559TP3     H116496   0.940   3.876   7.954 -0.4962 -0.4990 -1.0121
 1559TP3     H216497   0.986   3.773   7.854  0.7775 -1.0463  0.1135
 1560TP3      O16498   5.199   1.925   0.333 -0.0714 -0.0142 -0.6144
 1560TP3     H116499   5.205   1.883   0.419 -0.6305 -1.3543 -1.1945
 1560TP3     H216500   5.107   1.914   0.308 -0.2423  1.6082 -0.7989
 1561TP3      O16501   1.390   5.218   8.743  0.6292  0.6238  0.5139
 1561TP3     H116502   1.480   5.236   8.770  0.2017 -0.1122  2.5645
 1561TP3     H216503   1.391   5.126   8.717  0.2013  0.2025  1.9080
 1562TP3      O16504   4.187   5.162   1.558 -0.6642 -0.3977  0.2219
 1562TP3     H116505   4.262   5.221   1.559 -0.4436 -0.6746  1.3292
 1562TP3     H216506   4.111   5.220   1.546 -0.4014  0.0601  0.7326
 1563TP3      O16507   3.366   2.770   9.233  0.2342 -0.6619 -0.0133
 1563TP3     H116508   3.436   2.803   9.290  1.1998  0.8811 -1.9886
 1563TP3     H216509   3.311   2.717   9.291  2.0841 -0.5345  1.9679
 1564TP3      O16510   2.040   3.126   9.900 -0.3545 -0.2109 -0.3249
 1564TP3     H116511   2.031   3.218   9.925 -0.2862 -0.6576  1.4764
 1564TP3     H216512   1.968   3.082   9.944  0.5684 -1.2598  0.1887
 1565TP3      O16513   3.403   4.662   7.811 -0.9486 -0.9467 -0.0339
 1565TP3     H116514   3.390   4.746   7.767  0.1992  0.4120  2.0391
 1565TP3     H216515   3.396   4.597   7.741 -0.9489  0.9347 -1.8873
 1566TP3      O16516   3.085   5.132   7.557  0.0498  0.2659 -0.3730
 1566TP3     H116517   3.084   5.158   7.465 -0.5841  0.3183 -0.3546
 1566TP3     H216518   3.053   5.041   7.556  1.3138 -0.2060 -0.3362
 1567TP3      O16519   4.125   0.829   8.392 -0.4064  0.0472 -0.1830
 1567TP3     H116520   4.198   0.839   8.332 -1.1138 -0.1917 -1.1078
 1567TP3     H216521   4.063   0.898   8.367  0.0344  1.0750  1.4203
 1568TP3      O16522   2.409   3.972   8.961 -0.0364  0.1949  0.1717
 1568TP3     H116523   2.359   3.940   9.036  0.6328  0.5074  0.7696
 1568TP3     H216524   2.376   4.061   8.947 -0.2025  0.1155  0.0613
 1569TP3      O16525   1.871   2.779   2.852  0.6499 -0.7726  0.2929
 1569TP3     H116526   1.955   2.825   2.854 -0.1640  1.0774 -2.6941
 1569TP3     H216527   1.871   2.732   2.769 -2.0197  1.0382 -0.8778
 1570TP3      O16528   3.280   4.871   0.134  0.5523 -0.1313 -0.1635
 1570TP3     H116529   3.278   4.859   0.229 -1.1248 -0.8416 -0.2708
 1570TP3     H216530   3.350   4.936   0.120  1.1723 -0.3963  1.4898
 1571TP3      O16531   4.715   4.195   0.005 -0.0490  0.4591 -0.5058
 1571TP3     H116532   4.723   4.125  -0.060 -0.7612  0.9167 -1.0997
 1571TP3     H216533   4.621   4.213   0.009  0.0590  0.8913  0.1712
 1572TP3      O16534   0.118   0.038   1.958 -0.2756  0.2533  0.4009
 1572TP3     H116535   0.114   0.131   1.982 -0.1085  0.5894 -0.7889
 1572TP3     H216536   0.026   0.012   1.949 -0.3135  0.6051 -0.3146
 1573TP3      O16537   3.000   1.158   3.064  0.1336 -0.1366  0.1893
 1573TP3     H116538   3.091   1.130   3.070  0.5973  1.4571  1.0763
 1573TP3     H216539   2.952   1.078   3.045  1.7064 -1.0170 -0.2590
 1574TP3      O16540   4.257   2.229   7.180 -0.6562 -0.3746 -0.4763
 1574TP3     H116541   4.161   2.230   7.185 -0.6948 -3.0504  0.8739
 1574TP3     H216542   4.276   2.204   7.090 -1.1800  0.4570 -0.8370
 1575TP3      O16543   3.682   3.396   8.545  0.7042  0.5805 -0.1869
 1575TP3     H116544   3.640   3.313   8.521  1.1910 -0.4189  2.1727
 1575TP3     H216545   3.609   3.457   8.553 -0.1278 -0.5642  1.5984
 1576TP3      O16546   4.270   1.436   9.902 -0.8054 -0.1872 -0.6658
 1576TP3     H116547   4.267   1.529   9.878  0.3142 -0.1288 -0.6193
 1576TP3     H216548   4.178   1.412   9.913 -1.0621  1.7266  2.5785
 1577TP3      O16549   0.841   1.474   0.944 -0.3866  0.6082  0.1180
 1577TP3     H116550   0.823   1.423   1.023 -0.1061 -0.7736 -0.6790
 1577TP3     H216551   0.772   1.448   0.883  0.1714  0.6499 -0.5384
 1578TP3      O16552   1.372   1.326   7.862 -0.1235 -0.2523  0.5495
 1578TP3     H116553   1.449   1.364   7.904 -0.1652  0.2532  0.1850
 1578TP3     H216554   1.305   1.394   7.868 -0.6723 -0.8450  1.2232
 1579TP3      O16555   3.299   1.586   9.883 -0.0145  0.5465 -0.0353
 1579TP3     H116556   3.277   1.588   9.790 -1.1279  1.5101  0.2214
 1579TP3     H216557   3.255   1.509   9.916  0.3762  0.2057 -0.2918
 1580TP3      O16558   0.452   1.233   7.585 -0.2678  0.6033  0.3995
 1580TP3     H116559   0.546   1.221   7.589 -0.3578  0.1117  3.8519
 1580TP3     H216560   0.434   1.306   7.644 -2.1542 -0.6688  1.5267
 1581TP3      O16561   0.097   4.111   1.884  0.9873  0.1779 -0.0976
 1581TP3     H116562   0.105   4.138   1.976  0.2973 -0.4200  0.1522
 1581TP3     H216563   0.058   4.023   1.889 -0.8498  0.9035 -1.0179
 1582TP3      O16564   0.465   0.453   2.970  0.4007  0.2256  0.0556
 1582TP3     H116565   0.394   0.472   3.032  0.5271  0.4111  0.1448
 1582TP3     H216566   0.490   0.363   2.990  2.3195  1.1323  2.2011
 1583TP3      O16567   0.152   3.259   6.609  0.2947  0.1966 -0.2724
 1583TP3     H116568   0.145   3.238   6.516  1.1055  0.7094 -0.4550
 1583TP3     H216569   0.221   3.326   6.614 -1.3836  1.9985  0.3932
 1584TP3      O16570   1.522   0.233   2.330 -0.3082  0.0876 -0.0285
 1584TP3     H116571   1.438   0.277   2.315 -0.0779  1.1493  1.5150
 1584TP3     H216572   1.558   0.277   2.407  0.9858 -1.3410  0.2310
 1585TP3      O16573   1.556   1.512   7.929  0.2750 -0.6239  0.0349
 1585TP3     H116574   1.571   1.508   8.023  0.4931 -0.7148 -0.0015
 1585TP3     H216575   1.643   1.528   7.892  0.2092 -0.7047 -0.1584
 1586TP3      O16576   2.712   1.121   2.729 -0.5988  0.3333  0.5996
 1586TP3     H116577   2.684   1.126   2.638  0.0427  0.4463  0.4070
 1586TP3     H216578   2.632   1.099   2.777 -0.5640 -1.7297 -0.2091
 1587TP3      O16579   2.284   2.670   8.384  0.4347  0.9700 -0.1749
 1587TP3     H116580   2.316   2.586   8.416 -0.8914  0.9629  1.2704
 1587TP3     H216581   2.321   2.678   8.296  1.6823 -0.4843  0.1717
 1588TP3      O16582   4.166   4.668   2.040  0.0150 -0.2373  0.1256
 1588TP3     H116583   4.180   4.574   2.053 -0.3703 -0.3607 -0.2858
 1588TP3     H216584   4.128   4.674   1.952  0.5566  0.3576 -0.0756
 1589TP3      O16585   4.382   2.640   1.115 -0.4264 -0.0234  0.2376
 1589TP3     H116586   4.430   2.589   1.180 -1.2247  0.3186  1.1215
 1589TP3     H216587   4.290   2.628   1.139 -0.7275  0.2052 -0.7660
 1590TP3      O16588   4.267   0.095   7.476 -0.4467 -0.2956 -0.0660
 1590TP3     H116589   4.221   0.027   7.427  0.7884 -1.9313  0.9381
 1590TP3     H216590   4.349   0.109   7.428 -0.8005  0.6786 -0.4030
 1591TP3      O16591   1.792   4.234   7.620 -0.6262 -0.0624  0.3484
 1591TP3     H116592   1.861   4.248   7.556  1.1580 -2.1687  1.6845
 1591TP3     H216593   1.726   4.299   7.598  1.5325  1.7248 -1.3103
 1592TP3      O16594   4.511   4.776   9.052  0.3173 -0.4635 -0.3722
 1592TP3     H116595   4.551   4.689   9.044 -0.5215 -1.2176  2.3217
 1592TP3     H216596   4.583   4.833   9.082  0.2115 -1.0040  0.9851
 1593TP3      O16597   3.154   2.504   1.169  0.2467 -0.1815  0.2575
 1593TP3     H116598   3.118   2.503   1.080  0.8963  0.9183 -0.0292
 1593TP3     H216599   3.158   2.596   1.192 -0.6492 -0.4756  1.7500
 1594TP3      O16600   4.884   0.571   1.685 -0.1814  0.1672  0.2293
 1594TP3     H116601   4.864   0.500   1.745  0.1351  0.2685  0.4581
 1594TP3     H216602   4.889   0.529   1.599 -1.1736  0.1154  0.1921
 1595TP3      O16603   2.111   2.200   9.520  0.3916 -0.2015  0.5367
 1595TP3     H116604   2.023   2.236   9.521  0.7377  0.6817  1.5792
 1595TP3     H216605   2.157   2.247   9.590  1.4176 -1.3191  0.6533
 1596TP3      O16606   3.833   1.855   0.970 -0.4464  0.5125 -0.0892
 1596TP3     H116607   3.915   1.805   0.974  0.6660  2.2733  1.0334
 1596TP3     H216608   3.775   1.810   1.031  0.6893  0.8022  1.2797
 1597TP3      O16609   0.508   1.757   1.500  0.5706  0.2542  0.0511
 1597TP3     H116610   0.597   1.743   1.531  0.7797 -0.1575 -0.7000
 1597TP3     H216611   0.473   1.668   1.489  0.1172  0.4107  0.2021
 1598TP3      O16612   0.008   3.871   9.114  0.0792 -0.3064 -0.2808
 1598TP3     H116613   0.006   3.966   9.121  0.7099 -0.2932 -0.1974
 1598TP3     H216614   0.085   3.853   9.060  1.8083 -0.8927  2.2482
 1599TP3      O16615   0.376   4.763  10.406 -0.2871  0.1253  0.4745
 1599TP3     H116616   0.371   4.801  10.493 -0.0651  0.2979  0.4115
 1599TP3     H216617   0.361   4.670  10.420  1.9710 -0.2070  0.9787
 1600TP3      O16618   3.784   4.057   8.160  0.8123  0.7762 -0.0162
 1600TP3     H116619   3.814   4.143   8.189 -0.1287  0.7820  0.9898
 1600TP3     H216620   3.715   4.075   8.097  2.8052  0.7615 -2.3880
 1601TP3      O16621   0.244   3.072   7.577 -0.4629  0.3753 -0.4415
 1601TP3     H116622   0.218   2.980   7.576 -0.4990  0.3872 -0.6683
 1601TP3     H216623   0.330   3.074   7.536 -0.8068  0.5388 -1.1928
 1602TP3      O16624   3.222   1.993  10.161 -0.2106 -0.8644 -0.1600
 1602TP3     H116625   3.252   2.069  10.212 -0.4668 -0.3303 -0.7999
 1602TP3     H216626   3.294   1.930  10.170 -0.4985 -1.0238  1.3493
 1603TP3      O16627   5.147   0.921   9.169  0.2737 -0.4913  0.5071
 1603TP3     H116628   5.118   1.012   9.173  0.6003 -0.2529 -1.5101
 1603TP3     H216629   5.097   0.877   9.237 -1.7874  0.7114 -0.1489
 1604TP3      O16630   2.871   4.168   9.809 -0.5279 -0.2319  0.4569
 1604TP3     H116631   2.833   4.255   9.801  1.4188  0.5282 -1.9129
 1604TP3     H216632   2.806   4.109   9.770 -0.3780  0.7087 -1.3291
 1605TP3      O16633   2.829   2.980   8.911 -0.0895 -0.4873 -0.0072
 1605TP3     H116634   2.772   3.016   8.843 -1.9726 -0.8300  1.3205
 1605TP3     H216635   2.885   3.054   8.937 -1.4460  0.5112  0.1762
 1606TP3      O16636   3.899   4.945   7.200 -0.1095  0.2387  0.5422
 1606TP3     H116637   3.938   4.906   7.278 -0.7869  1.8418  1.7316
 1606TP3     H216638   3.900   5.039   7.217 -1.2106  0.5567 -0.9489
 1607TP3      O16639   0.231   4.013   9.887 -0.8438 -0.2084  0.0219
 1607TP3     H116640   0.250   3.937   9.943  0.7372 -0.8563 -1.2988
 1607TP3     H216641   0.270   4.087   9.934  1.8706 -0.9754 -0.8418
 1608TP3      O16642   2.245   2.388   0.115 -0.7288 -0.4277  0.6535
 1608TP3     H116643   2.182   2.336   0.164 -0.7666  0.8243  2.0261
 1608TP3     H216644   2.252   2.470   0.165  1.2320 -0.1428  0.0007
 1609TP3      O16645   3.247   4.722   8.434  0.3638  0.2768 -0.1378
 1609TP3     H116646   3.228   4.683   8.519 -1.5115 -2.2947 -1.5940
 1609TP3     H216647   3.296   4.655   8.387  4.2292  2.8325 -0.1623
 1610TP3      O16648   1.137   1.269   3.323  0.2898  0.5842 -0.1250
 1610TP3     H116649   1.111   1.212   3.396 -0.5790 -1.0091 -1.6118
 1610TP3     H216650   1.219   1.231   3.292 -0.0538  0.4231 -0.8387
 1611TP3      O16651   4.538   4.637   7.159 -0.7468  0.0371 -0.2153
 1611TP3     H116652   4.503   4.562   7.206  1.3358 -0.8333  0.0600
 1611TP3     H216653   4.632   4.621   7.155 -0.5099  1.5212 -2.1609
 1612TP3      O16654   2.870   0.934   2.998  0.0750 -0.2020 -0.3287
 1612TP3     H116655   2.798   0.913   3.057  0.1659  1.1655  0.2893
 1612TP3     H216656   2.923   0.854   2.997 -0.2847 -0.4729  0.9205
 1613TP3      O16657   4.095   2.851   1.862 -0.6154 -0.1426  0.2423
 1613TP3     H116658   4.112   2.945   1.867  1.1778 -0.3765 -0.7227
 1613TP3     H216659   4.006   2.845   1.827 -0.4117  1.1915 -0.5822
 1614TP3      O16660   4.004   3.177   0.731  0.3270 -0.0692  0.1647
 1614TP3     H116661   4.080   3.121   0.713 -0.2749 -0.7015 -0.4370
 1614TP3     H216662   4.042   3.258   0.766  1.2560 -0.5218  0.2345
 1615TP3      O16663   2.147   4.839   2.996  0.6231  0.2635 -0.1588
 1615TP3     H116664   2.205   4.834   2.921  0.2466 -0.4032 -0.4139
 1615TP3     H216665   2.179   4.771   3.056 -0.1914 -0.4589 -0.5247
 1616TP3      O16666   2.931   0.201   2.005  0.3260 -0.2442 -0.2818
 1616TP3     H116667   2.935   0.130   1.941 -1.1966  0.4767 -1.2371
 1616TP3     H216668   2.846   0.242   1.990  2.1663  3.5224 -1.6799
 1617TP3      O16669   3.028   4.428  10.308 -0.8165  0.3732  0.1892
 1617TP3     H116670   3.087   4.474  10.368 -1.5763  1.3015  0.2519
 1617TP3     H216671   2.971   4.377  10.365  0.5382 -1.3518  0.0899
 1618TP3      O16672   1.044   1.609   9.529  0.6655  0.4037  0.1368
 1618TP3     H116673   1.050   1.533   9.471 -0.0520  0.6534 -0.2765
 1618TP3     H216674   1.088   1.679   9.481 -0.0381  0.6430 -0.1731
 1619TP3      O16675   3.287   1.727   2.156  0.3199 -0.0568  0.2965
 1619TP3     H116676   3.382   1.733   2.160  0.5389 -1.7733 -1.0411
 1619TP3     H216677   3.262   1.794   2.094  0.7845 -0.3115 -0.1777
 1620TP3      O16678   4.063   5.086   0.772 -0.2683  0.1620  0.0468
 1620TP3     H116679   4.131   5.091   0.705  0.7601  0.9470  1.1040
 1620TP3     H216680   4.066   4.995   0.803  1.2601  0.5060  1.0106
 1621TP3      O16681   4.418   0.912   1.001  0.5880 -0.5115  0.4855
 1621TP3     H116682   4.403   0.830   1.048  0.4908 -0.3686  0.7070
 1621TP3     H216683   4.513   0.923   1.001  0.5279  0.3871  2.2318
 1622TP3      O16684   4.654   0.736   7.900 -0.5619 -0.7938  0.0103
 1622TP3     H116685   4.657   0.784   7.817  1.2498  0.1294  0.5606
 1622TP3     H216686   4.690   0.797   7.965  0.8550 -2.4885  0.9241
 1623TP3      O16687   2.874   2.226   2.656 -0.0704 -0.4465 -0.3373
 1623TP3     H116688   2.934   2.301   2.656  0.7829 -1.0975 -1.6102
 1623TP3     H216689   2.792   2.262   2.622 -0.1791  0.2669  0.6341
 1624TP3      O16690   4.285   3.874   2.693  0.3290 -0.2292 -0.0283
 1624TP3     H116691   4.215   3.938   2.708  1.4626  0.6784  1.7667
 1624TP3     H216692   4.358   3.907   2.745  2.0916 -1.1707 -1.8050
 1625TP3      O16693   2.477   4.662   8.401 -0.7802  0.5730 -0.0923
 1625TP3     H116694   2.448   4.617   8.481 -3.9790  1.4981 -0.6297
 1625TP3     H216695   2.501   4.750   8.430  1.4919 -0.0888  0.2928
 1626TP3      O16696   0.964   0.136   1.435 -0.1974 -0.2624 -0.0906
 1626TP3     H116697   0.963   0.151   1.341  1.1301  0.5103 -0.0080
 1626TP3     H216698   0.935   0.219   1.473  0.2406 -0.2363  0.1982
 1627TP3      O16699   2.764   0.477  10.105  0.3022  0.3806 -0.2821
 1627TP3     H116700   2.776   0.505  10.196  2.4886  1.3339 -0.8066
 1627TP3     H216701   2.772   0.557  10.054  1.7055 -0.4639 -1.4799
 1628TP3      O16702   4.802   3.328   7.670  0.3531 -0.5112  0.3602
 1628TP3     H116703   4.767   3.387   7.604  0.7015  0.4649  1.0229
 1628TP3     H216704   4.732   3.321   7.735  0.4711 -0.4941  0.4900
 1629TP3      O16705   0.027   3.613   6.579  0.2648 -0.1592  0.1940
 1629TP3     H116706   0.034   3.550   6.651  1.5061 -0.6272 -0.3041
 1629TP3     H216707   0.115   3.618   6.543  0.0474  1.3800 -0.2096
 1630TP3      O16708   1.475   1.085   2.861 -0.4383  0.3345  0.1549
 1630TP3     H116709   1.473   1.145   2.936  0.9380  0.2478  0.2786
 1630TP3     H216710   1.568   1.069   2.845 -0.5545  1.6853 -2.6303
 1631TP3      O16711   3.685   1.288   1.405 -0.5299  0.5597 -0.1718
 1631TP3     H116712   3.742   1.311   1.479  0.6795  1.3516 -1.2877
 1631TP3     H216713   3.661   1.197   1.420  0.7501  0.3119  0.5562
 1632TP3      O16714   2.218   0.147   0.424 -0.2648  0.1056 -0.1873
 1632TP3     H116715   2.236   0.092   0.501  0.6259  1.9660  0.9854
 1632TP3     H216716   2.126   0.173   0.435  0.1423  1.2082  0.8563
 1633TP3      O16717   1.325   1.564   9.880  0.2541  0.0751 -0.4402
 1633TP3     H116718   1.408   1.536   9.841  0.2404 -0.0474 -0.3828
 1633TP3     H216719   1.348   1.639   9.935  0.3025  0.1333 -0.5392
 1634TP3      O16720   2.384   1.944  10.287 -0.4699 -0.2158  0.3458
 1634TP3     H116721   2.322   1.971  10.220 -0.4839  1.1168  0.8528
 1634TP3     H216722   2.467   1.935  10.241 -0.7871 -0.8138 -0.1151
 1635TP3      O16723   4.741   1.440   8.690  0.0596 -0.0634  0.0977
 1635TP3     H116724   4.705   1.357   8.722  0.9054  0.2460  1.9412
 1635TP3     H216725   4.664   1.494   8.672 -0.4582 -0.5543  0.7876
 1636TP3      O16726   5.183   3.358   9.884 -0.6199  0.2224  0.1494
 1636TP3     H116727   5.163   3.267   9.906 -0.4958 -0.0857 -0.9378
 1636TP3     H216728   5.125   3.410   9.940 -0.7707 -0.5248  0.6964
 1637TP3      O16729   0.964   4.756   9.693  0.2550  0.2588  0.2658
 1637TP3     H116730   1.048   4.774   9.651  1.0203 -1.0656  1.1526
 1637TP3     H216731   0.981   4.768   9.786 -0.5867  0.1082  0.4441
 1638TP3      O16732   4.715   0.048   2.169 -0.3175  0.8069  0.0097
 1638TP3     H116733   4.682   0.024   2.256 -0.4507  0.7080 -0.0673
 1638TP3     H216734   4.712   0.144   2.169 -0.9398  0.7942 -0.1181
 1639TP3      O16735   1.338   1.406   2.226  1.0466 -0.1731 -0.0748
 1639TP3     H116736   1.349   1.429   2.318  0.3194 -0.1273  0.0064
 1639TP3     H216737   1.263   1.458   2.197  2.6386  1.5769 -1.3251
 1640TP3      O16738   1.790   0.881   1.735  0.0542 -0.4720  0.0663
 1640TP3     H116739   1.740   0.938   1.794 -0.7701 -0.2744 -0.7934
 1640TP3     H216740   1.787   0.795   1.777 -3.0679 -1.0326 -1.0428
 1641TP3      O16741   3.858   1.242   9.268  0.3236  0.1692  0.6405
 1641TP3     H116742   3.896   1.184   9.202  1.1496  1.4889 -0.0724
 1641TP3     H216743   3.767   1.253   9.241  0.2523 -0.5184  0.5955
 1642TP3      O16744   4.717   4.162   2.829 -0.3754  0.3236 -0.0710
 1642TP3     H116745   4.761   4.184   2.911 -0.5191  0.8631 -0.1345
 1642TP3     H216746   4.777   4.102   2.784  0.7470  1.7863 -0.5931
 1643TP3      O16747   3.844   1.231   0.629 -0.2685  0.0062  0.4541
 1643TP3     H116748   3.758   1.272   0.626  0.5871  1.8541 -1.2184
 1643TP3     H216749   3.861   1.202   0.539  1.4876  1.1839  0.3518
 1644TP3      O16750   4.312   1.053  10.366  0.3752  0.8170 -0.1640
 1644TP3     H116751   4.237   1.017  10.412  2.8361 -2.5593  1.6620
 1644TP3     H216752   4.301   1.024  10.275 -0.5032  0.3112  0.0914
 1645TP3      O16753   4.250   0.556   2.191 -0.2629 -0.5722  0.5711
 1645TP3     H116754   4.214   0.642   2.173  0.5445 -0.4517 -0.5614
 1645TP3     H216755   4.283   0.525   2.107  0.9590 -1.2890  1.2794
 1646TP3      O16756   4.076   0.312   8.042  0.0549  0.0754 -0.0799
 1646TP3     H116757   4.022   0.315   7.964  1.9256  0.0828 -1.4542
 1646TP3     H216758   4.024   0.355   8.110 -1.7040 -0.1413 -1.2368
 1647TP3      O16759   0.456   4.630   6.845 -0.3847 -0.2886 -0.1542
 1647TP3     H116760   0.542   4.592   6.863  1.0482  1.1892 -3.2548
 1647TP3     H216761   0.445   4.697   6.912  1.3398  0.1690 -0.2891
 1648TP3      O16762   4.691   2.136   2.281  0.1093 -0.0260  0.0736
 1648TP3     H116763   4.750   2.123   2.355  1.4244  1.5622 -0.6249
 1648TP3     H216764   4.658   2.225   2.293  0.8575  0.5041 -1.5679
 1649TP3      O16765   2.513   4.972   8.122 -0.1899 -0.7254  0.5192
 1649TP3     H116766   2.507   5.067   8.135 -2.3943 -0.8431  0.6617
 1649TP3     H216767   2.489   4.935   8.207  0.7384 -1.4418  0.4871
 1650TP3      O16768   4.962   4.353   2.653  0.1442 -0.4396  0.0717
 1650TP3     H116769   4.892   4.411   2.681 -0.3565 -1.0435  0.0821
 1650TP3     H216770   4.918   4.279   2.612  0.7403 -1.1201  0.6196
 1651TP3      O16771   4.988   0.203  10.343 -0.2705 -0.2440 -0.2865
 1651TP3     H116772   4.983   0.220  10.437  0.9841 -0.7938 -0.0976
 1651TP3     H216773   4.999   0.289  10.303  1.5868 -0.1723  0.2849
 1652TP3      O16774   2.004   4.425   7.663 -0.0957 -0.3485  0.1682
 1652TP3     H116775   2.083   4.438   7.716 -0.8110  0.0099  1.1873
 1652TP3     H216776   2.028   4.356   7.601  1.4703  0.7696 -0.5128
 1653TP3      O16777   0.090   4.476   0.599 -0.4340  0.2830 -0.1007
 1653TP3     H116778   0.013   4.532   0.602 -0.3153  0.4849 -0.7825
 1653TP3     H216779   0.160   4.533   0.568  0.0797  0.1898  0.8420
 1654TP3      O16780   0.197   2.971   9.924  0.0891  0.3345  0.0110
 1654TP3     H116781   0.196   3.036   9.853 -0.5393  0.8434  0.4760
 1654TP3     H216782   0.130   2.908   9.900  0.6653 -0.1325 -0.4154
 1655TP3      O16783   3.800   0.841   8.557 -0.0207  0.2078  0.1703
 1655TP3     H116784   3.747   0.907   8.600 -0.7349  0.3047 -0.8142
 1655TP3     H216785   3.751   0.818   8.478 -0.0659 -1.8782  0.7387
 1656TP3      O16786   2.374   4.549   2.598 -0.1288 -0.0980 -0.4290
 1656TP3     H116787   2.366   4.455   2.583  0.5653  0.1782 -2.9846
 1656TP3     H216788   2.440   4.578   2.535  0.0848  2.0238  0.6809
 1657TP3      O16789   0.884   3.096   6.723 -0.4953 -0.0299  0.1420
 1657TP3     H116790   0.826   3.143   6.784  0.7449  0.4922  0.9559
 1657TP3     H216791   0.916   3.164   6.664  0.1469 -0.0939  0.4011
 1658TP3      O16792   3.925   1.150   9.023  0.0063 -0.0929  0.2338
 1658TP3     H116793   3.843   1.107   8.995  0.2749 -0.2549 -0.3210
 1658TP3     H216794   3.909   1.243   9.006  0.3980 -0.2522 -1.0857
 1659TP3      O16795   3.675   2.755   9.650 -0.2281 -0.5570  0.4145
 1659TP3     H116796   3.681   2.804   9.732 -0.2850 -0.7439  0.5322
 1659TP3     H216797   3.765   2.724   9.635 -0.1854 -0.3889  0.3237
 1660TP3      O16798   0.567   1.617   7.991  0.1688  0.7235 -0.1105
 1660TP3     H116799   0.649   1.584   7.954 -0.4398 -0.5468 -0.3763
 1660TP3     H216800   0.593   1.692   8.044  1.4367  0.6583 -0.6018
 1661TP3      O16801   1.044   2.512   8.040  0.0795 -0.0140  0.1749
 1661TP3     H116802   0.980   2.445   8.063 -0.4627  1.3761  3.2053
 1661TP3     H216803   1.113   2.465   7.993 -1.0379 -2.3448  0.7471
 1662TP3      O16804   0.304   3.714  10.168 -0.2599  0.2947 -0.3041
 1662TP3     H116805   0.311   3.630  10.121 -4.0016  0.3570 -1.2805
 1662TP3     H216806   0.241   3.697  10.238 -0.7402  2.1978 -0.2270
 1663TP3      O16807   1.502   4.462   9.071 -0.3967  0.3309 -0.1255
 1663TP3     H116808   1.449   4.421   9.002 -0.2857 -0.9910  0.5347
 1663TP3     H216809   1.442   4.471   9.144  0.2762 -1.3773  0.7027
 1664TP3      O16810   1.875   0.093   9.519  0.3018 -0.0125  0.0170
 1664TP3     H116811   1.816   0.031   9.477  1.3451 -0.6285 -0.5726
 1664TP3     H216812   1.899   0.155   9.450 -2.9102  2.8664  1.1874
 1665TP3      O16813   2.818   0.747   9.045 -0.6542 -0.2055  0.2887
 1665TP3     H116814   2.723   0.746   9.033 -0.6163 -0.9879  0.0493
 1665TP3     H216815   2.842   0.839   9.031 -1.3349 -0.0588  0.0428
 1666TP3      O16816   3.026   2.683   0.715  0.0995 -0.1947 -0.2689
 1666TP3     H116817   2.971   2.648   0.645 -1.3511 -0.8625  1.1347
 1666TP3     H216818   3.018   2.778   0.707 -1.8614 -0.2644  0.2783
 1667TP3      O16819   0.752   1.614   9.498 -0.4975 -0.3225 -0.6537
 1667TP3     H116820   0.710   1.641   9.579 -0.6298  1.0084 -1.1313
 1667TP3     H216821   0.846   1.627   9.514 -0.4091 -1.3017 -0.2953
 1668TP3      O16822   4.309   0.414   7.894  0.0579 -0.3491 -0.5560
 1668TP3     H116823   4.232   0.388   7.945  0.3648  0.1343  0.1587
 1668TP3     H216824   4.272   0.453   7.815 -0.4358 -0.1015 -0.2086
 1669TP3      O16825   4.457   0.114   9.917  0.2285 -0.7523 -0.1570
 1669TP3     H116826   4.416   0.197   9.890 -0.2141  0.0146  2.5782
 1669TP3     H216827   4.551   0.127   9.900  0.1397  0.2651  0.0756
 1670TP3      O16828   0.730   2.695   2.623  0.0865  0.1083 -0.0354
 1670TP3     H116829   0.802   2.740   2.669  0.4822  1.5442 -1.9314
 1670TP3     H216830   0.676   2.766   2.589  0.2170 -0.8142 -2.3630
 1671TP3      O16831   1.817   3.117   1.933  0.3035 -0.2128 -0.0691
 1671TP3     H116832   1.851   3.183   1.994 -0.2900  0.2237 -0.2007
 1671TP3     H216833   1.805   3.039   1.986 -0.3512  0.2034  0.4146
 1672TP3      O16834   0.982   4.967   8.440 -0.3927 -0.0805  0.0346
 1672TP3     H116835   0.914   4.908   8.472 -0.7713 -0.8997 -2.0832
 1672TP3     H216836   0.983   5.039   8.503 -2.6065 -0.4747  0.6216
 1673TP3      O16837   2.768   4.411   2.344  0.1064  0.0195 -0.1957
 1673TP3     H116838   2.813   4.352   2.404 -1.7134  0.0313  1.2811
 1673TP3     H216839   2.749   4.357   2.267 -1.2778 -1.2974  1.0055
 1674TP3      O16840   1.456   1.261   8.696 -0.1472 -0.3806  0.3020
 1674TP3     H116841   1.389   1.287   8.759  0.8037  0.1200  1.1361
 1674TP3     H216842   1.458   1.333   8.633 -2.4288 -1.7269 -1.4837
 1675TP3      O16843   4.967   4.667   7.476  0.0969  0.1320 -0.0717
 1675TP3     H116844   4.960   4.684   7.570 -0.5907  0.5224 -0.1883
 1675TP3     H216845   5.057   4.692   7.454  0.2999 -0.0705  0.5001
 1676TP3      O16846   2.557   3.202   9.044 -0.9924  0.6513 -0.0508
 1676TP3     H116847   2.572   3.110   9.065  1.3717  1.4057  2.2187
 1676TP3     H216848   2.496   3.201   8.971 -1.9637 -2.6665  0.6417
 1677TP3      O16849   0.319   0.178   1.116  0.3182 -0.5850 -0.1459
 1677TP3     H116850   0.386   0.246   1.121  0.4246 -0.6852 -0.2218
 1677TP3     H216851   0.359   0.107   1.066 -0.0980 -0.3481 -0.8390
 1678TP3      O16852   2.091   0.006   8.131  0.7679 -0.3907 -0.4723
 1678TP3     H116853   2.028   0.045   8.072  0.4397  1.2277  0.8894
 1678TP3     H216854   2.172   0.002   8.080  0.0742 -0.7025 -1.5916
 1679TP3      O16855   3.178   1.390   8.957 -0.4814  0.5928  0.3282
 1679TP3     H116856   3.166   1.309   9.007 -0.0086  0.3240  0.0086
 1679TP3     H216857   3.252   1.433   9.000 -1.3572  1.3577  1.1350
 1680TP3      O16858   0.535   3.289   9.456  0.1295 -0.1452  0.5785
 1680TP3     H116859   0.566   3.379   9.450 -1.6945  0.4959  0.2323
 1680TP3     H216860   0.591   3.248   9.522  0.3837  1.4976  1.4138
 1681TP3      O16861   3.907   0.063   6.683  0.3099 -0.5092  0.1002
 1681TP3     H116862   3.893  -0.031   6.690 -1.2501 -0.1659  3.5473
 1681TP3     H216863   3.822   0.098   6.656  0.3927  0.0346  0.5270
 1682TP3      O16864   2.146   4.626   9.453  0.2181 -0.0851  0.0148
 1682TP3     H116865   2.151   4.560   9.522 -1.2557  0.5540  0.7551
 1682TP3     H216866   2.144   4.574   9.372 -3.8942 -1.2380  0.6477
 1683TP3      O16867   3.642   2.962   8.139  0.5440 -0.1187 -0.1844
 1683TP3     H116868   3.675   2.891   8.194 -0.9754 -0.4440  0.3587
 1683TP3     H216869   3.620   2.919   8.056  1.0135  0.0078 -0.3776
 1684TP3      O16870   3.935   1.125   2.601 -0.0397  0.0506  0.6586
 1684TP3     H116871   4.028   1.148   2.605  0.0828 -0.3197  0.0589
 1684TP3     H216872   3.934   1.032   2.581 -0.5031  0.5182 -1.9713
 1685TP3      O16873   4.638   5.148   9.635 -0.3843  0.1424  0.4422
 1685TP3     H116874   4.718   5.186   9.599  0.6071 -0.5388  1.8183
 1685TP3     H216875   4.646   5.160   9.730 -0.1619 -3.0592  0.9504
 1686TP3      O16876   1.832   1.116   1.573 -0.1086  0.5670 -0.0010
 1686TP3     H116877   1.832   1.036   1.627  1.5555  0.0927 -0.6271
 1686TP3     H216878   1.775   1.095   1.499 -0.3042  0.2412  0.2386
 1687TP3      O16879   3.817   0.922   6.467  0.1577 -0.3858  0.2610
 1687TP3     H116880   3.872   0.843   6.466  1.3088  0.3991 -0.0410
 1687TP3     H216881   3.735   0.894   6.425  0.1486 -1.6845  1.0806
 1688TP3      O16882   4.235   3.368   9.339 -0.5774 -0.2219 -0.3425
 1688TP3     H116883   4.197   3.406   9.418 -1.1716 -0.7796 -0.3525
 1688TP3     H216884   4.191   3.413   9.267  0.0706  0.3915 -0.3645
 1689TP3      O16885   3.820   3.832   8.311 -0.5132 -0.2629 -0.5145
 1689TP3     H116886   3.791   3.911   8.266  1.0327  0.8144  0.2523
 1689TP3     H216887   3.766   3.762   8.276 -0.2760  0.7260 -3.0461
 1690TP3      O16888   2.666   2.881   7.497 -0.0560 -0.1109  0.0441
 1690TP3     H116889   2.684   2.946   7.430  1.7025 -1.2681 -0.6812
 1690TP3     H216890   2.635   2.804   7.449  0.2297 -0.6213  0.6612
 1691TP3      O16891   0.853   1.504   1.719 -0.0522 -0.1876  0.7530
 1691TP3     H116892   0.831   1.516   1.811  0.6922 -0.3072  0.9581
 1691TP3     H216893   0.944   1.474   1.721 -0.5741 -1.9258  0.0791
 1692TP3      O16894   1.220   2.168   9.776 -0.1742  0.0832  0.0343
 1692TP3     H116895   1.139   2.149   9.728 -0.6996  2.0584  0.0556
 1692TP3     H216896   1.282   2.103   9.744 -1.3760 -0.5893 -1.0379
 1693TP3      O16897   0.990   1.247   1.826  0.0927 -0.6392  0.0482
 1693TP3     H116898   1.067   1.302   1.840 -1.2144  1.4284 -0.3673
 1693TP3     H216899   0.934   1.266   1.901 -0.0771 -2.0373  0.2942
 1694TP3      O16900   3.837   0.898   3.221  0.4025 -0.1129 -0.2099
 1694TP3     H116901   3.845   0.980   3.270 -1.3368  0.0485 -0.1564
 1694TP3     H216902   3.790   0.839   3.280 -1.6364  0.0446 -1.5835
 1695TP3      O16903   1.654   3.818   9.706 -0.7716  0.0435 -0.3556
 1695TP3     H116904   1.591   3.781   9.644 -1.7037  0.4230  0.3427
 1695TP3     H216905   1.682   3.743   9.759  0.0048 -0.2761 -1.1840
 1696TP3      O16906   1.004   3.715   0.111  0.0799 -0.3740  0.1389
 1696TP3     H116907   1.024   3.652   0.041 -2.8307 -1.5171  0.2033
 1696TP3     H216908   0.935   3.770   0.074  1.8979  2.3144  0.4382
 1697TP3      O16909   2.519   0.133  10.133 -0.0922 -0.9975 -0.2346
 1697TP3     H116910   2.506   0.223  10.102 -0.8605 -0.7502  0.7139
 1697TP3     H216911   2.569   0.143  10.214  1.6044 -1.6001 -1.1617
 1698TP3      O16912   2.085   3.006   8.199 -0.0710  0.4676  0.1101
 1698TP3     H116913   2.128   2.967   8.276 -1.2928 -0.4687  0.3414
 1698TP3     H216914   2.007   3.048   8.234 -0.4577  0.3276 -0.5770
 1699TP3      O16915   1.348   2.767   0.909 -0.8633 -0.3024 -0.5245
 1699TP3     H116916   1.412   2.701   0.883 -0.9325  0.6010 -3.2869
 1699TP3     H216917   1.379   2.848   0.868 -2.7271  0.5783 -0.2842
 1700TP3      O16918   3.017   4.118   0.845  0.1638  1.1300  0.7601
 1700TP3     H116919   3.096   4.148   0.892  0.2713  2.4773 -0.2022
 1700TP3     H216920   3.038   4.133   0.752  0.4535 -2.6178  0.0732
 1701TP3      O16921   1.597   0.367   0.263  0.0763 -0.3242  0.4277
 1701TP3     H116922   1.539   0.343   0.191 -0.6369 -2.5954  1.6600
 1701TP3     H216923   1.666   0.301   0.261  0.6262  0.2130  1.1981
 1702TP3      O16924   4.379   2.762   8.403  0.0776  0.5710  0.5897
 1702TP3     H116925   4.290   2.748   8.436 -0.0658  0.1824  0.0580
 1702TP3     H216926   4.435   2.753   8.480 -0.2088 -0.7886  0.6676
 1703TP3      O16927   2.922   0.101   0.091  0.1802 -0.0441 -0.3298
 1703TP3     H116928   2.930   0.099   0.186 -1.8747 -0.6011 -0.1014
 1703TP3     H216929   2.945   0.012   0.063  1.1570  0.2276 -0.4034
 1704TP3      O16930   1.970   1.979   9.506 -0.1939  0.3330  0.6640
 1704TP3     H116931   2.029   2.054   9.518  1.6607 -1.2831  2.3702
 1704TP3     H216932   1.926   1.969   9.590 -2.4521  1.0599 -0.3727
 1705TP3      O16933   3.860   4.170   1.344 -0.2619 -0.5037 -0.6517
 1705TP3     H116934   3.789   4.147   1.284  0.7456 -0.4391 -1.9138
 1705TP3     H216935   3.901   4.087   1.367  0.8991 -0.3830 -2.0780
 1706TP3      O16936   1.909   0.506  10.005 -0.7278  0.5639  0.1827
 1706TP3     H116937   1.909   0.491   9.910 -2.2280  1.5953 -0.0158
 1706TP3     H216938   1.849   0.579  10.017 -0.3550  0.6120  1.9208
 1707TP3      O16939   1.456   5.210   2.164  0.4449 -0.3164  0.0749
 1707TP3     H116940   1.471   5.292   2.211 -0.4815  0.0076 -0.1695
 1707TP3     H216941   1.362   5.208   2.150  0.1661 -2.3475  1.7449
 1708TP3      O16942   3.023   4.020   0.539 -0.7089  0.4565 -0.0939
 1708TP3     H116943   2.949   3.989   0.591 -2.1673  3.4333 -0.1965
 1708TP3     H216944   3.003   3.990   0.450 -1.7829  1.1118 -0.0975
 1709TP3      O16945   0.525   3.024  10.153 -0.5477 -0.4370 -0.0283
 1709TP3     H116946   0.495   2.935  10.132  0.5661 -0.6285 -0.9002
 1709TP3     H216947   0.489   3.078  10.082 -1.0879 -0.2028  0.4130
 1710TP3      O16948   4.976   3.838   9.083 -0.3639 -0.2696 -0.8254
 1710TP3     H116949   4.936   3.882   9.008  0.4134  0.5223 -0.7924
 1710TP3     H216950   5.070   3.848   9.068 -0.1975  0.6374  0.6706
 1711TP3      O16951   3.756   3.589   9.109 -0.3654 -0.5125 -0.6409
 1711TP3     H116952   3.807   3.513   9.136  1.4224  0.0254 -2.2297
 1711TP3     H216953   3.703   3.558   9.036 -1.5881 -0.8086  0.3347
 1712TP3      O16954   1.605   2.657   2.553  0.2617 -0.0539 -0.5367
 1712TP3     H116955   1.641   2.745   2.550 -3.1019  1.5065  0.0701
 1712TP3     H216956   1.681   2.599   2.545  2.8537  2.8371  1.1736
 1713TP3      O16957   4.263   4.970   9.359  0.5170  0.6249 -0.1112
 1713TP3     H116958   4.244   5.047   9.413 -0.4124 -1.1586  2.3099
 1713TP3     H216959   4.187   4.962   9.301 -0.8888 -0.0662  1.7126
 1714TP3      O16960   3.828   1.097   9.817  0.3273  0.7220 -0.2208
 1714TP3     H116961   3.775   1.041   9.760 -1.7463  1.4227  0.9145
 1714TP3     H216962   3.831   1.181   9.773 -1.2839  1.2664  0.6218
 1715TP3      O16963   2.493   2.390   7.122  0.0483 -0.4268 -0.0188
 1715TP3     H116964   2.549   2.356   7.191 -0.1446 -0.3646  0.1728
 1715TP3     H216965   2.494   2.485   7.136 -0.5313 -0.4637  0.3271
 1716TP3      O16966   3.775   0.017  10.384 -0.5344 -0.0996  0.1447
 1716TP3     H116967   3.735   0.078  10.321  0.2365 -0.2026 -0.4568
 1716TP3     H216968   3.739  -0.068  10.359 -0.5056 -0.0923  0.0785
 1717TP3      O16969   1.445   0.518   7.743 -0.1428 -0.5549 -0.6458
 1717TP3     H116970   1.394   0.492   7.666  1.5133 -0.3190 -1.8806
 1717TP3     H216971   1.409   0.603   7.768 -0.2983 -0.3479 -1.5560
 1718TP3      O16972   0.062   4.723   8.517  0.2437 -0.4281  0.0274
 1718TP3     H116973   0.026   4.675   8.443 -1.7186  1.7696 -0.5817
 1718TP3     H216974  -0.006   4.720   8.584  1.7208 -1.8181  1.5630
 1719TP3      O16975   0.882   3.181   9.022 -0.3199  0.1312 -0.1992
 1719TP3     H116976   0.895   3.236   8.944 -2.4806 -2.2395 -2.4123
 1719TP3     H216977   0.787   3.172   9.030 -0.0884 -1.4464  1.4514
 1720TP3      O16978   2.380   1.798   1.123 -0.1288  0.3278  0.4584
 1720TP3     H116979   2.286   1.777   1.123 -0.4022  1.4590 -0.4129
 1720TP3     H216980   2.414   1.755   1.202 -1.4727  0.2992  1.0520
 1721TP3      O16981   1.877   0.971   2.156 -0.2740  0.9081  0.5925
 1721TP3     H116982   1.909   1.007   2.074  0.1974  0.5233  0.6059
 1721TP3     H216983   1.947   0.990   2.219 -1.0533  2.1107  1.1497
 1722TP3      O16984   4.946   1.528   9.347 -0.2156  0.0770  0.3878
 1722TP3     H116985   4.895   1.450   9.326 -1.3425  1.0145 -0.4826
 1722TP3     H216986   5.016   1.530   9.281  0.7522 -0.9856  1.3341
 1723TP3      O16987   1.666   3.989   8.674 -0.2800 -0.0449  0.1885
 1723TP3     H116988   1.698   3.901   8.690 -0.0272 -0.0236 -0.1970
 1723TP3     H216989   1.736   4.031   8.624 -0.6166  0.2143 -0.0640
 1724TP3      O16990   1.749   2.408   1.463 -0.2377  0.2373  0.4066
 1724TP3     H116991   1.708   2.374   1.384 -0.1110  1.3450 -0.1542
 1724TP3     H216992   1.815   2.470   1.431  2.2579 -1.8067  1.2340
 1725TP3      O16993   3.194   0.397   9.384  0.4193 -0.0205 -0.3655
 1725TP3     H116994   3.170   0.481   9.346 -3.6352 -1.2598 -1.0599
 1725TP3     H216995   3.170   0.333   9.317  2.1502 -1.8448  0.6407
 1726TP3      O16996   3.131   3.611   8.719  0.2211  0.5168  0.6360
 1726TP3     H116997   3.132   3.586   8.812  1.9495  0.2461  0.5652
 1726TP3     H216998   3.100   3.701   8.719 -0.2756  0.3567  1.4280
 1727TP3      O16999   0.310   1.346   2.598  0.1745  0.2578 -0.0700
 1727TP3     H117000   0.400   1.368   2.575  0.0915  0.4738 -0.1937
 1727TP3     H217001   0.274   1.306   2.518  0.4252 -0.6474  0.2566
 1728TP3      O17002   0.197   2.895   0.427 -0.0890 -0.4218 -0.3663
 1728TP3     H117003   0.251   2.960   0.382 -0.4624 -0.6441 -1.1489
 1728TP3     H217004   0.260   2.835   0.467  0.2895  0.9398  1.1984
 1729TP3      O17005   0.033   4.306   2.870 -0.2925  0.0784  0.5918
 1729TP3     H117006  -0.056   4.339   2.859  0.3516  1.4350 -0.8198
 1729TP3     H217007   0.030   4.218   2.832 -1.2428 -0.3113  1.4897
 1730TP3      O17008   2.603   2.527   8.784  0.4145  0.1349 -0.1771
 1730TP3     H117009   2.615   2.448   8.732 -0.3744 -0.2657  0.2161
 1730TP3     H217010   2.508   2.534   8.794  0.5260  0.5058  0.7359
 1731TP3      O17011   0.385   3.890   7.240 -0.1213  0.3345 -0.5431
 1731TP3     H117012   0.427   3.829   7.179 -3.7475 -2.1458 -0.8884
 1731TP3     H217013   0.319   3.934   7.188 -1.8638 -0.2484  1.0580
 1732TP3      O17014   0.305   2.723   8.436 -0.1347 -0.5511  0.1659
 1732TP3     H117015   0.271   2.709   8.348  1.2872  0.2752 -0.5589
 1732TP3     H217016   0.230   2.708   8.494 -0.8896 -1.9361 -1.1028
 1733TP3      O17017   4.103   1.053   1.572  0.1544 -0.8309  0.2495
 1733TP3     H117018   4.062   1.086   1.491  2.2885  1.5475  0.0034
 1733TP3     H217019   4.148   0.973   1.545 -0.7216 -1.0958 -0.4703
 1734TP3      O17020   4.770   0.593   9.223  0.4702  0.5641  0.2951
 1734TP3     H117021   4.702   0.556   9.166 -0.3372  1.4508  0.6477
 1734TP3     H217022   4.739   0.573   9.312  0.3536  1.4811  0.4724
 1735TP3      O17023   1.703   1.297   9.197  0.4150  0.3043 -0.2752
 1735TP3     H117024   1.727   1.220   9.248 -1.7636  1.4430  2.7538
 1735TP3     H217025   1.642   1.263   9.131  1.3335 -0.8655 -0.5586
 1736TP3      O17026   3.994   2.412   1.127 -0.0431  0.3376  0.4130
 1736TP3     H117027   3.961   2.498   1.100 -0.3270 -0.2360 -1.1979
 1736TP3     H217028   3.920   2.353   1.115  1.0586 -0.7276 -1.9413
 1737TP3      O17029   2.788   3.148   1.123  0.0895 -0.1605 -0.0267
 1737TP3     H117030   2.765   3.169   1.032  0.0380  0.3105  0.0952
 1737TP3     H217031   2.862   3.088   1.115  0.6261  0.5333 -0.3714
 1738TP3      O17032   0.035   0.556   1.396  0.3577 -0.5144 -0.1739
 1738TP3     H117033  -0.001   0.567   1.309  0.3224  0.5717 -0.0314
 1738TP3     H217034   0.037   0.644   1.433  0.9532 -0.8738  0.6906
 1739TP3      O17035   0.218   1.528   9.663 -0.0436 -1.0837  0.0885
 1739TP3     H117036   0.240   1.574   9.582  0.6407 -1.5399  0.0094
 1739TP3     H217037   0.125   1.507   9.653 -0.3017  0.0116  0.0039
 1740TP3      O17038   5.083   0.080   2.489 -0.2600 -0.0764  0.0099
 1740TP3     H117039   5.130   0.155   2.525 -2.1082  0.2660  1.8855
 1740TP3     H217040   5.068   0.104   2.397  0.2909  1.2879  0.2426
 1741TP3      O17041   2.672   4.877   8.503  0.1817 -0.1686  0.5735
 1741TP3     H117042   2.753   4.922   8.526  0.5769  0.2741 -1.4797
 1741TP3     H217043   2.628   4.937   8.442 -1.0618 -0.9573  0.6578
 1742TP3      O17044   0.234   1.640   7.625 -0.2086 -0.3237  0.3821
 1742TP3     H117045   0.215   1.663   7.716  0.0952  3.8727 -0.3828
 1742TP3     H217046   0.313   1.586   7.630 -0.5235 -0.6739  2.6264
 1743TP3      O17047   2.145   4.304   0.404  0.6530 -0.1774 -0.2111
 1743TP3     H117048   2.081   4.333   0.340  1.1035  0.0773 -0.5533
 1743TP3     H217049   2.093   4.266   0.475  0.1340 -0.0623 -0.5266
 1744TP3      O17050   3.541   1.549   2.083 -0.0940 -0.0520  0.1578
 1744TP3     H117051   3.463   1.494   2.088  0.3367 -0.7678 -0.6299
 1744TP3     H217052   3.605   1.495   2.036  0.1623  1.3412 -1.1491
 1745TP3      O17053   1.212   0.949   9.655  0.2848  0.0428  0.0251
 1745TP3     H117054   1.183   1.001   9.730  0.8741  1.6000 -0.7929
 1745TP3     H217055   1.306   0.964   9.650  0.1918  0.2828 -1.2479
 1746TP3      O17056   1.462   4.141   7.469  0.6055  0.0728  0.0206
 1746TP3     H117057   1.484   4.049   7.458  0.3091 -0.1454  1.1284
 1746TP3     H217058   1.522   4.188   7.411  0.1371 -0.8555 -1.2665
 1747TP3      O17059   3.698   3.553   9.605 -0.3110 -0.5096 -0.1627
 1747TP3     H117060   3.720   3.461   9.624  0.7871 -0.6105 -1.7188
 1747TP3     H217061   3.605   3.551   9.583 -0.5672 -1.0516  0.9107
 1748TP3      O17062   0.314   1.078   9.985  0.0870 -0.1912 -0.4897
 1748TP3     H117063   0.389   1.079   9.926  0.8333 -0.7337  0.4345
 1748TP3     H217064   0.351   1.073  10.073 -1.0172  0.0109  0.0120
 1749TP3      O17065   5.048   0.542   8.152 -0.6062 -0.0457  0.1832
 1749TP3     H117066   5.053   0.633   8.123  0.8167 -0.2001 -0.1217
 1749TP3     H217067   5.055   0.547   8.248  0.7998  0.1206  0.0990
 1750TP3      O17068   4.234   4.391   2.031 -0.3038  0.0445  0.2797
 1750TP3     H117069   4.324   4.405   2.000 -0.4438 -0.7600 -0.5065
 1750TP3     H217070   4.243   4.327   2.102 -0.1495  0.7770  0.9383
 1751TP3      O17071   2.683   3.251   7.740  0.2410  0.0445  0.1673
 1751TP3     H117072   2.680   3.308   7.663 -0.2674  0.9173  0.8110
 1751TP3     H217073   2.644   3.303   7.809  0.7083 -0.7239  1.0278
 1752TP3      O17074   1.305   1.076   0.551  0.1376 -0.1499 -1.0974
 1752TP3     H117075   1.247   1.151   0.568  1.0440  0.2728  0.3771
 1752TP3     H217076   1.257   1.001   0.584  0.5798  0.2633  0.5828
 1753TP3      O17077   4.949   4.634   2.776 -0.0506  0.2606  0.2746
 1753TP3     H117078   4.922   4.709   2.723 -0.2284 -0.4604 -0.6942
 1753TP3     H217079   5.041   4.619   2.751 -0.6456 -1.2017 -1.2669
 1754TP3      O17080   5.195   0.324   2.496 -0.4797 -0.2863  0.2166
 1754TP3     H117081   5.253   0.348   2.424 -0.5008 -0.9199 -0.0183
 1754TP3     H217082   5.109   0.357   2.469 -0.6823 -1.3339 -0.5004
 1755TP3      O17083   1.881   0.635   9.206  0.5289  0.0887 -0.3062
 1755TP3     H117084   1.909   0.715   9.250  0.5187  0.5295 -1.0927
 1755TP3     H217085   1.812   0.600   9.263 -0.5791  1.4754 -0.7521
 1756TP3      O17086   0.687   3.038  10.404 -0.2308  0.8219 -0.4268
 1756TP3     H117087   0.623   2.969  10.420  1.2432 -0.5635 -0.1910
 1756TP3     H217088   0.655   3.113  10.455 -1.2935 -0.0477  0.2244
 1757TP3      O17089   4.839   1.608   7.507  0.2782  0.3576  0.2361
 1757TP3     H117090   4.758   1.607   7.456  0.6443 -1.6039 -0.4011
 1757TP3     H217091   4.908   1.608   7.441  0.7672 -1.6442  0.7036
 1758TP3      O17092   1.757   1.792   9.322 -0.7222 -0.0304  0.2290
 1758TP3     H117093   1.671   1.808   9.284 -0.7961  0.9354  0.7768
 1758TP3     H217094   1.746   1.808   9.416  0.1779  0.6820  0.2294
 1759TP3      O17095   0.931   4.104   7.682  0.6880  0.4780 -0.3963
 1759TP3     H117096   1.027   4.110   7.683  0.6456  1.1345  0.8309
 1759TP3     H217097   0.901   4.193   7.666  0.2660  0.7225  1.5560
 1760TP3      O17098   0.911   3.354   0.033 -0.1868  0.1410  0.3765
 1760TP3     H117099   0.929   3.263   0.009 -3.0646  0.0626 -1.9834
 1760TP3     H217100   0.929   3.404  -0.047 -1.0085  1.2874  0.8814
 1761TP3      O17101   1.208   2.821   2.126  0.1885 -0.0763 -0.1573
 1761TP3     H117102   1.192   2.902   2.078 -0.4922 -0.6720 -0.9720
 1761TP3     H217103   1.143   2.760   2.091  1.1101 -1.1561 -0.0311
 1762TP3      O17104   4.564   1.288   9.951  0.1476  0.9311 -0.7360
 1762TP3     H117105   4.521   1.206   9.974  1.4694  0.1686 -0.9004
 1762TP3     H217106   4.542   1.348  10.023 -0.7525  0.4179 -0.5734
 1763TP3      O17107   2.701   3.935   9.081 -0.1599  0.0600 -0.2087
 1763TP3     H117108   2.669   3.965   9.166 -1.8216  1.1386 -1.1571
 1763TP3     H217109   2.768   3.871   9.102  0.4326  1.2829  1.9155
 1764TP3      O17110   3.380   4.182   2.005  0.0821  0.6066 -0.1589
 1764TP3     H117111   3.464   4.228   2.006  0.1739  0.4885 -1.2109
 1764TP3     H217112   3.328   4.229   1.941 -0.2002 -0.1050 -0.4603
 1765TP3      O17113   4.924   1.012   9.704 -0.3430  0.3882  0.1635
 1765TP3     H117114   5.010   0.984   9.672 -0.3148  0.8126 -0.1423
 1765TP3     H217115   4.930   1.002   9.799  0.0564  0.4362  0.1480
 1766TP3      O17116   4.589   3.237   9.567  0.0786 -0.2707 -0.1024
 1766TP3     H117117   4.589   3.333   9.573  0.2619 -0.1905 -1.1403
 1766TP3     H217118   4.502   3.211   9.598 -0.8812  0.4158 -2.0707
 1767TP3      O17119   3.701   0.654   0.433  0.5038  0.3860 -0.1448
 1767TP3     H117120   3.784   0.700   0.448  0.8057 -0.1433 -0.1575
 1767TP3     H217121   3.718   0.564   0.462  0.5934 -0.2558 -2.0418
 1768TP3      O17122   4.433   1.422   7.468 -0.1620  0.4834  0.5612
 1768TP3     H117123   4.495   1.480   7.424  0.8197 -1.0434 -0.1387
 1768TP3     H217124   4.347   1.454   7.441  0.3933 -0.0500 -2.0805
 1769TP3      O17125   3.141   0.587   9.205 -0.0333 -0.6685  0.5753
 1769TP3     H117126   3.098   0.654   9.258  0.9616  0.5068 -0.0273
 1769TP3     H217127   3.127   0.616   9.115  0.3721 -1.3008  0.3052
 1770TP3      O17128   3.421   0.261   8.550  0.3568 -0.4458  0.0086
 1770TP3     H117129   3.438   0.179   8.504 -0.0344  0.0253 -1.0081
 1770TP3     H217130   3.496   0.316   8.531 -0.7456  0.5022 -1.8560
 1771TP3      O17131   1.625   3.041   0.997 -0.4022 -0.1197  0.0626
 1771TP3     H117132   1.554   3.013   0.940 -0.2693  0.4973 -0.4128
 1771TP3     H217133   1.581   3.074   1.076 -0.7489  1.7601 -0.8723
 1772TP3      O17134   1.918   2.173   0.285 -0.3666 -0.2009 -0.1278
 1772TP3     H117135   1.948   2.217   0.365  0.5893  0.6783 -0.9431
 1772TP3     H217136   1.997   2.163   0.232 -0.8350 -1.5377 -0.6314
 1773TP3      O17137   5.138   4.888   7.539  0.1528  0.2121  0.0953
 1773TP3     H117138   5.124   4.958   7.476 -0.0432 -1.1520 -1.4664
 1773TP3     H217139   5.180   4.818   7.488  2.4333 -0.0069  2.0838
 1774TP3      O17140   3.601   0.395   7.420  0.7334 -0.4074  0.6583
 1774TP3     H117141   3.667   0.339   7.380  0.4284 -0.4668  0.2273
 1774TP3     H217142   3.577   0.457   7.350  1.6726  0.8062  1.3778
 1775TP3      O17143   0.205   4.526   6.775 -0.6133 -0.3938  0.0455
 1775TP3     H117144   0.297   4.547   6.757 -0.3564 -2.3540 -1.2574
 1775TP3     H217145   0.162   4.611   6.783  0.8018  0.5967 -2.0348
 1776TP3      O17146   0.051   4.554  10.242  0.4210 -0.3648  0.2376
 1776TP3     H117147   0.070   4.648  10.241 -1.0147 -0.0537  0.6773
 1776TP3     H217148   0.012   4.539  10.328 -0.0756 -1.2184 -0.1299
 1777TP3      O17149   0.122   0.768   9.261  0.1421  0.0184  0.0480
 1777TP3     H117150   0.185   0.830   9.224 -0.6035  0.6006 -0.2827
 1777TP3     H217151   0.038   0.796   9.225 -0.1041 -1.7128 -0.7748
 1778TP3      O17152   1.754   4.440   9.730 -0.5759 -0.0765  0.3026
 1778TP3     H117153   1.802   4.523   9.726  1.9029 -1.4718 -1.2085
 1778TP3     H217154   1.713   4.431   9.644  0.6355 -1.1621 -0.2022
 1779TP3      O17155   0.879   1.648   9.962 -0.2187 -0.0125  0.2575
 1779TP3     H117156   0.795   1.619   9.927 -0.8629  0.5365  1.3163
 1779TP3     H217157   0.944   1.607   9.904 -1.1654 -1.3644  0.0912
 1780TP3      O17158   2.399   0.396   0.567  0.6114  0.2618  0.2013
 1780TP3     H117159   2.483   0.393   0.521 -0.5232  0.3281 -2.0128
 1780TP3     H217160   2.374   0.304   0.577 -0.5863  0.2375 -2.2784
 1781TP3      O17161   4.538   4.739   0.360 -0.3470 -0.0214 -0.1801
 1781TP3     H117162   4.630   4.762   0.352 -0.2834  0.5739  1.8130
 1781TP3     H217163   4.534   4.647   0.333  1.0736 -0.4470  0.9436
 1782TP3      O17164   5.050   1.658   0.241 -0.2751 -0.7554  0.4267
 1782TP3     H117165   4.991   1.717   0.288 -0.3613 -0.2645 -0.3006
 1782TP3     H217166   5.039   1.680   0.149  2.0101  0.2715  0.3225
 1783TP3      O17167   3.856   4.783   3.015 -0.4592 -0.2176  0.1436
 1783TP3     H117168   3.881   4.842   3.086  0.8451 -1.0982  0.4598
 1783TP3     H217169   3.900   4.818   2.938  0.8509 -1.0691  0.4559
 1784TP3      O17170   4.329   0.804   7.896  0.0358 -0.1341  0.0872
 1784TP3     H117171   4.302   0.780   7.807  1.4686 -0.8932 -0.1777
 1784TP3     H217172   4.415   0.764   7.906  0.4992  1.0849  1.3335
 1785TP3      O17173   2.303   2.842   8.672  0.3748  0.1988 -0.4295
 1785TP3     H117174   2.242   2.872   8.605  1.2410  1.1331 -0.8289
 1785TP3     H217175   2.288   2.747   8.678 -2.7980  0.6921  1.2328
 1786TP3      O17176   3.081   1.180   9.391  0.2313  0.0710 -0.1774
 1786TP3     H117177   3.038   1.247   9.444  0.0566  0.7785 -1.1904
 1786TP3     H217178   3.157   1.154   9.444 -0.2280  0.3681  0.6553
 1787TP3      O17179   2.373   4.715   9.753 -0.5228 -0.1264  0.1644
 1787TP3     H117180   2.425   4.792   9.732 -0.4641  0.0530  0.9310
 1787TP3     H217181   2.361   4.720   9.848  1.9814 -2.5779  0.7507
 1788TP3      O17182   2.604   2.731   9.561  0.1505  0.1247 -0.0660
 1788TP3     H117183   2.537   2.789   9.598 -0.6656 -0.7587 -0.1068
 1788TP3     H217184   2.646   2.783   9.492 -0.8462  0.5359 -0.3793
 1789TP3      O17185   5.029   1.942   1.660  0.2589 -0.5606 -0.0946
 1789TP3     H117186   5.075   1.868   1.618  1.6860  0.0679  0.2792
 1789TP3     H217187   5.097   1.983   1.715  0.1373  2.3359 -1.9183
 1790TP3      O17188   0.577   3.411   7.185  0.6853  0.0822  0.2391
 1790TP3     H117189   0.539   3.378   7.103  1.0898 -1.0801  0.5098
 1790TP3     H217190   0.632   3.484   7.158  0.7958 -0.2763 -0.5238
 1791TP3      O17191   1.090   0.413   1.350  0.3638  0.3124  0.4959
 1791TP3     H117192   1.120   0.467   1.277 -1.1872 -0.7782 -1.0262
 1791TP3     H217193   1.155   0.342   1.356  2.0008  1.8590  2.0269
 1792TP3      O17194   3.565   0.167   9.899 -0.4920  0.1884  0.3808
 1792TP3     H117195   3.586   0.097   9.836  1.7003 -1.2542  2.5388
 1792TP3     H217196   3.608   0.245   9.864  0.0801 -0.4053 -0.2592
 1793TP3      O17197   5.185   0.565   2.734  0.4116 -0.0001  0.1621
 1793TP3     H117198   5.250   0.633   2.717  0.9126 -0.1889  1.2470
 1793TP3     H217199   5.104   0.614   2.752  0.4719  0.2605 -0.2438
 1794TP3      O17200   2.418   3.056   0.258 -0.3073 -0.3889 -0.2463
 1794TP3     H117201   2.401   3.147   0.283 -2.0898 -1.0420  1.1011
 1794TP3     H217202   2.339   3.009   0.283  0.4979 -2.2990 -1.1052
 1795TP3      O17203   4.462   3.105  10.314 -0.2020  0.2063  0.2457
 1795TP3     H117204   4.384   3.146  10.277  0.8200  1.0638 -1.0482
 1795TP3     H217205   4.439   3.087  10.405 -1.8807  0.4635 -0.0927
 1796TP3      O17206   3.076   3.718   8.089  0.4071 -0.0843  0.4003
 1796TP3     H117207   3.060   3.634   8.046  0.2015  0.3011 -0.2723
 1796TP3     H217208   3.014   3.778   8.050  0.2445  0.2864  1.2049
 1797TP3      O17209   1.220   1.013   3.072  0.5074  0.5268 -0.4142
 1797TP3     H117210   1.268   1.084   3.116  0.5127  1.1593 -1.4042
 1797TP3     H217211   1.203   0.949   3.141  0.2506  1.6257  0.5712
 1798TP3      O17212   0.503   5.068   3.286  0.2162  0.0689  0.3762
 1798TP3     H117213   0.539   5.155   3.303 -2.6504  1.2748  0.8086
 1798TP3     H217214   0.529   5.049   3.195 -0.0386  1.8962 -0.1146
 1799TP3      O17215   3.568   0.470  10.250 -0.3988 -0.0924  0.9252
 1799TP3     H117216   3.557   0.374  10.248  2.7366 -0.5703 -1.4569
 1799TP3     H217217   3.514   0.501  10.177  1.5674 -0.6085 -0.8462
 1800TP3      O17218   0.683   0.366   8.304 -0.2082 -0.1650  0.0240
 1800TP3     H117219   0.707   0.404   8.389  0.2440 -0.1166 -0.1196
 1800TP3     H217220   0.765   0.328   8.272 -0.1715  0.6003 -0.8005
 1801TP3      O17221   3.953   0.525   9.143  0.4376  0.1985  0.1196
 1801TP3     H117222   4.037   0.541   9.187 -0.0089  0.3213  0.9608
 1801TP3     H217223   3.898   0.486   9.211  0.2595 -1.2619 -0.8277
 1802TP3      O17224   3.499   2.185  10.082 -0.1586  0.3938 -0.0275
 1802TP3     H117225   3.498   2.281  10.075 -1.7811  0.2828 -2.4197
 1802TP3     H217226   3.490   2.154   9.992  0.7866 -2.0523  0.6410
 1803TP3      O17227   5.167   3.886   1.894  0.1165 -0.1709  0.1375
 1803TP3     H117228   5.118   3.838   1.828 -1.1318  0.8376  0.2900
 1803TP3     H217229   5.157   3.835   1.974  0.3264 -0.5864 -0.1010
 1804TP3      O17230   2.348   3.476   9.519 -0.2785  0.2631  0.0177
 1804TP3     H117231   2.260   3.496   9.549 -0.2138 -0.5383  0.8023
 1804TP3     H217232   2.336   3.425   9.439 -0.5896 -1.1409  0.9263
 1805TP3      O17233   3.415   1.052  10.347  0.0975  0.1589  0.2233
 1805TP3     H117234   3.341   1.032  10.289  0.8235  1.5546 -1.2881
 1805TP3     H217235   3.384   1.029  10.434 -1.5038 -0.8789 -0.5654
 1806TP3      O17236   1.377   4.809   2.489 -0.1539  0.4756 -0.5480
 1806TP3     H117237   1.425   4.871   2.434  3.3216 -1.7023 -0.3055
 1806TP3     H217238   1.387   4.844   2.578  1.5241 -0.1504 -0.4471
 1807TP3      O17239   1.460   3.318   0.344 -0.3698  0.0693 -0.2411
 1807TP3     H117240   1.430   3.253   0.280  0.7996 -0.0137 -0.7289
 1807TP3     H217241   1.384   3.333   0.400 -0.9879 -0.9119 -0.7855
 1808TP3      O17242   4.009   1.477   2.703 -0.5828  0.0224 -0.3597
 1808TP3     H117243   4.027   1.558   2.750 -1.2141  0.2133 -0.4382
 1808TP3     H217244   3.940   1.434   2.754 -0.5102 -0.2895 -0.5196
 1809TP3      O17245   0.216   5.194  10.210 -0.2627  0.1236  0.4150
 1809TP3     H117246   0.160   5.251  10.156  1.3042  1.4455  0.0818
 1809TP3     H217247   0.251   5.130  10.148  0.2698  0.6452  0.1629
 1810TP3      O17248   5.024   2.267   8.012 -0.3414 -0.5513 -0.1522
 1810TP3     H117249   4.963   2.234   8.078 -0.6875  0.1239 -0.1317
 1810TP3     H217250   5.041   2.358   8.037 -1.9925  0.3618 -2.0497
 1811TP3      O17251   4.784   4.457   0.874 -0.2762 -0.0955  0.1621
 1811TP3     H117252   4.819   4.529   0.927  1.6100 -1.6984  1.2598
 1811TP3     H217253   4.728   4.499   0.810 -1.1151  2.1488  2.1983
 1812TP3      O17254   1.180   0.182   0.124  0.0766 -0.2198 -0.0524
 1812TP3     H117255   1.254   0.233   0.093 -1.3949  1.6936 -0.6687
 1812TP3     H217256   1.148   0.230   0.200  0.9413 -2.4211  1.8188
 1813TP3      O17257   0.148   4.190   8.728  0.1986 -0.1996 -0.1246
 1813TP3     H117258   0.186   4.108   8.698  0.4579 -0.8652  1.9227
 1813TP3     H217259   0.213   4.257   8.704  1.0018 -0.8729  0.1409
 1814TP3      O17260   4.307   0.280   1.203 -0.1401  0.5194  0.4272
 1814TP3     H117261   4.240   0.212   1.193 -1.2692  1.6921 -0.2179
 1814TP3     H217262   4.331   0.275   1.296 -0.6270 -0.3597  0.5258
 1815TP3      O17263   3.537   5.018   9.881  0.2534  0.2590 -0.4957
 1815TP3     H117264   3.629   5.044   9.887  0.1808  0.5945 -0.7992
 1815TP3     H217265   3.492   5.074   9.944  0.1167  0.7899 -1.0536
 1816TP3      O17266   1.267   0.324   8.118  0.0481 -0.1708  0.3953
 1816TP3     H117267   1.215   0.253   8.081 -1.2160 -0.7813  3.1018
 1816TP3     H217268   1.347   0.283   8.150  0.6957  0.1900 -0.6973
 1817TP3      O17269   3.001   2.788   6.928 -0.6076  0.2240 -0.4448
 1817TP3     H117270   3.002   2.693   6.915 -2.6884 -0.1346  1.4264
 1817TP3     H217271   3.073   2.804   6.989 -0.4175 -0.1694 -0.5593
 1818TP3      O17272   2.204   1.538  10.156  0.2805 -0.7475  0.0734
 1818TP3     H117273   2.262   1.525  10.230  2.9119 -0.5426 -1.8228
 1818TP3     H217274   2.224   1.626  10.125 -0.1236 -1.1505 -1.4122
 1819TP3      O17275   0.744   2.088   0.777  0.0536  0.2035  0.4113
 1819TP3     H117276   0.665   2.036   0.790 -0.6512  1.4830  1.4857
 1819TP3     H217277   0.783   2.095   0.864  1.3869 -0.4020 -0.0968
 1820TP3      O17278   4.970   5.088   2.680 -0.7673 -0.4406  0.0151
 1820TP3     H117279   5.036   5.093   2.610 -1.3858 -3.2818 -0.8979
 1820TP3     H217280   4.976   5.173   2.724  0.8094  0.8557 -2.4354
 1821TP3      O17281   0.472   3.972   8.120 -0.3084  0.4590 -0.3304
 1821TP3     H117282   0.398   3.912   8.107  0.3852 -0.6064  0.5285
 1821TP3     H217283   0.435   4.059   8.101 -1.3635 -0.1969 -1.4708
 1822TP3      O17284   2.220   3.281   9.285  0.8011 -0.2011  0.5775
 1822TP3     H117285   2.217   3.243   9.197 -1.5683 -0.1627  0.5774
 1822TP3     H217286   2.237   3.207   9.343 -0.1815 -0.6817  0.2737
 1823TP3      O17287   2.988   2.244   3.025  0.0993  0.3431  0.3465
 1823TP3     H117288   2.992   2.242   2.929  0.0248  0.3563  0.3429
 1823TP3     H217289   3.078   2.230   3.053  0.3458  1.7046  0.2601
 1824TP3      O17290   0.240   2.648   8.195 -0.5843 -0.4805 -0.1485
 1824TP3     H117291   0.323   2.644   8.147 -0.4539  0.2109  0.0196
 1824TP3     H217292   0.180   2.593   8.143 -0.1600 -0.5795 -0.5360
 1825TP3      O17293   0.150   2.484   7.128  0.5815 -0.2924  0.2099
 1825TP3     H117294   0.169   2.425   7.055  0.9815  0.4188 -0.2796
 1825TP3     H217295   0.055   2.498   7.124  0.5863 -0.3439 -0.1113
 1826TP3      O17296   0.068   2.406   8.867  0.6231  0.8005  0.1114
 1826TP3     H117297   0.061   2.490   8.821 -1.7615 -0.1152 -1.4007
 1826TP3     H217298   0.058   2.340   8.798 -0.0667 -0.6937  1.5544
 1827TP3      O17299   4.544   4.339   1.370  0.1052  0.1894  0.0282
 1827TP3     H117300   4.576   4.256   1.335  0.2874 -0.1296  0.9284
 1827TP3     H217301   4.460   4.352   1.328 -0.1845 -0.7437  0.2979
 1828TP3      O17302   1.136   1.923   0.619  0.0172  0.1008 -0.1898
 1828TP3     H117303   1.128   1.828   0.625 -0.7483  0.0935 -1.1594
 1828TP3     H217304   1.223   1.937   0.582 -0.1670 -0.2511 -0.7680
 1829TP3      O17305   0.431   0.747   0.272 -0.8881  0.2092  0.1459
 1829TP3     H117306   0.366   0.733   0.341 -0.0050  0.9142  1.1455
 1829TP3     H217307   0.420   0.839   0.247 -1.1813 -0.0293 -0.6555
 1830TP3      O17308   2.750   4.122   7.700  0.1078  0.3806  0.1073
 1830TP3     H117309   2.798   4.040   7.698  0.2919  0.5029 -0.4239
 1830TP3     H217310   2.681   4.107   7.765 -0.2277 -0.3949 -0.4134
 1831TP3      O17311   2.755   4.903   9.843  0.6291 -0.6131 -0.3442
 1831TP3     H117312   2.688   4.881   9.778 -1.1222 -0.8831  1.4658
 1831TP3     H217313   2.807   4.823   9.852  0.1504 -0.9530 -0.5731
 1832TP3      O17314   1.501   0.290   7.074  0.5420  0.3536  0.3001
 1832TP3     H117315   1.455   0.242   7.005  0.2883  0.7621  0.1815
 1832TP3     H217316   1.448   0.277   7.152  0.5487  0.3306  0.3010
 1833TP3      O17317   1.471   0.968   2.193  0.4300 -0.0496  0.3881
 1833TP3     H117318   1.450   0.894   2.250 -1.1792  0.3264  0.3228
 1833TP3     H217319   1.391   1.021   2.192  1.0489  0.9002 -0.7627
 1834TP3      O17320   5.202   4.816   1.950  0.2229  0.0227  0.3226
 1834TP3     H117321   5.143   4.744   1.971  0.4349 -0.2855 -0.1341
 1834TP3     H217322   5.153   4.871   1.889  1.2296 -1.4805 -1.9423
 1835TP3      O17323   2.986   2.139   1.260 -0.3602  0.2033  0.0807
 1835TP3     H117324   2.935   2.181   1.191 -1.3328 -2.4609 -0.9591
 1835TP3     H217325   2.920   2.108   1.323  0.1014 -1.2947 -0.1241
 1836TP3      O17326   1.193   0.036   8.298 -0.3584 -0.1658  0.0157
 1836TP3     H117327   1.153   0.020   8.212 -0.0500 -0.9735  0.0141
 1836TP3     H217328   1.268   0.093   8.279 -1.0462  0.7346 -0.0758
 1837TP3      O17329   0.026   3.230   8.538 -0.1226  0.5805  0.1320
 1837TP3     H117330   0.072   3.170   8.478 -0.5014  0.0902  0.3251
 1837TP3     H217331   0.096   3.272   8.588  0.2225  1.2188 -0.8574
 1838TP3      O17332   1.992   1.333   1.580 -0.2649  0.2284 -0.2036
 1838TP3     H117333   1.954   1.245   1.573  0.0375  0.0632  0.1891
 1838TP3     H217334   1.955   1.381   1.506 -1.4434  0.1456  0.3088
 1839TP3      O17335   2.664   4.646   9.975  0.4234 -0.2434  0.4510
 1839TP3     H117336   2.573   4.662  10.000  0.3442 -0.9886  0.6490
 1839TP3     H217337   2.714   4.664  10.055  0.4484  0.1044  0.3596
 1840TP3      O17338   0.055   1.440   1.941  0.8753 -0.2783 -0.7054
 1840TP3     H117339   0.102   1.427   1.859 -1.7802  0.0438 -2.4097
 1840TP3     H217340   0.002   1.518   1.926 -0.9481 -1.1681  0.6761
 1841TP3      O17341   2.538   4.239   0.780  0.1300  0.0310 -0.3575
 1841TP3     H117342   2.565   4.331   0.786  0.5966 -0.1691  0.8015
 1841TP3     H217343   2.485   4.236   0.700 -0.4616  1.4547 -0.0630
 1842TP3      O17344   3.566   3.841   2.620 -0.0861  0.6286 -0.5740
 1842TP3     H117345   3.590   3.914   2.563  1.3957  0.1495 -0.6109
 1842TP3     H217346   3.598   3.764   2.574 -2.8480 -0.2526 -1.2124
 1843TP3      O17347   4.047   3.937   0.208 -0.1811 -0.4149  0.4653
 1843TP3     H117348   3.966   3.987   0.214 -0.2658 -0.2844 -1.3312
 1843TP3     H217349   4.116   4.004   0.208 -0.1682 -0.4287  0.2570
 1844TP3      O17350   3.704   0.293   9.667  0.0665 -0.5831  0.3674
 1844TP3     H117351   3.799   0.296   9.675  0.1794  0.5616 -1.1307
 1844TP3     H217352   3.675   0.382   9.687 -0.4191 -0.1845 -1.8647
 1845TP3      O17353   4.013   2.035   0.656  0.2943 -0.5796 -0.1721
 1845TP3     H117354   4.038   1.953   0.699  1.3094 -0.7087 -0.9571
 1845TP3     H217355   4.027   2.103   0.723  1.4199 -0.8241 -0.1332
 1846TP3      O17356   2.616   1.386   1.551  0.0569 -0.0455 -0.2462
 1846TP3     H117357   2.611   1.305   1.602 -1.1308 -0.0228 -0.2807
 1846TP3     H217358   2.678   1.441   1.599 -0.8101 -0.1326  1.0514
 1847TP3      O17359   0.168   3.004   6.740  0.1294 -0.4803  0.1206
 1847TP3     H117360   0.088   2.953   6.736  0.3899 -0.9510  0.6743
 1847TP3     H217361   0.148   3.085   6.693 -0.1726 -1.2281 -1.0745
 1848TP3      O17362   4.138   2.891   3.200  0.3211 -0.4645 -0.2680
 1848TP3     H117363   4.112   2.937   3.280  0.2098 -0.7016 -0.1677
 1848TP3     H217364   4.164   2.961   3.140  1.3081 -0.3346  0.2887
 1849TP3      O17365   5.058   3.411   8.508 -0.0246  0.4033 -0.0369
 1849TP3     H117366   5.037   3.426   8.416 -0.0541  0.5756 -0.0031
 1849TP3     H217367   5.121   3.338   8.507 -0.5109 -0.0211 -0.1482
 1850TP3      O17368   2.238   0.026   3.699 -0.3941  0.0425  0.0577
 1850TP3     H117369   2.286  -0.044   3.655 -0.1172 -0.3746  0.9893
 1850TP3     H217370   2.305   0.079   3.742 -0.7386 -0.6658  1.5448
 1851TP3      O17371   2.654   4.338   3.238  0.2021 -0.1499 -0.0246
 1851TP3     H117372   2.631   4.247   3.260  1.0355 -0.1876  0.7802
 1851TP3     H217373   2.709   4.366   3.312  1.1329  0.5397 -0.9620
 1852TP3      O17374   4.290   0.419   8.348  0.4455 -0.2712  0.0061
 1852TP3     H117375   4.267   0.499   8.301  1.5054  0.4937  0.7287
 1852TP3     H217376   4.386   0.419   8.350  0.4705 -1.6852 -0.1622
 1853TP3      O17377   4.824   4.825   0.224  0.6368  0.2265  0.0768
 1853TP3     H117378   4.911   4.804   0.258  1.2084  1.6781 -0.4152
 1853TP3     H217379   4.818   4.920   0.231 -0.1272  0.3550 -1.7136
 1854TP3      O17380   4.709   5.135   9.903  0.8228 -0.0217  0.3422
 1854TP3     H117381   4.731   5.050   9.941 -2.9483  0.0401  3.2870
 1854TP3     H217382   4.740   5.199   9.967 -0.6975  0.4519  0.6568
 1855TP3      O17383   3.906   2.541   8.675  0.6619  0.3916 -0.1648
 1855TP3     H117384   3.889   2.513   8.765  0.7916 -0.3206 -0.3541
 1855TP3     H217385   4.001   2.551   8.671  0.6655  0.3195 -0.2538
 1856TP3      O17386   3.326   3.556  10.016  0.4334  0.3002 -0.5470
 1856TP3     H117387   3.377   3.540  10.095 -2.1169  0.1216  1.1683
 1856TP3     H217388   3.366   3.635   9.978 -0.0416  2.2056  2.5744
 1857TP3      O17389   4.077   2.920   8.743  0.3265 -0.4559  0.0588
 1857TP3     H117390   4.035   2.988   8.691 -0.1435 -1.8972 -1.5489
 1857TP3     H217391   4.005   2.863   8.771  0.9824 -2.2961 -1.7365
 1858TP3      O17392   1.700   1.310   2.703  0.1212 -0.2640  0.2033
 1858TP3     H117393   1.612   1.336   2.731 -0.5718  0.3157 -2.2566
 1858TP3     H217394   1.712   1.222   2.740 -1.6994 -0.5530  0.2018
 1859TP3      O17395   2.267   3.471   7.206 -0.3683 -0.5374  0.3857
 1859TP3     H117396   2.250   3.565   7.200  1.2523 -0.0437  2.3097
 1859TP3     H217397   2.312   3.449   7.125  0.4573  0.6861  0.4795
 1860TP3      O17398   0.841   2.370   8.199 -0.1776 -0.3284  0.0760
 1860TP3     H117399   0.844   2.442   8.263 -2.2217  1.2870 -1.5028
 1860TP3     H217400   0.828   2.292   8.252  0.3930  0.6618  1.7637
 1861TP3      O17401   0.064   3.969  10.303 -0.5421 -0.0443  0.0545
 1861TP3     H117402   0.033   4.047  10.257 -2.3664 -0.3079  0.7591
 1861TP3     H217403   0.048   3.988  10.396  0.8884 -0.4670  0.4235
 1862TP3      O17404   2.080   4.288   2.430 -0.3159  0.8279  0.0119
 1862TP3     H117405   1.994   4.300   2.470 -0.0289 -0.7464  1.1773
 1862TP3     H217406   2.088   4.194   2.416  1.3944  0.8799  0.3560
 1863TP3      O17407   3.096   1.737   1.015  0.0325  0.8952 -0.5759
 1863TP3     H117408   3.165   1.791   1.052 -0.7396  2.1422 -0.8940
 1863TP3     H217409   3.114   1.649   1.048  2.2412  0.9958 -1.3255
 1864TP3      O17410   3.626   1.631   9.288 -0.0506 -0.5298 -1.1255
 1864TP3     H117411   3.645   1.646   9.381  0.0063  1.9577 -1.4615
 1864TP3     H217412   3.707   1.654   9.243 -0.7753  0.6185 -1.9115
 1865TP3      O17413   3.729   3.626   0.551 -0.3682  0.4224 -0.0070
 1865TP3     H117414   3.732   3.722   0.554  0.6101  0.4120 -0.2235
 1865TP3     H217415   3.687   3.606   0.468 -1.1891  0.6559  0.3388
 1866TP3      O17416   1.359   1.959   9.669  0.2026 -0.1750  0.6946
 1866TP3     H117417   1.378   1.931   9.580  0.8274 -1.9153  1.3295
 1866TP3     H217418   1.305   1.889   9.705  0.0464  0.4482  1.7214
 1867TP3      O17419   0.495   4.901   0.440  0.0603 -0.2723  0.1849
 1867TP3     H117420   0.531   4.859   0.518 -1.5187  0.2592  1.2575
 1867TP3     H217421   0.424   4.957   0.473 -0.9742 -0.3819 -1.6743
 1868TP3      O17422   0.802   0.480   0.997  0.8568  0.5045 -0.1159
 1868TP3     H117423   0.897   0.474   1.001  0.7662 -1.0255  1.1249
 1868TP3     H217424   0.779   0.543   1.064  0.9883  0.8688 -0.4103
 1869TP3      O17425   3.489   4.512  10.138 -0.2724  0.5160 -0.4971
 1869TP3     H117426   3.463   4.421  10.131 -1.9313  0.9344 -0.0770
 1869TP3     H217427   3.477   4.534  10.230  1.5769  0.7620 -0.2752
 1870TP3      O17428   0.104   5.000   3.494 -0.0685 -0.0814  0.0216
 1870TP3     H117429   0.048   5.036   3.563 -0.0840 -0.4791  0.2149
 1870TP3     H217430   0.104   5.068   3.426  0.5395  0.6454  0.7165
 1871TP3      O17431   3.178   1.299   2.573  0.1201 -0.3693 -0.2864
 1871TP3     H117432   3.227   1.218   2.588  0.7995  0.2496  0.9234
 1871TP3     H217433   3.182   1.345   2.656 -1.1525  0.4454 -0.6606
 1872TP3      O17434   3.561   0.565   3.212  0.3181 -0.3696  0.5222
 1872TP3     H117435   3.638   0.546   3.159  0.3128 -0.4068  0.5277
 1872TP3     H217436   3.513   0.482   3.215  0.4556 -0.4377  0.8080
 1873TP3      O17437   0.994   4.959   8.088  0.2365 -0.2829 -0.1951
 1873TP3     H117438   0.995   4.877   8.037  2.0381  0.3477 -1.2846
 1873TP3     H217439   0.933   5.016   8.040 -0.2726 -0.6462  0.0101
 1874TP3      O17440   0.815   2.437   7.635  0.4255  0.0620  0.4108
 1874TP3     H117441   0.832   2.402   7.547  3.5295  0.3784  0.7627
 1874TP3     H217442   0.878   2.509   7.644  0.7064 -0.4167  3.1282
 1875TP3      O17443   3.299   0.040   9.888 -0.0891 -0.8559  0.6313
 1875TP3     H117444   3.242   0.111   9.916  0.4487 -1.0299  2.2674
 1875TP3     H217445   3.379   0.085   9.859 -0.6243 -0.6802 -0.6544
 1876TP3      O17446   2.728   0.187  10.357  0.1428 -0.4125  0.0218
 1876TP3     H117447   2.725   0.276  10.393  0.7347 -0.3438 -0.0833
 1876TP3     H217448   2.777   0.137  10.422  0.9979 -0.3445 -0.5577
 1877TP3      O17449   2.913   1.979   1.753  0.0768 -0.0969 -0.0097
 1877TP3     H117450   2.865   2.000   1.833  1.9897 -1.8690  1.7344
 1877TP3     H217451   2.854   1.924   1.702 -1.1011  0.9082  0.2424
 1878TP3      O17452   1.444   1.553   0.456 -0.1644 -0.4882  0.1198
 1878TP3     H117453   1.431   1.628   0.513 -0.9851 -0.5854  0.0680
 1878TP3     H217454   1.532   1.564   0.421 -0.7497  1.1578 -0.9232
 1879TP3      O17455   4.510   3.218   3.125  0.5878  0.1665  0.5967
 1879TP3     H117456   4.584   3.274   3.104 -0.0802  0.7545 -0.2431
 1879TP3     H217457   4.494   3.235   3.218  0.9548  0.7052  0.5697
 1880TP3      O17458   3.727   1.219   0.929  0.4279 -0.0894 -0.8170
 1880TP3     H117459   3.757   1.180   0.847 -0.1130  1.7747 -1.9584
 1880TP3     H217460   3.796   1.280   0.953  2.0811 -2.7295  1.8552
 1881TP3      O17461   1.847   1.659   1.212  0.2119  0.0502 -0.0422
 1881TP3     H117462   1.870   1.582   1.263  1.7634  0.6496  0.2176
 1881TP3     H217463   1.808   1.625   1.132  0.3012 -0.9781  0.3460
 1882TP3      O17464   1.293   2.938   9.983  0.2302 -0.1972 -0.3955
 1882TP3     H117465   1.216   2.930  10.040 -0.0786 -0.3565 -0.8237
 1882TP3     H217466   1.311   3.031   9.980  0.4110 -0.2077  0.1680
 1883TP3      O17467   1.724   3.565   7.988  0.3115 -0.0694  0.3079
 1883TP3     H117468   1.713   3.658   7.971  1.5377 -0.0890 -0.7495
 1883TP3     H217469   1.653   3.523   7.939  1.0560  0.1876 -1.0286
 1884TP3      O17470   3.598   5.089   1.288  0.1658  0.3212  0.0175
 1884TP3     H117471   3.666   5.076   1.222 -0.7985  0.5960 -1.0655
 1884TP3     H217472   3.529   5.027   1.264  0.2464 -0.3564  1.4295
 1885TP3      O17473   4.237   1.249   0.583  0.2315  0.0460  0.0827
 1885TP3     H117474   4.199   1.266   0.669  0.3508  0.3844  0.0715
 1885TP3     H217475   4.189   1.173   0.550 -0.8006  0.7506 -0.1317
 1886TP3      O17476   1.930   1.934   3.102  0.2242  0.5884  0.1983
 1886TP3     H117477   1.875   2.008   3.124 -0.0959  0.0674  1.2329
 1886TP3     H217478   2.011   1.949   3.151 -0.2291 -0.2340  1.2440
 1887TP3      O17479   4.721   2.668   8.610  0.7659 -0.1780  0.1718
 1887TP3     H117480   4.628   2.647   8.614  0.6086  0.3679 -0.4784
 1887TP3     H217481   4.738   2.719   8.689  0.4448 -0.0097  0.1316
 1888TP3      O17482   2.171   2.227   7.135  0.1829 -0.0949 -0.0345
 1888TP3     H117483   2.140   2.310   7.099 -1.2142 -1.5597 -2.4224
 1888TP3     H217484   2.266   2.231   7.123  0.0323  0.7233 -1.1487
 1889TP3      O17485   0.658   2.406   8.818 -0.3058 -0.1866 -0.1965
 1889TP3     H117486   0.581   2.393   8.762  0.7129 -0.9876 -1.4611
 1889TP3     H217487   0.629   2.468   8.885 -2.2570 -0.9853 -0.2292
 1890TP3      O17488   1.132   3.168   7.319 -0.4218 -0.3737 -0.7335
 1890TP3     H117489   1.224   3.169   7.346 -0.9064 -0.0277  1.0133
 1890TP3     H217490   1.114   3.259   7.294  0.0107 -0.6813 -2.2186
 1891TP3      O17491   3.144   2.199   8.840 -0.0685 -0.4408  0.1571
 1891TP3     H117492   3.060   2.245   8.835 -0.7126 -1.6507 -4.1219
 1891TP3     H217493   3.135   2.140   8.915 -2.2064  0.8870  1.0371
 1892TP3      O17494   1.919   1.477  10.125 -0.0913 -0.4810 -0.0206
 1892TP3     H117495   2.008   1.504  10.148  0.3907 -1.2167 -0.9483
 1892TP3     H217496   1.864   1.516  10.193  1.0481 -0.9150  1.1954
 1893TP3      O17497   0.981   4.690   2.663 -0.4121  0.4742  0.4475
 1893TP3     H117498   0.900   4.666   2.619  0.4480  0.6438 -1.3027
 1893TP3     H217499   0.978   4.785   2.671 -0.5234  0.4523  0.6701
 1894TP3      O17500   3.983   1.862   9.269  0.8972 -0.5138  0.0352
 1894TP3     H117501   3.927   1.933   9.300  0.4971 -0.1967 -1.3524
 1894TP3     H217502   4.050   1.852   9.338 -1.8152 -2.1387  2.6696
 1895TP3      O17503   4.316   3.190   2.412 -0.2442  0.2451  0.0491
 1895TP3     H117504   4.247   3.196   2.346 -1.1122 -1.3103  0.7592
 1895TP3     H217505   4.372   3.118   2.383 -1.3725 -1.3394  1.5959
 1896TP3      O17506   2.062   5.065   8.595  0.1134  0.5344 -0.1541
 1896TP3     H117507   2.100   5.144   8.559 -2.6778  1.1638 -1.9949
 1896TP3     H217508   2.101   4.994   8.543 -0.6520  1.0893 -1.5225
 1897TP3      O17509   4.687   3.913   7.936 -0.3841  0.3257 -0.0505
 1897TP3     H117510   4.703   3.978   7.868 -2.4611  0.5969 -0.3453
 1897TP3     H217511   4.738   3.836   7.909 -0.2357  0.8376 -1.2553
 1898TP3      O17512   0.072   4.022   8.171  0.4077  0.4116 -0.2116
 1898TP3     H117513   0.103   3.956   8.234 -2.3196 -1.4313 -0.6340
 1898TP3     H217514   0.103   3.991   8.086  0.1722  0.3301 -0.2694
 1899TP3      O17515   4.594   0.869   7.648 -0.3067  0.6671  0.1582
 1899TP3     H117516   4.577   0.851   7.556 -0.3547  1.0046  0.0987
 1899TP3     H217517   4.633   0.956   7.648  0.9225  0.1412  0.3427
 1900TP3      O17518   2.738   2.999   7.777  0.2905 -0.3548  0.5411
 1900TP3     H117519   2.722   2.960   7.691 -0.8318  0.9389  0.1382
 1900TP3     H217520   2.740   3.093   7.762 -0.5234 -0.0658  2.0121
 1901TP3      O17521   2.109   0.426   0.626  0.6719 -0.1889  0.2052
 1901TP3     H117522   2.198   0.436   0.592  1.2393 -0.3289  1.6149
 1901TP3     H217523   2.076   0.346   0.584  2.2133 -1.6927  1.7093
 1902TP3      O17524   3.100   1.053   2.404  0.0876  0.2961  0.0633
 1902TP3     H117525   3.051   1.035   2.484  1.1292 -1.0929  0.4220
 1902TP3     H217526   3.046   1.018   2.333 -0.2775  0.4243  0.2800
 1903TP3      O17527   1.285   2.914   8.038 -0.1187  0.0069  0.1334
 1903TP3     H117528   1.213   2.890   7.980  0.9090  1.4705 -1.8294
 1903TP3     H217529   1.248   2.982   8.095 -0.3882  0.5265 -0.6524
 1904TP3      O17530   4.670   4.073   1.736  0.1381 -0.4814  0.0019
 1904TP3     H117531   4.610   4.068   1.661  0.0103 -0.1221  0.0783
 1904TP3     H217532   4.758   4.072   1.696  0.1384  3.6687 -0.5200
 1905TP3      O17533   1.251   2.404   7.318  0.0927  0.4497  0.1480
 1905TP3     H117534   1.177   2.351   7.349  2.0698 -2.3520  0.5136
 1905TP3     H217535   1.251   2.390   7.223  0.3231  0.2076  0.1837
 1906TP3      O17536   1.180   0.306   3.242  0.4271 -0.2442  0.1937
 1906TP3     H117537   1.240   0.354   3.299  1.3661  0.0962 -1.0398
 1906TP3     H217538   1.093   0.334   3.270  0.8915  3.8175 -1.7000
 1907TP3      O17539   3.289   0.126   1.485  0.2031  0.0611 -0.0177
 1907TP3     H117540   3.332   0.183   1.549 -0.6994 -1.2010  1.8006
 1907TP3     H217541   3.208   0.171   1.463  0.4998  0.4864 -0.2366
 1908TP3      O17542   2.875   1.699   7.853  0.2407  0.3205 -0.0002
 1908TP3     H117543   2.878   1.618   7.903 -0.3208  1.1686  1.4717
 1908TP3     H217544   2.955   1.698   7.800  0.6071 -0.8342  0.5521
 1909TP3      O17545   0.581   1.318   7.892  0.2114 -0.1219 -0.2610
 1909TP3     H117546   0.621   1.311   7.978  0.2903  0.8756 -0.2064
 1909TP3     H217547   0.524   1.241   7.885  0.4903 -0.4027  0.5222
 1910TP3      O17548   2.176   3.335   6.845  0.1262 -1.0860  0.5713
 1910TP3     H117549   2.198   3.251   6.884  2.6553 -0.1139  1.4086
 1910TP3     H217550   2.248   3.393   6.869 -0.7467  0.9353 -1.2922
 1911TP3      O17551   2.728   4.353   2.086  0.0221  0.0782 -0.1470
 1911TP3     H117552   2.640   4.379   2.061 -0.9562 -1.5125  1.4431
 1911TP3     H217553   2.756   4.294   2.015  0.7036  2.1954 -1.7285
 1912TP3      O17554   3.729   1.790   8.747  0.2473  0.4491  0.1016
 1912TP3     H117555   3.751   1.805   8.839 -0.2409  1.0180  0.1298
 1912TP3     H217556   3.739   1.875   8.705 -2.5612  0.9748  0.2758
 1913TP3      O17557   1.168   3.271   2.453 -0.1302  0.6425  0.2529
 1913TP3     H117558   1.259   3.277   2.482 -0.1971  1.3093  0.3261
 1913TP3     H217559   1.128   3.208   2.513 -0.2614  1.9673  1.6304
 1914TP3      O17560   4.719   0.079   1.435  0.0447  0.0017  0.0608
 1914TP3     H117561   4.769   0.085   1.354 -0.0166 -1.9233 -0.1652
 1914TP3     H217562   4.766   0.013   1.487 -0.3151  0.6827  1.3008
 1915TP3      O17563   2.356   0.017   3.129 -0.2988 -0.3493  0.8077
 1915TP3     H117564   2.372  -0.075   3.150 -0.4202 -0.3394  0.9392
 1915TP3     H217565   2.382   0.065   3.208 -1.1061 -0.3424  1.0755
 1916TP3      O17566   0.334   4.215   8.093  0.0610  0.2678 -0.0898
 1916TP3     H117567   0.302   4.239   8.180  0.2114  1.9811 -0.4714
 1916TP3     H217568   0.255   4.206   8.040 -0.0364 -0.8684  0.2215
 1917TP3      O17569   3.126   3.259  10.405 -0.0984  0.1011 -0.0503
 1917TP3     H117570   3.140   3.293  10.493 -0.4359  0.2139 -0.0350
 1917TP3     H217571   3.067   3.185  10.417 -2.0356  1.4995 -0.3652
 1918TP3      O17572   1.160   5.052   1.386 -0.2491  0.2868  0.1704
 1918TP3     H117573   1.125   5.012   1.466  0.7365 -1.7925 -0.3631
 1918TP3     H217574   1.209   4.981   1.344  0.4157  1.7245 -1.5843
 1919TP3      O17575   3.417   0.785   7.689 -0.4735 -0.6846 -0.0754
 1919TP3     H117576   3.485   0.773   7.623 -0.6996  0.6192 -0.5789
 1919TP3     H217577   3.370   0.863   7.661 -0.0382  0.4364  2.1085
 1920TP3      O17578   2.270   0.101   9.454  0.5579 -0.4308  0.1351
 1920TP3     H117579   2.226   0.025   9.492  3.0484 -2.1993 -0.2734
 1920TP3     H217580   2.296   0.153   9.529  0.5314 -0.9880  0.5437
 1921TP3      O17581   0.214   0.116   8.790 -0.2249  0.9199 -0.2256
 1921TP3     H117582   0.131   0.070   8.778 -0.4000  0.9669  0.7511
 1921TP3     H217583   0.239   0.098   8.881  0.9398  0.7362 -0.5661
 1922TP3      O17584   4.123   1.919   8.684  0.4421 -0.0848  0.2885
 1922TP3     H117585   4.141   1.929   8.778  0.3832  1.5634  0.1438
 1922TP3     H217586   4.138   1.826   8.668  0.2965 -0.4438  1.9656
 1923TP3      O17587   4.548   3.430   8.912  0.5313 -0.5396  0.1644
 1923TP3     H117588   4.553   3.384   8.828  2.7476 -0.1720  0.0361
 1923TP3     H217589   4.538   3.522   8.888 -1.6475 -0.6585  0.3981
 1924TP3      O17590   2.553   4.828   2.465  0.2367 -0.3225  0.0950
 1924TP3     H117591   2.569   4.734   2.475  1.8223 -0.1076 -0.1585
 1924TP3     H217592   2.635   4.862   2.429 -0.4766  1.0948 -0.2486
 1925TP3      O17593   2.652   4.857   0.161 -1.1058  0.1290  0.0792
 1925TP3     H117594   2.702   4.851   0.079 -0.6737  0.3353  0.3249
 1925TP3     H217595   2.562   4.870   0.132 -0.8577  0.9851 -0.3743
 1926TP3      O17596   5.190   2.829   2.913  0.3698 -0.1706  0.0188
 1926TP3     H117597   5.276   2.790   2.927  0.5341 -0.3558 -1.3735
 1926TP3     H217598   5.138   2.759   2.875  0.0427  0.3612 -0.5247
 1927TP3      O17599   2.958   1.649   8.611 -0.5661 -0.2645 -0.0050
 1927TP3     H117600   3.045   1.634   8.648 -1.2954 -1.9722  1.1254
 1927TP3     H217601   2.967   1.730   8.561  1.3500  0.2835  1.1301
 1928TP3      O17602   0.854   3.279   7.086 -0.1514  0.3665  0.4606
 1928TP3     H117603   0.787   3.310   7.148 -1.8900 -2.1267 -0.0216
 1928TP3     H217604   0.804   3.248   7.010  1.7249  0.3862 -0.8391
 1929TP3      O17605   4.606   2.928   9.313 -0.6312  0.1919 -0.0246
 1929TP3     H117606   4.642   2.964   9.232 -0.2210 -1.0240 -0.4001
 1929TP3     H217607   4.672   2.948   9.380 -0.7491  0.7736 -0.0788
 1930TP3      O17608   0.781   4.344   2.151 -0.3834 -0.0382  0.3716
 1930TP3     H117609   0.803   4.298   2.070  1.9058  0.8304  0.4264
 1930TP3     H217610   0.825   4.428   2.143 -0.3975  0.2003  2.3662
 1931TP3      O17611   2.936   3.419   9.272  0.2973 -0.2574  0.5959
 1931TP3     H117612   2.977   3.395   9.355  1.4096  1.2029  0.5140
 1931TP3     H217613   3.008   3.433   9.212 -0.4683 -0.5552 -0.4197
 1932TP3      O17614   1.657   1.597   2.317  0.2481 -0.3446  0.0752
 1932TP3     H117615   1.608   1.627   2.240 -1.9100 -0.0689  1.4934
 1932TP3     H217616   1.680   1.677   2.364 -2.5409 -0.5967  2.0867
 1933TP3      O17617   0.949   4.254   2.977  0.2368 -0.4518  0.1255
 1933TP3     H117618   0.893   4.296   2.912 -1.8493 -1.1755  1.3907
 1933TP3     H217619   0.921   4.163   2.979 -0.0191 -0.3881  2.2398
 1934TP3      O17620   3.752   3.711  10.412  0.0713  1.1082  0.2637
 1934TP3     H117621   3.828   3.769  10.414  0.9429 -0.0175  1.3269
 1934TP3     H217622   3.779   3.637  10.357  0.9443 -0.7799  3.0447
 1935TP3      O17623   0.010   4.294   1.222 -0.2846 -0.0459  0.5235
 1935TP3     H117624   0.082   4.278   1.283 -0.3085  1.0831  0.8900
 1935TP3     H217625  -0.066   4.254   1.264 -0.7336  2.4325  2.3378
 1936TP3      O17626   2.161   0.867   0.102  0.0806  0.3721 -0.2550
 1936TP3     H117627   2.165   0.950   0.055 -1.4406  0.6759  0.1210
 1936TP3     H217628   2.113   0.809   0.043  0.4508 -0.0103 -0.1813
 1937TP3      O17629   3.483   2.119   8.702  0.3246 -0.0720 -0.0197
 1937TP3     H117630   3.549   2.184   8.725 -0.2258  0.1639  0.9739
 1937TP3     H217631   3.438   2.101   8.785  0.2710 -1.4942 -0.3448
 1938TP3      O17632   3.631   4.721   1.283 -0.4122  0.2066 -0.2102
 1938TP3     H117633   3.588   4.793   1.237  0.3814 -0.1068 -1.4962
 1938TP3     H217634   3.721   4.720   1.249  0.4966  0.4886  1.9840
 1939TP3      O17635   3.967   3.403   8.606 -0.0619  0.0123  0.1659
 1939TP3     H117636   3.872   3.411   8.599 -0.0338 -0.6389 -1.3105
 1939TP3     H217637   4.001   3.454   8.533  0.7169  0.0288  0.5268
 1940TP3      O17638   2.345   2.801   1.179  0.4921  0.3618 -0.0014
 1940TP3     H117639   2.406   2.873   1.165  1.9451 -1.0557 -1.4223
 1940TP3     H217640   2.401   2.723   1.185 -0.8755 -0.5612  2.9237
 1941TP3      O17641   1.512   5.186   8.009 -0.1927 -0.1487 -0.3693
 1941TP3     H117642   1.483   5.218   7.924 -0.0479 -0.0645 -0.3884
 1941TP3     H217643   1.438   5.136   8.043 -0.4905  0.3705 -0.2566
 1942TP3      O17644   2.577   4.406   7.414  0.3162 -0.2625  0.4480
 1942TP3     H117645   2.534   4.427   7.331  1.7886 -0.4226 -0.3777
 1942TP3     H217646   2.670   4.418   7.397  0.6754 -0.6613  1.9821
 1943TP3      O17647   2.279   1.127   8.756 -0.1886 -0.4871 -0.3616
 1943TP3     H117648   2.332   1.109   8.834 -0.5124 -1.6241 -0.3892
 1943TP3     H217649   2.202   1.173   8.790 -1.0765 -2.3412  0.2252
 1944TP3      O17650   4.630   5.220   9.154  0.0391  0.4982 -0.7447
 1944TP3     H117651   4.614   5.148   9.215  0.4480 -1.1322 -2.4588
 1944TP3     H217652   4.623   5.299   9.207  2.4195 -0.8775  1.9001
 1945TP3      O17653   0.490   3.075   1.189  0.2552 -1.2551  0.4935
 1945TP3     H117654   0.431   3.022   1.244  1.4761 -1.0160  2.1150
 1945TP3     H217655   0.432   3.116   1.125 -1.7194  0.5595  3.2272
 1946TP3      O17656   4.428   3.042   0.192 -0.0427 -0.4348  0.3928
 1946TP3     H117657   4.500   3.007   0.245  0.1522 -0.8192 -0.1211
 1946TP3     H217658   4.384   3.104   0.250 -0.4751 -1.6094  1.3678
 1947TP3      O17659   5.065   0.700  10.126  0.2110 -0.2603 -0.0639
 1947TP3     H117660   5.143   0.673  10.078  0.4274  0.7177 -0.2814
 1947TP3     H217661   5.027   0.770  10.073 -0.0404  0.2191  0.7281
 1948TP3      O17662   2.085   3.611   2.899  0.3945  0.2713 -0.4461
 1948TP3     H117663   1.993   3.611   2.925  0.3035  0.4111 -0.7702
 1948TP3     H217664   2.129   3.662   2.968  0.3162 -0.2427 -0.0058
 1949TP3      O17665   2.248   4.040   9.418  0.6469  0.8391 -0.6197
 1949TP3     H117666   2.167   4.025   9.468  0.4916 -0.3144 -1.1748
 1949TP3     H217667   2.290   4.113   9.463  0.0966  0.3928  0.6934
 1950TP3      O17668   4.931   4.520  10.070  0.8264  0.1850 -0.2002
 1950TP3     H117669   4.861   4.582  10.046  0.5239 -0.9415 -2.4562
 1950TP3     H217670   4.906   4.489  10.157  0.0537  1.8995  0.2410
 1951TP3      O17671   4.912   2.197   0.607 -0.9137 -0.3198 -0.2795
 1951TP3     H117672   4.980   2.262   0.588 -1.2306  0.2867  0.6102
 1951TP3     H217673   4.881   2.169   0.520  1.2060 -1.4365 -0.7591
 1952TP3      O17674   0.915   2.724   2.865  0.5332  0.0022 -0.0030
 1952TP3     H117675   0.970   2.654   2.829 -0.4486 -1.1870  0.6994
 1952TP3     H217676   0.867   2.681   2.936 -2.1125  0.6923 -1.2878
 1953TP3      O17677   1.636   2.089   1.535  0.6397 -0.4337  0.2341
 1953TP3     H117678   1.544   2.100   1.511  0.5311 -1.0688  0.3319
 1953TP3     H217679   1.682   2.085   1.452  0.5782 -0.1285  0.1847
 1954TP3      O17680   2.892   3.848   7.945  0.3514  0.2390  0.2031
 1954TP3     H117681   2.821   3.789   7.923  0.0967  0.6303 -0.0502
 1954TP3     H217682   2.927   3.876   7.861  0.0866  0.9003  0.3074
 1955TP3      O17683   0.707   1.114   7.545 -0.2536 -0.4898 -0.3843
 1955TP3     H117684   0.740   1.179   7.483 -1.4469  1.3535  0.8500
 1955TP3     H217685   0.688   1.037   7.491 -0.0058  0.6049 -2.0831
 1956TP3      O17686   2.174   0.338   9.278  0.6753 -0.7145 -0.6015
 1956TP3     H117687   2.082   0.313   9.283  0.5263 -0.0466  0.1523
 1956TP3     H217688   2.203   0.340   9.369  1.3021 -0.4541 -0.8035
 1957TP3      O17689   2.419   0.605   2.494 -0.2322  0.6836 -0.3126
 1957TP3     H117690   2.394   0.673   2.557 -1.2637  0.6728 -0.6788
 1957TP3     H217691   2.410   0.523   2.542 -0.5069  0.7115 -0.3107
 1958TP3      O17692   1.616   3.591   8.938 -0.0120  0.7995  0.5091
 1958TP3     H117693   1.537   3.621   8.982  0.6637  1.4033  1.3479
 1958TP3     H217694   1.686   3.604   9.003  0.7096 -0.1113 -0.0608
 1959TP3      O17695   0.135   0.762   2.697 -0.3042  0.1693  0.3027
 1959TP3     H117696   0.185   0.798   2.624 -0.5917  0.8861  0.4568
 1959TP3     H217697   0.201   0.736   2.761 -0.0117 -1.0151 -0.4428
 1960TP3      O17698   0.969   2.899   8.203  0.3199  0.0338  0.3075
 1960TP3     H117699   0.928   2.903   8.117 -0.1400 -0.7479  0.4761
 1960TP3     H217700   1.026   2.975   8.206 -2.1296  1.9955  0.5765
 1961TP3      O17701   1.817   1.262   3.425 -0.0712 -0.3912  0.1693
 1961TP3     H117702   1.725   1.249   3.399  0.0565 -0.0215 -0.4803
 1961TP3     H217703   1.862   1.184   3.393  0.3295  0.6282 -1.9757
 1962TP3      O17704   2.553   4.553   2.403  0.2007 -0.0877  0.1567
 1962TP3     H117705   2.642   4.519   2.401 -0.4700 -2.0554  0.8330
 1962TP3     H217706   2.537   4.584   2.313  0.9333 -1.5405 -0.5104
 1963TP3      O17707   3.294   2.431  10.285 -0.4938 -0.0999  0.1509
 1963TP3     H117708   3.324   2.357  10.338 -1.2159 -2.4233 -2.4796
 1963TP3     H217709   3.206   2.450  10.319 -0.6892 -1.0961  0.2277
 1964TP3      O17710   1.218   4.731   3.115  0.0253 -0.7284 -0.7593
 1964TP3     H117711   1.309   4.757   3.103 -0.1946 -0.8469 -3.3510
 1964TP3     H217712   1.220   4.668   3.188  1.4768  1.5674  1.3208
 1965TP3      O17713   4.020   3.905   8.900 -0.0025 -0.1976  0.5396
 1965TP3     H117714   3.979   3.884   8.983 -1.3858  1.7968  0.4422
 1965TP3     H217715   3.953   3.953   8.851  0.9548 -0.8258 -1.5117
 1966TP3      O17716   0.491   4.883   2.575 -0.1725  0.1147  0.0714
 1966TP3     H117717   0.439   4.837   2.510  0.1405 -0.9142  0.5319
 1966TP3     H217718   0.501   4.972   2.540 -0.2206 -0.3469 -1.1482
 1967TP3      O17719   2.956   0.347   1.704 -0.1602  0.6554  0.1516
 1967TP3     H117720   2.868   0.332   1.671  0.7237 -0.8234 -1.7494
 1967TP3     H217721   2.995   0.260   1.710  1.5013  1.3381 -0.0656
 1968TP3      O17722   4.693   2.639  10.302 -0.4845  0.3475 -0.4084
 1968TP3     H117723   4.688   2.594  10.218 -1.1420  0.5054 -0.4580
 1968TP3     H217724   4.683   2.732  10.281  0.2082  0.4643 -0.2394
 1969TP3      O17725   5.180   4.480   0.078 -0.5043 -0.2122  0.4465
 1969TP3     H117726   5.220   4.564   0.103 -0.3352  0.1230 -0.8784
 1969TP3     H217727   5.228   4.415   0.129  0.6917  0.3362  0.0674
 1970TP3      O17728   1.437   1.722  10.352  0.2036  0.2269  0.1815
 1970TP3     H117729   1.359   1.666  10.353 -0.9217  1.6989 -0.6517
 1970TP3     H217730   1.503   1.670  10.306 -0.5099 -0.7484  0.2169
 1971TP3      O17731   0.731   2.144   7.485  0.5032  0.3329 -0.4589
 1971TP3     H117732   0.642   2.180   7.481  0.0476 -0.8428 -2.6374
 1971TP3     H217733   0.784   2.204   7.432  0.1105 -1.0735 -2.5677
 1972TP3      O17734   1.525   1.144   0.723  0.4792  0.6372 -0.4593
 1972TP3     H117735   1.475   1.200   0.782  0.9327  0.9106 -0.3324
 1972TP3     H217736   1.460   1.110   0.662  0.1413  1.0121 -0.3138
 1973TP3      O17737   0.571   2.492   2.518  0.2245 -0.2826  0.5697
 1973TP3     H117738   0.627   2.556   2.562 -1.3777  1.4730  0.2033
 1973TP3     H217739   0.486   2.503   2.560 -0.1800 -2.0088  0.2798
 1974TP3      O17740   3.535   4.750   1.624 -0.1957  0.7590 -0.0415
 1974TP3     H117741   3.503   4.747   1.534  1.3388 -0.4687 -0.5915
 1974TP3     H217742   3.615   4.697   1.623 -0.2162  0.6027  2.0801
 1975TP3      O17743   1.560   3.812   8.366 -0.4028 -0.0537 -0.0454
 1975TP3     H117744   1.519   3.871   8.303 -1.3852  0.1276  0.7454
 1975TP3     H217745   1.489   3.786   8.424  0.6007  0.2421  1.3516
 1976TP3      O17746   2.727   2.481   0.262  0.8113  0.1991 -0.3810
 1976TP3     H117747   2.755   2.440   0.180  2.3725  1.5685 -0.5662
 1976TP3     H217748   2.643   2.522   0.241 -0.7832 -2.6588 -0.2165
 1977TP3      O17749   0.861   1.091   7.264 -0.1458  0.2601  0.3608
 1977TP3     H117750   0.800   1.040   7.317  0.3872  0.5895  1.3103
 1977TP3     H217751   0.880   1.034   7.189  1.8922 -1.8635  2.2869
 1978TP3      O17752   1.020   2.048   0.869  0.2567 -0.1225 -0.2944
 1978TP3     H117753   1.021   2.138   0.838 -0.7248 -0.1938 -0.5717
 1978TP3     H217754   1.019   1.995   0.789  3.0685 -0.4775 -0.1849
 1979TP3      O17755   1.028   2.676   1.329  0.2197 -0.2573  0.3114
 1979TP3     H117756   1.058   2.760   1.295  0.1725 -0.3635  0.0032
 1979TP3     H217757   0.934   2.673   1.307 -0.2991  0.5490  2.2154
 1980TP3      O17758   4.432   3.770   7.407  0.0020  0.0106 -0.0132
 1980TP3     H117759   4.400   3.694   7.359 -1.7998  0.8427 -0.2065
 1980TP3     H217760   4.355   3.804   7.453  0.9939  1.1122  0.9126
 1981TP3      O17761   3.293   0.974   9.441 -0.1047 -0.1894  0.0339
 1981TP3     H117762   3.264   0.941   9.356  0.8321 -1.5268  0.1928
 1981TP3     H217763   3.381   1.008   9.425 -0.6874  1.4166  0.0830
 1982TP3      O17764   2.137   2.564   0.572  0.7361 -0.1798 -0.7908
 1982TP3     H117765   2.098   2.651   0.578 -0.7115 -0.8728  0.7009
 1982TP3     H217766   2.172   2.549   0.660 -1.1789 -2.0164 -0.2676
 1983TP3      O17767   3.355   4.670   3.021  0.6474 -0.3736 -0.0627
 1983TP3     H117768   3.379   4.644   2.932  0.7407  0.2016 -0.2063
 1983TP3     H217769   3.428   4.641   3.076  1.0636  0.1962 -0.3154
 1984TP3      O17770   2.877   2.319   0.091  0.3559 -0.1729 -0.0564
 1984TP3     H117771   2.849   2.334   0.000 -2.8272  2.0996  1.1462
 1984TP3     H217772   2.861   2.226   0.105 -2.1007  0.0411 -0.9775
 1985TP3      O17773   2.633   1.240   8.336  0.0178 -0.0593 -0.0539
 1985TP3     H117774   2.593   1.155   8.319 -0.4284  0.1486 -0.0577
 1985TP3     H217775   2.713   1.220   8.385 -0.2292 -0.4582  0.1893
 1986TP3      O17776   2.992   1.586   9.524  0.0786 -0.2792  0.1333
 1986TP3     H117777   2.970   1.678   9.511  1.6877  0.0241 -0.7251
 1986TP3     H217778   3.069   1.572   9.470  0.3646 -1.9283  0.8980
 1987TP3      O17779   1.921   2.269   1.107 -0.0835  0.1760 -0.5980
 1987TP3     H117780   1.954   2.311   1.027  0.4987 -0.2743 -0.6012
 1987TP3     H217781   1.830   2.299   1.114 -0.5041 -0.6604 -2.0371
 1988TP3      O17782   0.837   5.170   7.255  0.1767 -0.3219  0.3129
 1988TP3     H117783   0.875   5.256   7.241  2.2549 -1.0585  1.1241
 1988TP3     H217784   0.764   5.166   7.193  0.4264  1.7521 -0.1852
 1989TP3      O17785   4.235   2.819  10.190 -0.6279  0.5278 -0.6477
 1989TP3     H117786   4.213   2.827  10.283 -1.6165  1.3260 -0.9409
 1989TP3     H217787   4.156   2.846  10.143 -0.5654 -1.0254 -1.7430
 1990TP3      O17788   0.292   3.373   9.400 -1.1627 -0.4790  0.0689
 1990TP3     H117789   0.380   3.346   9.424 -0.4894  1.7712  0.3424
 1990TP3     H217790   0.256   3.298   9.353  0.9986 -1.3275 -0.3340
 1991TP3      O17791   0.471   2.352   0.359  0.7269 -0.6015 -0.3207
 1991TP3     H117792   0.537   2.311   0.414 -0.2900 -0.6481  0.9156
 1991TP3     H217793   0.395   2.362   0.417  0.3106  1.2662 -1.1233
 1992TP3      O17794   2.769   1.624   0.078 -0.2313  0.0868 -0.2484
 1992TP3     H117795   2.746   1.603   0.168  0.3940  1.2694  0.2007
 1992TP3     H217796   2.758   1.541   0.031 -1.0497 -0.4226  0.8016
 1993TP3      O17797   4.631   3.719  10.400 -0.7342  0.4058 -0.8219
 1993TP3     H117798   4.625   3.633  10.358 -1.2065  0.3515 -0.6469
 1993TP3     H217799   4.622   3.701  10.493  1.7609  0.3556 -0.5147
 1994TP3      O17800   3.112   2.192   0.956 -0.7027  0.5446  0.1489
 1994TP3     H117801   3.191   2.242   0.936 -0.2370  0.2926  1.2918
 1994TP3     H217802   3.113   2.182   1.051 -0.8628 -1.5059 -0.0236
 1995TP3      O17803   1.671   1.172   8.340 -0.4603  0.4414 -0.5313
 1995TP3     H117804   1.617   1.149   8.417  0.7998 -0.7454  0.0319
 1995TP3     H217805   1.689   1.265   8.351 -1.8522  0.7199 -0.3985
 1996TP3      O17806   2.354   0.751   0.460  0.2976 -0.2621  0.5692
 1996TP3     H117807   2.333   0.659   0.444 -1.5835  0.3877 -1.0833
 1996TP3     H217808   2.448   0.757   0.443  0.1951 -1.6174 -0.7123
 1997TP3      O17809   3.770   0.144   8.375  0.1268  0.0807  0.6704
 1997TP3     H117810   3.735   0.083   8.310 -2.6819  3.0239 -0.8732
 1997TP3     H217811   3.784   0.090   8.453 -1.5781 -2.6332 -0.7353
 1998TP3      O17812   3.900   5.153   9.971  0.2637  0.1204 -0.4727
 1998TP3     H117813   3.882   5.123  10.061 -0.9699 -0.4204 -0.8727
 1998TP3     H217814   3.944   5.237   9.983  3.9690 -1.7409  0.7056
 1999TP3      O17815   4.046   2.333   6.861  0.3653  0.0946 -0.3151
 1999TP3     H117816   3.968   2.311   6.912  0.8214 -0.7773  0.0344
 1999TP3     H217817   4.075   2.417   6.898 -1.5735  1.5440 -1.8734
 2000TP3      O17818   4.108   5.187   8.742  0.9396 -0.8304  0.1692
 2000TP3     H117819   4.119   5.230   8.827 -0.8315  2.1225 -0.9620
 2000TP3     H217820   4.174   5.230   8.686  0.1744 -0.6603 -0.6146
 2001TP3      O17821   1.562   2.547   7.683 -0.2052  1.1373  0.4390
 2001TP3     H117822   1.614   2.525   7.605 -0.3751  1.7888  0.1280
 2001TP3     H217823   1.575   2.641   7.694  0.0703  0.9864  1.3968
 2002TP3      O17824   1.742   1.418   1.424  0.5004  0.1155 -0.3846
 2002TP3     H117825   1.714   1.329   1.402 -2.1393  0.6848  0.3094
 2002TP3     H217826   1.669   1.473   1.397  0.0619  1.5790  3.2752
 2003TP3      O17827   1.393   2.058   1.364  0.0887 -0.0890 -0.3541
 2003TP3     H117828   1.393   1.963   1.357  2.2895 -0.2465  0.7405
 2003TP3     H217829   1.325   2.087   1.304 -0.5315 -2.3332 -0.8247
 2004TP3      O17830   2.002   1.759   9.193 -0.2264 -0.0296 -0.3204
 2004TP3     H117831   1.919   1.781   9.236 -0.5664  0.4380 -1.1820
 2004TP3     H217832   2.054   1.717   9.261 -0.1095  2.1538  1.0551
 2005TP3      O17833   1.523   2.477  10.028  0.2424 -0.5246  0.4070
 2005TP3     H117834   1.454   2.541  10.045 -0.0715 -0.5349 -0.7138
 2005TP3     H217835   1.524   2.421  10.106 -0.3327  0.0814  0.8593
 2006TP3      O17836   3.622   2.405   7.298  0.0360  0.2507 -0.5907
 2006TP3     H117837   3.645   2.329   7.352 -0.7274  0.1148 -0.4491
 2006TP3     H217838   3.537   2.383   7.260 -0.5732  1.3655  0.0766
 2007TP3      O17839   4.969   4.210   8.822  0.2130  0.0305 -0.1828
 2007TP3     H117840   4.997   4.232   8.910 -0.4515 -0.3793  0.1341
 2007TP3     H217841   4.892   4.265   8.807 -1.0381 -1.5037  0.3530
 2008TP3      O17842   2.803   4.223   7.176 -0.0497 -0.1230  0.1974
 2008TP3     H117843   2.803   4.146   7.119 -1.3960 -0.4911  0.6619
 2008TP3     H217844   2.810   4.187   7.264 -0.3767  0.3026  0.3980
 2009TP3      O17845   4.063   3.602   0.547 -0.1049  0.1633 -0.3809
 2009TP3     H117846   3.975   3.600   0.584  0.2868  0.5231  0.6019
 2009TP3     H217847   4.051   3.637   0.458 -0.7870  1.5777  0.2409
 2010TP3      O17848   1.902   2.463  10.031  0.2617  0.3061  0.2083
 2010TP3     H117849   1.986   2.448  10.073  0.0018  0.0912  0.6525
 2010TP3     H217850   1.858   2.527  10.087 -0.9073 -1.4686  1.4016
 2011TP3      O17851   1.221   2.090   0.423  0.0853  0.4173 -0.3326
 2011TP3     H117852   1.219   2.174   0.377  0.1837  1.3918  1.3766
 2011TP3     H217853   1.140   2.047   0.396  0.4643  0.6286 -1.9392
 2012TP3      O17854   1.598   0.078   1.802  0.1219  0.5671 -0.0269
 2012TP3     H117855   1.638   0.093   1.887 -0.0094  1.8384 -0.1795
 2012TP3     H217856   1.648   0.133   1.741 -0.7843  0.8815 -0.5047
 2013TP3      O17857   2.366   1.801   0.849 -0.7131  0.4489 -0.2643
 2013TP3     H117858   2.460   1.817   0.854 -0.8880  1.3612  0.4618
 2013TP3     H217859   2.341   1.778   0.939 -1.4408  1.8113 -0.1020
 2014TP3      O17860   3.399   0.243   1.714 -0.2905 -0.1531  0.8205
 2014TP3     H117861   3.469   0.263   1.776 -1.1080 -1.3090  2.1650
 2014TP3     H217862   3.319   0.260   1.763 -0.9548 -0.9816  0.0375
 2015TP3      O17863   0.471   0.418   0.437 -0.3607 -0.2897  0.3932
 2015TP3     H117864   0.407   0.489   0.438  0.2617  0.2897  1.2065
 2015TP3     H217865   0.556   0.462   0.426 -0.1494 -1.1119 -1.5812
 2016TP3      O17866   3.031   2.850   9.896 -0.1926  0.0902  0.1847
 2016TP3     H117867   3.030   2.881   9.806  2.9743 -0.6963 -0.2155
 2016TP3     H217868   2.952   2.796   9.904 -2.1665  2.5962 -1.1112
 2017TP3      O17869   1.807   0.941   2.568  0.7870  0.7129  0.5105
 2017TP3     H117870   1.866   1.015   2.583  1.3706  0.2980  0.3045
 2017TP3     H217871   1.844   0.896   2.491  0.8059 -0.1567  1.0173
 2018TP3      O17872   1.357   2.377   2.344  0.4322  0.1832 -0.7091
 2018TP3     H117873   1.330   2.461   2.306 -0.5048 -0.1895 -0.8876
 2018TP3     H217874   1.276   2.337   2.375  0.9026 -0.5415 -0.3783
 2019TP3      O17875   3.158   4.603   9.251 -0.7972 -0.2831 -0.0223
 2019TP3     H117876   3.187   4.674   9.193 -1.0673 -0.9121 -0.9510
 2019TP3     H217877   3.073   4.576   9.216 -0.7520 -0.9855  0.3897
 2020TP3      O17878   3.580   1.479   0.657  0.2363 -0.4103  0.0422
 2020TP3     H117879   3.668   1.490   0.692 -0.4373  2.7788  1.0292
 2020TP3     H217880   3.523   1.484   0.734 -0.9277 -0.2157 -0.8089
 2021TP3      O17881   1.287   1.586   7.819  0.0365 -0.3423  0.1408
 2021TP3     H117882   1.380   1.564   7.825  0.4414  0.6229 -1.7248
 2021TP3     H217883   1.286   1.675   7.785 -1.5882 -0.2057  0.4881
 2022TP3      O17884   3.981   0.024   9.172  0.4758  0.7585 -0.5122
 2022TP3     H117885   3.887   0.045   9.179  0.8892  2.1499  3.0475
 2022TP3     H217886   3.983  -0.071   9.167 -1.1842  0.5141  1.6290
 2023TP3      O17887   3.476   0.709   1.988  0.4305  0.3037 -0.2183
 2023TP3     H117888   3.453   0.690   1.897 -1.4330  0.4509  0.1716
 2023TP3     H217889   3.407   0.667   2.039  0.9758  0.9325  1.0795
 2024TP3      O17890   0.950   1.063   9.204  0.0217  0.3397 -0.1110
 2024TP3     H117891   1.021   1.087   9.263 -0.1820  0.4255  0.1017
 2024TP3     H217892   0.984   0.988   9.155 -1.0512 -2.2059  2.6725
 2025TP3      O17893   3.442   0.685   9.258  0.2689  0.5647  0.0773
 2025TP3     H117894   3.379   0.726   9.318 -0.2574  0.1692 -0.1997
 2025TP3     H217895   3.466   0.603   9.300  0.0177  0.3586 -0.1798
 2026TP3      O17896   3.692   4.817   7.755  0.1966  0.7082  0.0516
 2026TP3     H117897   3.668   4.770   7.676 -2.9216  4.0028 -1.2231
 2026TP3     H217898   3.786   4.835   7.744  0.4978 -1.4258 -1.3884
 2027TP3      O17899   1.129   1.748   2.820  0.3500  0.5942 -0.9629
 2027TP3     H117900   1.168   1.827   2.781 -1.5177  1.7073 -0.6736
 2027TP3     H217901   1.090   1.779   2.902 -0.9433 -0.4947 -1.1421
 2028TP3      O17902   0.639   4.839   2.270  0.5766  0.0575 -0.3759
 2028TP3     H117903   0.625   4.888   2.189 -0.2869 -0.5318 -0.6018
 2028TP3     H217904   0.555   4.844   2.316  0.8994 -0.0518  0.2408
 2029TP3      O17905   4.834   4.222   8.413  0.7478 -0.5776 -0.5339
 2029TP3     H117906   4.761   4.162   8.427  0.1843 -0.1658 -1.5918
 2029TP3     H217907   4.888   4.213   8.491 -0.8154 -0.3502  0.6071
 2030TP3      O17908   3.710   1.864   2.736  0.3815 -0.1215 -0.1428
 2030TP3     H117909   3.791   1.890   2.692  0.8756 -0.7510  0.3617
 2030TP3     H217910   3.731   1.779   2.774 -0.8613 -0.8028 -0.9155
 2031TP3      O17911   3.925   4.401   0.622 -0.2997 -0.3254 -0.0753
 2031TP3     H117912   4.006   4.407   0.672 -0.5078 -0.0239  0.2311
 2031TP3     H217913   3.945   4.441   0.537 -0.0205 -0.6050 -0.1443
 2032TP3      O17914   0.050   0.281   2.049  0.0893  0.2198 -0.2016
 2032TP3     H117915   0.011   0.305   2.134 -2.5618 -1.5981 -0.7722
 2032TP3     H217916   0.001   0.334   1.986  0.5794  0.0184 -0.7479
 2033TP3      O17917   1.748   2.295   0.030  0.0733  0.3286 -0.0522
 2033TP3     H117918   1.682   2.357   0.062  0.1142  0.2503  0.1881
 2033TP3     H217919   1.810   2.348  -0.018  0.1769  0.4949  0.2604
 2034TP3      O17920   2.232   4.734   0.791  0.5485 -0.5701 -0.2670
 2034TP3     H117921   2.145   4.745   0.753 -0.0808 -0.9220  1.0054
 2034TP3     H217922   2.272   4.665   0.739 -1.0948 -2.5712  0.9331
 2035TP3      O17923   0.118   3.934   1.206  0.0129  0.0326 -0.0054
 2035TP3     H117924   0.199   3.983   1.222  0.6245 -1.0046  0.2334
 2035TP3     H217925   0.055   3.969   1.269  1.2372 -1.3038  2.1160
 2036TP3      O17926   0.275   3.917   8.974 -0.0455  0.3382  0.2136
 2036TP3     H117927   0.307   3.915   9.064  0.2487 -1.9753  0.1289
 2036TP3     H217928   0.347   3.955   8.924  0.9766 -0.9899  0.6036
 2037TP3      O17929   3.220   2.074   1.381  0.4071 -0.1745  0.2923
 2037TP3     H117930   3.156   2.122   1.328 -1.1016  0.7463  2.7728
 2037TP3     H217931   3.280   2.142   1.413  1.4490 -0.7543 -0.3770
 2038TP3      O17932   1.244   4.739  10.260 -0.0522  0.2581  0.4792
 2038TP3     H117933   1.238   4.827  10.223 -1.1133  0.0776  0.1858
 2038TP3     H217934   1.176   4.738  10.328 -0.0742 -0.3552  0.4483
 2039TP3      O17935   0.198   3.825   8.293  0.5095 -0.2218  0.3567
 2039TP3     H117936   0.147   3.751   8.326 -0.3470 -0.1290 -0.6916
 2039TP3     H217937   0.265   3.784   8.238 -0.5891 -0.2094 -1.0467
 2040TP3      O17938   1.679   1.180   2.245 -0.3188  0.6272  0.0279
 2040TP3     H117939   1.728   1.118   2.191 -1.4764 -2.6063  2.3888
 2040TP3     H217940   1.588   1.150   2.239 -0.7384  1.2625  2.2875
 2041TP3      O17941   0.298   1.486   8.283 -0.3583 -0.9571 -0.3396
 2041TP3     H117942   0.393   1.481   8.293 -0.2265  1.3060  0.2212
 2041TP3     H217943   0.285   1.502   8.190 -0.0486  0.2129 -0.2042
 2042TP3      O17944   5.160   2.678   7.360 -0.4642  0.1401  0.4749
 2042TP3     H117945   5.085   2.672   7.419 -1.8673  1.3740 -1.0562
 2042TP3     H217946   5.135   2.626   7.284  1.4047 -1.6251  0.9683
 2043TP3      O17947   1.225   4.018   0.383  0.0420 -0.9187  0.0501
 2043TP3     H117948   1.195   4.101   0.419  0.3644 -1.6871  2.2445
 2043TP3     H217949   1.203   3.953   0.450 -0.9382 -2.7764 -1.9263
 2044TP3      O17950   2.235   2.870   0.374  0.5133 -0.8041 -0.4922
 2044TP3     H117951   2.169   2.878   0.442  0.8281  0.9320 -0.3291
 2044TP3     H217952   2.307   2.822   0.416  1.8540  2.5033  1.4446
 2045TP3      O17953   5.053   2.600   1.891  0.0962 -0.0537  0.2391
 2045TP3     H117954   4.971   2.552   1.876  0.1435 -0.0667  0.0226
 2045TP3     H217955   5.062   2.657   1.814  0.9251 -0.9498 -0.3471
 2046TP3      O17956   2.687   3.020   0.160 -0.1030 -0.6956  0.6826
 2046TP3     H117957   2.729   3.095   0.204 -0.2587  0.4882 -1.0704
 2046TP3     H217958   2.593   3.033   0.175 -0.2643  0.4827 -1.0326
 2047TP3      O17959   0.016   2.320   9.936  0.4817  0.4141 -0.2694
 2047TP3     H117960   0.023   2.361  10.022  1.5363  2.4153 -1.2027
 2047TP3     H217961  -0.056   2.366   9.893  0.8012  0.3550 -0.8879
 2048TP3      O17962   1.677   0.135   8.835  0.1441 -0.0340  0.0949
 2048TP3     H117963   1.655   0.208   8.894 -0.0309 -0.5857  0.7192
 2048TP3     H217964   1.706   0.065   8.894 -0.7105 -0.8405 -0.4289
 2049TP3      O17965   3.898   1.306   1.187 -0.4007  0.9788  0.3153
 2049TP3     H117966   3.853   1.288   1.270 -1.9648  0.1365 -0.6732
 2049TP3     H217967   3.887   1.226   1.136  1.7368  0.9647 -0.2283
 2050TP3      O17968   2.778   3.800   7.502 -0.5421  0.0307 -0.1737
 2050TP3     H117969   2.858   3.816   7.553 -0.5872  0.1072 -0.1273
 2050TP3     H217970   2.720   3.753   7.562 -0.2380 -0.7139 -0.4528
 2051TP3      O17971   2.094   5.013   7.837  0.3685  0.1847 -0.2455
 2051TP3     H117972   2.149   5.023   7.915 -1.2775  0.1688  0.9494
 2051TP3     H217973   2.152   5.037   7.765  1.7692  0.7725  1.0108
 2052TP3      O17974   4.090   3.222   9.031 -0.1158 -0.3660 -0.0101
 2052TP3     H117975   4.113   3.275   8.955 -0.7393  0.1276  0.1381
 2052TP3     H217976   4.172   3.179   9.056  0.4338  0.6168 -0.0730
 2053TP3      O17977   3.362   1.766  10.115  0.1489 -0.0738  1.1510
 2053TP3     H117978   3.382   1.748  10.023  0.5626  0.2096  1.1776
 2053TP3     H217979   3.337   1.682  10.152 -0.2854 -0.1385  0.7150
 2054TP3      O17980   3.619   0.349   6.836  0.1889  0.4245  0.2640
 2054TP3     H117981   3.651   0.339   6.926 -0.6858 -0.1511  0.5172
 2054TP3     H217982   3.559   0.423   6.840  0.5088  0.7038  0.0415
 2055TP3      O17983   4.673   4.530   0.531  0.6953  0.4077 -0.0378
 2055TP3     H117984   4.681   4.458   0.468 -0.0673  1.6552 -1.6442
 2055TP3     H217985   4.586   4.566   0.514  1.6582  2.7065 -0.4231
 2056TP3      O17986   2.265   0.520   8.473  0.0999  0.9212 -0.1129
 2056TP3     H117987   2.188   0.518   8.529 -0.3354  0.6965 -0.7129
 2056TP3     H217988   2.331   0.470   8.521  0.4545  2.5333  1.2118
 2057TP3      O17989   4.039   1.753   2.821  0.9689 -1.0709 -0.0300
 2057TP3     H117990   3.951   1.724   2.843 -0.6563  1.0367 -3.1166
 2057TP3     H217991   4.059   1.821   2.886 -0.3870 -0.4536 -0.2324
 2058TP3      O17992   1.039   3.211   8.549  0.1160  0.0933 -0.0774
 2058TP3     H117993   1.103   3.217   8.478 -0.8526 -1.9846 -1.2410
 2058TP3     H217994   1.091   3.190   8.626  0.9882  0.0126 -0.6742
 2059TP3      O17995   0.087   4.545   8.198  0.2811  0.0098  0.4038
 2059TP3     H117996   0.102   4.527   8.106 -2.1150 -0.8696  0.0947
 2059TP3     H217997   0.135   4.626   8.216 -0.3852  1.0304 -2.0254
 2060TP3      O17998   0.162   2.153   9.526 -0.2616  0.6727 -0.6500
 2060TP3     H117999   0.130   2.068   9.495  0.4560 -0.1819  0.7898
 2060TP3     H218000   0.088   2.190   9.574 -0.2802  0.3974 -0.4590
 2061TP3      O18001   3.846   1.123   2.869  0.3490 -0.5822 -0.1519
 2061TP3     H118002   3.829   1.215   2.885  0.2339 -0.8402  1.3478
 2061TP3     H218003   3.890   1.121   2.784 -0.7305  0.7311 -0.7722
 2062TP3      O18004   3.263   1.038   0.683 -0.0174  0.4605  0.9299
 2062TP3     H118005   3.245   1.062   0.592  1.6725 -1.3586  0.0343
 2062TP3     H218006   3.326   1.104   0.713  1.5075 -0.4156 -0.1701
 2063TP3      O18007   1.190   3.828   0.586  0.0133 -0.1316 -0.2496
 2063TP3     H118008   1.110   3.782   0.609  0.1465  0.2126  0.9594
 2063TP3     H218009   1.260   3.764   0.599  0.0123 -0.2101 -0.6047
 2064TP3      O18010   0.927   4.309   9.925  0.1700  0.1659  0.4539
 2064TP3     H118011   0.860   4.377   9.925 -1.2481 -1.1381 -0.5907
 2064TP3     H218012   0.893   4.242   9.984  1.1946  0.0241  0.9075
 2065TP3      O18013   0.928   2.315   3.316  0.4295 -0.0050  0.4808
 2065TP3     H118014   0.855   2.354   3.267 -1.2499 -1.6135  1.5939
 2065TP3     H218015   0.892   2.234   3.352  2.1011  0.2575  2.9676
 2066TP3      O18016   0.461   3.325   7.699 -0.5299 -0.0591 -0.0730
 2066TP3     H118017   0.524   3.279   7.755  0.5245  2.1192  0.6584
 2066TP3     H218018   0.510   3.344   7.619 -0.6889  0.4282 -0.0582
 2067TP3      O18019   3.835   0.872   2.401  0.0588 -0.0021 -0.0779
 2067TP3     H118020   3.784   0.880   2.320 -0.1031  1.2285  0.1325
 2067TP3     H218021   3.837   0.778   2.418 -1.1619 -0.1679 -0.7195
 2068TP3      O18022   3.900   2.055   8.732  0.1706  0.1461 -0.5288
 2068TP3     H118023   3.980   2.014   8.697  0.5689  1.0524 -0.7146
 2068TP3     H218024   3.892   2.020   8.820 -0.1593 -1.2295 -1.0752
 2069TP3      O18025   1.064   2.114   7.769  0.4099 -0.0804 -0.1294
 2069TP3     H118026   1.011   2.109   7.849 -1.2735 -1.5182 -1.2670
 2069TP3     H218027   1.052   2.029   7.727  0.2841  1.0521 -2.5196
 2070TP3      O18028   2.894   1.971   0.488  0.1263  0.7727 -0.3197
 2070TP3     H118029   2.941   2.031   0.546  1.5631 -1.0287  0.4647
 2070TP3     H218030   2.935   1.983   0.403  0.2298  1.0919 -0.2267
 2071TP3      O18031   4.059   4.404   9.347 -0.5690  0.2044 -0.2533
 2071TP3     H118032   4.125   4.375   9.284  0.5213  0.3304  0.8115
 2071TP3     H218033   4.007   4.325   9.364 -0.3917 -0.0210 -0.7279
 2072TP3      O18034   1.658   0.319   2.546 -0.1880 -0.3924 -0.0737
 2072TP3     H118035   1.748   0.353   2.552 -0.1402 -0.6609  0.7746
 2072TP3     H218036   1.603   0.396   2.556 -0.0584 -0.2528 -0.4090
 2073TP3      O18037   0.681   1.570   0.438  0.3742  0.3050 -0.3690
 2073TP3     H118038   0.710   1.647   0.486 -0.5453 -0.6486  1.8130
 2073TP3     H218039   0.759   1.541   0.391  2.6126 -1.0063  3.6801
 2074TP3      O18040   1.038   0.855  10.396  0.3830 -0.0453  0.3552
 2074TP3     H118041   1.064   0.938  10.355 -0.0394 -0.8594 -1.6487
 2074TP3     H218042   1.117   0.823  10.438  0.8126  0.8664  0.2657
 2075TP3      O18043   3.734   4.364   9.429 -0.4150 -0.0699 -0.1066
 2075TP3     H118044   3.774   4.277   9.436 -0.7246 -0.4367 -2.2573
 2075TP3     H218045   3.806   4.424   9.447  0.2374 -0.7550 -0.3401
 2076TP3      O18046   2.522   5.152   7.750  1.1486 -0.0480  0.3826
 2076TP3     H118047   2.565   5.131   7.667  3.0658  0.9218  1.0895
 2076TP3     H218048   2.517   5.247   7.751  0.2231 -0.0882  0.9628
 2077TP3      O18049   5.077   3.433   7.433  0.1715  0.6518  0.3067
 2077TP3     H118050   5.058   3.396   7.347  0.6371  0.9664  0.0669
 2077TP3     H218051   5.170   3.456   7.430  0.1977  0.6483  0.8995
 2078TP3      O18052   1.242   3.375   2.200 -0.6131 -0.0483 -0.5751
 2078TP3     H118053   1.321   3.322   2.189  0.8196  1.8462  0.0203
 2078TP3     H218054   1.197   3.335   2.275  0.4207 -0.4583 -0.1483
 2079TP3      O18055   1.854   2.888   0.006  0.3652 -0.0356 -0.4277
 2079TP3     H118056   1.854   2.979   0.034 -1.9854 -0.3144  0.7449
 2079TP3     H218057   1.907   2.843   0.072  1.3914  0.4308 -0.9153
 2080TP3      O18058   0.392   0.077   9.971  0.4557  0.4753 -0.2817
 2080TP3     H118059   0.477   0.086  10.016 -0.2084  1.3347  0.8560
 2080TP3     H218060   0.373  -0.017   9.975  1.0061  0.3704  0.0997
 2081TP3      O18061   0.276   2.501  10.084 -0.5293  0.3572  0.0708
 2081TP3     H118062   0.293   2.425  10.027 -1.8684  0.2125 -0.1661
 2081TP3     H218063   0.336   2.568  10.052  0.8910 -0.6738  0.4713
 2082TP3      O18064   2.214   3.052  10.264  0.2098  0.7396  0.3446
 2082TP3     H118065   2.182   2.985  10.204 -0.4248  0.4332  1.0065
 2082TP3     H218066   2.309   3.043  10.263  0.0904 -1.4184  1.8026
 2083TP3      O18067   4.620   3.470   9.215  0.0982  0.2885 -0.1922
 2083TP3     H118068   4.584   3.550   9.254 -0.5851  1.1109 -2.3330
 2083TP3     H218069   4.652   3.498   9.129  2.9640 -1.1086  0.3006
 2084TP3      O18070   0.081   3.788   2.512 -0.4754 -0.3392 -0.5195
 2084TP3     H118071   0.042   3.707   2.481 -2.8717  1.1014 -1.5658
 2084TP3     H218072   0.128   3.824   2.436  1.2826 -1.0543  0.1619
 2085TP3      O18073   1.855   0.603   0.614 -0.1318  0.2218  0.3099
 2085TP3     H118074   1.806   0.558   0.683  0.1252 -0.3028  0.1535
 2085TP3     H218075   1.947   0.590   0.637 -0.0497  1.3363  0.6910
 2086TP3      O18076   5.051   2.457   0.559  0.2456  0.1078  0.0653
 2086TP3     H118077   4.960   2.481   0.581 -0.2626 -1.3056 -0.3777
 2086TP3     H218078   5.103   2.533   0.587 -1.0212  0.7855  0.6902
 2087TP3      O18079   3.778   3.484   0.932 -0.6281  0.2039  0.1301
 2087TP3     H118080   3.819   3.570   0.943 -1.3179  0.5424  0.1235
 2087TP3     H218081   3.726   3.492   0.852  1.2067 -0.9944 -1.2469
 2088TP3      O18082   3.969   3.045   0.989  0.2782 -0.4934  0.0151
 2088TP3     H118083   4.063   3.050   0.975  0.4261 -0.6599  0.8936
 2088TP3     H218084   3.947   3.127   1.033  0.2454 -1.0353  1.0337
 2089TP3      O18085   5.152   2.986   7.699  0.3235 -0.1088 -0.4182
 2089TP3     H118086   5.221   3.046   7.727  0.8696 -0.6358 -0.6035
 2089TP3     H218087   5.077   3.009   7.753  1.1650 -0.7116  1.1010
 2090TP3      O18088   3.408   2.678  10.180  0.2009  0.2748  0.0514
 2090TP3     H118089   3.481   2.651  10.236 -0.6963 -1.7708  0.3335
 2090TP3     H218090   3.335   2.623  10.208 -0.6820  0.2223 -2.1205
 2091TP3      O18091   4.957   2.770   3.561 -0.3167 -0.4753 -0.7171
 2091TP3     H118092   4.931   2.862   3.573  1.2807 -0.0901  0.0867
 2091TP3     H218093   4.932   2.728   3.643  2.6307  0.2003  0.6414
 2092TP3      O18094   3.928   4.866   9.731  0.0047  0.6283 -0.0738
 2092TP3     H118095   3.843   4.908   9.714 -0.4450 -0.0098  0.5694
 2092TP3     H218096   3.944   4.814   9.652 -1.1710 -0.8185  0.5951
 2093TP3      O18097   0.612   0.575   1.213 -0.5192 -0.0155  0.3625
 2093TP3     H118098   0.524   0.566   1.249 -0.4763 -1.1312  0.2304
 2093TP3     H218099   0.663   0.613   1.284 -1.5514  2.7276 -0.2673
 2094TP3      O18100   2.276   1.782   0.384  0.3477 -0.4224  0.1352
 2094TP3     H118101   2.347   1.719   0.397  0.9866  0.3875  0.6021
 2094TP3     H218102   2.289   1.815   0.295  0.3912 -0.4669  0.1249
 2095TP3      O18103   3.970   4.585   9.526 -0.2233  0.4091 -0.0088
 2095TP3     H118104   3.978   4.536   9.607 -1.5050 -0.7262 -0.5384
 2095TP3     H218105   4.015   4.531   9.461 -1.1843  0.1562 -0.4895
 2096TP3      O18106   0.033   4.063   2.682  0.1435 -0.3297 -0.1707
 2096TP3     H118107   0.119   4.051   2.640  0.6090  2.3866 -0.1801
 2096TP3     H218108  -0.030   4.052   2.610  0.6353 -0.0201 -0.6570
 2097TP3      O18109   1.154   3.113   1.778 -0.6212 -0.6655  0.3503
 2097TP3     H118110   1.075   3.100   1.725 -0.9273 -2.6572  1.2140
 2097TP3     H218111   1.121   3.130   1.866 -0.1141  2.4650  0.0457
 2098TP3      O18112   3.705   0.575   2.119 -0.2893  0.2395  0.1545
 2098TP3     H118113   3.634   0.611   2.065 -1.6986 -0.2416  1.5882
 2098TP3     H218114   3.770   0.546   2.056 -0.3960  2.5853 -1.1505
 2099TP3      O18115   1.993   1.365  10.408  0.2382 -0.0771 -0.0280
 2099TP3     H118116   2.003   1.383  10.502 -1.1317 -1.4978  0.4441
 2099TP3     H218117   1.927   1.428  10.378 -0.8294 -0.9061  0.4716
 2100TP3      O18118   3.149   2.215   0.347  0.1625 -0.0044 -0.2280
 2100TP3     H118119   3.056   2.221   0.365 -0.4413  1.3774 -3.1935
 2100TP3     H218120   3.185   2.300   0.372  0.4991 -0.2660  0.1975
 2101TP3      O18121   5.201   3.323   1.239  0.3009  1.0718 -0.1011
 2101TP3     H118122   5.199   3.401   1.293  2.0192  2.0010 -1.3099
 2101TP3     H218123   5.267   3.340   1.172 -0.2483 -0.8596 -1.2512
 2102TP3      O18124   2.277   4.270   9.663 -0.2703 -0.5048  0.6189
 2102TP3     H118125   2.276   4.363   9.684  1.2787 -0.4776  0.6620
 2102TP3     H218126   2.220   4.230   9.729 -0.4062  0.3177  1.0068
 2103TP3      O18127   3.683   4.360   2.790  0.2897  0.1650  0.3598
 2103TP3     H118128   3.653   4.415   2.718  1.1608 -1.2329 -1.1367
 2103TP3     H218129   3.762   4.317   2.757  0.7716 -0.4680  2.1854
 2104TP3      O18130   3.434   5.159   1.674  0.2157  0.4149  0.4290
 2104TP3     H118131   3.409   5.231   1.617  0.8737  0.9993  0.8712
 2104TP3     H218132   3.351   5.115   1.694 -0.5400  2.3755  1.9510
 2105TP3      O18133   2.186   4.306   1.059 -0.5392  0.2714 -0.5011
 2105TP3     H118134   2.116   4.244   1.080 -0.5955  0.5486  0.1487
 2105TP3     H218135   2.252   4.253   1.016 -1.1811  0.0205 -1.2004
 2106TP3      O18136   3.809   0.462  10.393  0.6248 -1.0313 -0.3587
 2106TP3     H118137   3.813   0.411  10.474  0.3523 -1.5416 -0.6595
 2106TP3     H218138   3.718   0.453  10.364  0.9916 -1.8524 -1.3405
 2107TP3      O18139   2.231   2.749   9.350  1.0517 -0.5526 -0.3072
 2107TP3     H118140   2.295   2.697   9.302  0.8378  0.1985 -1.4499
 2107TP3     H218141   2.147   2.713   9.325  0.9768 -0.7976  0.2927
 2108TP3      O18142   5.085   3.367   3.208  0.0343 -0.0284  0.0107
 2108TP3     H118143   5.066   3.278   3.239  1.8750 -1.3098 -2.2252
 2108TP3     H218144   5.012   3.420   3.241 -0.8175 -2.2181  1.9079
 2109TP3      O18145   2.280   3.782   8.177  0.3858 -0.1112  0.1867
 2109TP3     H118146   2.189   3.812   8.173  0.8487  1.4698  0.8580
 2109TP3     H218147   2.281   3.717   8.248 -0.0909  0.3390  0.6104
 2110TP3      O18148   2.943   1.770   0.805 -0.2008 -0.5797 -0.0026
 2110TP3     H118149   2.930   1.864   0.808 -0.8757 -0.6941  1.3671
 2110TP3     H218150   2.987   1.749   0.887 -0.9699 -1.5691  0.1848
 2111TP3      O18151   2.424   2.244   9.692  0.1123  0.0237  0.0052
 2111TP3     H118152   2.491   2.228   9.759  1.0112 -0.5383 -0.9917
 2111TP3     H218153   2.371   2.315   9.727  0.0713 -0.7850  1.6611
 2112TP3      O18154   3.538   4.857   8.255  0.0035 -0.5803  0.0369
 2112TP3     H118155   3.510   4.945   8.229  0.6795 -0.3049  0.2129
 2112TP3     H218156   3.461   4.819   8.298  0.4083  0.8599  2.2532
 2113TP3      O18157   3.333   1.842   2.850 -0.3699  0.0463 -0.4628
 2113TP3     H118158   3.405   1.808   2.903 -0.0087  0.1825 -0.8626
 2113TP3     H218159   3.294   1.911   2.904 -0.3132 -0.1489 -0.1728
 2114TP3      O18160   0.882   1.169   8.415 -0.1442 -0.2294  0.0298
 2114TP3     H118161   0.900   1.143   8.325  3.8868  0.7987  0.3784
 2114TP3     H218162   0.914   1.259   8.422 -0.7121 -0.1254  2.4091
 2115TP3      O18163   0.050   2.475   1.299 -0.2720  0.4775  0.0446
 2115TP3     H118164   0.129   2.463   1.247  0.3037 -0.1944  1.0328
 2115TP3     H218165  -0.022   2.463   1.237  0.3809 -0.7866 -0.5083
 2116TP3      O18166   2.759   0.016   2.756  0.3697  0.0107 -0.2738
 2116TP3     H118167   2.824   0.014   2.826 -0.1489 -0.4749  0.2078
 2116TP3     H218168   2.779   0.095   2.706  0.1189  0.9231  1.0331
 2117TP3      O18169   4.300   2.714   3.102  0.1767 -0.2853  0.2804
 2117TP3     H118170   4.262   2.629   3.125 -0.4812 -0.0020  0.2774
 2117TP3     H218171   4.248   2.777   3.151  0.9804  0.0886  0.6647
 2118TP3      O18172   2.784   4.933   9.101  0.1516  0.1242 -0.3654
 2118TP3     H118173   2.762   4.863   9.162 -0.9110  1.1896  0.5081
 2118TP3     H218174   2.726   5.004   9.124  1.9799  1.7318 -0.4575
 2119TP3      O18175   3.679   5.000   0.126 -0.8058 -0.4708  0.5895
 2119TP3     H118176   3.598   5.028   0.084 -0.3227 -0.4063 -0.3156
 2119TP3     H218177   3.676   4.905   0.125  1.1507 -0.7280 -3.6972
 2120TP3      O18178   2.524   0.046   2.927 -0.3105 -0.2917  0.2651
 2120TP3     H118179   2.485   0.032   2.840 -0.5906  0.3729  0.2765
 2120TP3     H218180   2.449   0.060   2.984 -0.0668  1.5264  0.1950
 2121TP3      O18181   4.285   3.546  10.073 -0.7957  0.0027 -0.5954
 2121TP3     H118182   4.322   3.459  10.056  2.4852  1.1314 -0.0590
 2121TP3     H218183   4.263   3.546  10.166 -0.4459 -0.1600 -0.5119
 2122TP3      O18184   0.975   3.341   6.608  0.1437  0.4040 -0.0471
 2122TP3     H118185   0.891   3.386   6.613 -1.0716 -1.5124 -1.5702
 2122TP3     H218186   1.020   3.381   6.535  0.1608  0.8204  0.1914
 2123TP3      O18187   2.404   2.126   8.790  0.3432  0.0457  0.1131
 2123TP3     H118188   2.403   2.053   8.728 -1.5880  0.0686  0.0523
 2123TP3     H218189   2.497   2.138   8.811  0.7651 -2.1217 -0.2173
 2124TP3      O18190   4.827   4.682   8.801  0.2976  0.0251 -0.1122
 2124TP3     H118191   4.759   4.625   8.839  1.6176 -1.4829  0.1254
 2124TP3     H218192   4.779   4.747   8.750 -1.3124 -1.1326 -0.1410
 2125TP3      O18193   1.125   3.966   0.064  0.3121 -0.3299 -0.7258
 2125TP3     H118194   1.127   3.886   0.117  2.3912 -1.3575 -2.2242
 2125TP3     H218195   1.048   3.956   0.008  0.0545 -0.8678 -0.2811
 2126TP3      O18196   4.128   0.207   0.049  0.2660 -0.0351  0.9253
 2126TP3     H118197   4.122   0.112   0.039 -0.8943  0.1809 -0.8097
 2126TP3     H218198   4.041   0.233   0.079  0.4785  0.5117  1.0777
 2127TP3      O18199   1.595   4.386   7.564  0.0145 -0.2842 -0.1824
 2127TP3     H118200   1.559   4.371   7.477  0.9567 -0.8798 -0.4856
 2127TP3     H218201   1.525   4.362   7.624 -0.5077 -0.2484 -0.7760
 2128TP3      O18202   4.043   2.473  10.073 -0.2993 -0.3201  0.0247
 2128TP3     H118203   3.955   2.440  10.053 -0.5321 -0.1785  0.7850
 2128TP3     H218204   4.102   2.404  10.044 -0.7722 -1.3858  1.4992
 2129TP3      O18205   2.172   4.516   9.708 -0.3172 -0.3122 -0.4136
 2129TP3     H118206   2.123   4.522   9.790  1.3447 -1.4241  0.6894
 2129TP3     H218207   2.225   4.596   9.706  0.7436 -0.9829  0.3447
 2130TP3      O18208   4.257   0.591   2.982 -0.6943  0.6018  0.0620
 2130TP3     H118209   4.257   0.587   3.077  1.2017 -2.7670  0.0802
 2130TP3     H218210   4.169   0.564   2.956 -0.4411 -1.1167  0.8999
 2131TP3      O18211   1.278   1.001   8.642  0.0674 -0.4532  0.2068
 2131TP3     H118212   1.353   1.036   8.594 -1.0391  1.4596 -0.2118
 2131TP3     H218213   1.297   1.021   8.734 -0.3405  0.8713  0.0146
 2132TP3      O18214   0.165   2.092   8.403  0.3842  0.2780  0.1469
 2132TP3     H118215   0.208   2.013   8.435  1.6425  0.8928  0.0651
 2132TP3     H218216   0.223   2.124   8.333 -0.7234  0.6240 -0.6538
 2133TP3      O18217   2.416   1.561   0.628 -0.5290 -0.1068  0.2431
 2133TP3     H118218   2.393   1.487   0.683 -1.5924  1.6279  2.2877
 2133TP3     H218219   2.339   1.619   0.632 -0.2199  0.5834 -2.2497
 2134TP3      O18220   3.333   2.529   9.844  0.3060 -0.4217  0.1166
 2134TP3     H118221   3.382   2.535   9.762 -2.1148  0.4532 -1.3820
 2134TP3     H218222   3.312   2.620   9.866  0.6705 -0.6685  1.5741
 2135TP3      O18223   0.350   3.972   0.722 -0.2891 -0.1208  0.6315
 2135TP3     H118224   0.357   3.880   0.695  0.4041  0.1994 -0.3400
 2135TP3     H218225   0.322   3.968   0.813 -1.0942 -1.2811  0.3548
 2136TP3      O18226   3.660   3.270   9.626  0.0500  0.0449  0.4484
 2136TP3     H118227   3.724   3.203   9.603 -0.4638 -0.4529  0.4585
 2136TP3     H218228   3.575   3.233   9.601 -0.0730  1.5485 -1.5462
 2137TP3      O18229   0.568   5.108   8.801  0.2030  0.0570  0.4153
 2137TP3     H118230   0.510   5.163   8.854 -0.3510 -0.2384  0.1295
 2137TP3     H218231   0.540   5.019   8.820 -0.1272 -0.0429 -0.5082
 2138TP3      O18232   1.313   3.339   9.775 -0.6632 -0.0290  0.0236
 2138TP3     H118233   1.316   3.249   9.743  0.3582  0.2255 -0.6795
 2138TP3     H218234   1.245   3.381   9.722 -1.0813 -0.3590  0.2940
 2139TP3      O18235   3.065   3.928   8.773  0.0399  0.4412  0.2813
 2139TP3     H118236   3.157   3.917   8.798 -0.2017  0.1170  1.0872
 2139TP3     H218237   3.033   3.998   8.830 -0.2751  0.3717  0.1921
 2140TP3      O18238   3.416   2.991   2.061 -0.3831 -0.9259  0.2747
 2140TP3     H118239   3.452   3.076   2.083 -0.3288 -0.6098 -1.0237
 2140TP3     H218240   3.464   2.930   2.117  1.4089 -0.4027 -0.6224
 2141TP3      O18241   1.564   4.017   2.570  0.0023  0.3630  0.0785
 2141TP3     H118242   1.551   4.073   2.647  0.2267 -0.0859  0.4508
 2141TP3     H218243   1.609   4.073   2.507 -1.3205  1.1252 -0.2212
 2142TP3      O18244   1.525   3.312   8.850 -0.1493  0.0441 -0.0039
 2142TP3     H118245   1.595   3.365   8.887 -1.9222  1.0794  2.0671
 2142TP3     H218246   1.456   3.374   8.825 -1.3675 -1.0875  0.3733
 2143TP3      O18247   0.518   2.156   9.390  0.1132  0.2367 -0.3173
 2143TP3     H118248   0.458   2.152   9.315  1.3045  1.0656 -1.3754
 2143TP3     H218249   0.461   2.168   9.466 -1.1007  0.0647 -1.1679
 2144TP3      O18250   2.992   1.392   1.956 -0.1530 -0.2662 -0.2966
 2144TP3     H118251   2.994   1.446   2.035 -0.9525 -0.9150  0.1752
 2144TP3     H218252   3.049   1.438   1.894  3.6286 -1.5633  1.8274
 2145TP3      O18253   3.355   0.808   9.733 -0.4102 -0.2884 -0.1812
 2145TP3     H118254   3.317   0.791   9.647  0.7137 -0.4715 -0.6569
 2145TP3     H218255   3.296   0.766   9.795 -1.9347  0.9162 -0.7449
 2146TP3      O18256   1.379   2.771   0.075 -0.2498  0.0976 -0.2588
 2146TP3     H118257   1.292   2.770   0.116 -1.1906 -2.8312 -2.0793
 2146TP3     H218258   1.373   2.708   0.004  3.7452 -1.2178  0.3162
 2147TP3      O18259   4.119   3.377   8.238  0.1451 -0.4338 -0.3194
 2147TP3     H118260   4.061   3.400   8.165  1.7429  0.9420 -1.2423
 2147TP3     H218261   4.114   3.451   8.298  0.1873 -0.7534  0.0828
 2148TP3      O18262   5.006   4.949   2.142 -0.4832  0.2502  0.1506
 2148TP3     H118263   5.034   4.985   2.226  0.9141 -1.0776  0.2916
 2148TP3     H218264   5.000   4.855   2.156 -0.9682  0.0756 -1.0525
 2149TP3      O18265   0.311   4.227   0.952  0.2495 -0.2961  0.2799
 2149TP3     H118266   0.255   4.179   0.891 -1.4735  0.8627  0.8845
 2149TP3     H218267   0.306   4.318   0.922  0.7463  0.0256  1.1522
 2150TP3      O18268   0.035   3.136   9.695  0.7719 -0.5227  0.4934
 2150TP3     H118269   0.041   3.231   9.687  0.5659 -0.6139 -1.1463
 2150TP3     H218270   0.067   3.103   9.611  0.6975 -1.9004  0.9784
 2151TP3      O18271   1.761   4.070  10.279  0.5783 -0.2208  0.4141
 2151TP3     H118272   1.828   4.035  10.221  0.1672 -0.4396  0.0698
 2151TP3     H218273   1.737   3.996  10.335  0.5026 -0.1917  0.4210
 2152TP3      O18274   4.499   2.883   7.205  0.0144 -0.6689 -0.2264
 2152TP3     H118275   4.541   2.957   7.160  1.8289 -2.2936 -1.3375
 2152TP3     H218276   4.448   2.924   7.275  2.1691  1.5539  0.1867
 2153TP3      O18277   3.435   0.617   0.055  0.0910  0.0881 -0.6220
 2153TP3     H118278   3.364   0.645  -0.002  0.1350 -1.5173 -1.5420
 2153TP3     H218279   3.472   0.540   0.011  0.6452 -0.7329  1.1737
 2154TP3      O18280   1.284   2.026   9.149  0.4863 -0.3086  0.9449
 2154TP3     H118281   1.345   2.032   9.222  1.2249  0.3062  0.2932
 2154TP3     H218282   1.216   2.090   9.169  0.7749 -0.0208  1.0016
 2155TP3      O18283   0.837   1.943   8.850 -0.1382 -0.4705  0.0506
 2155TP3     H118284   0.838   2.038   8.838 -0.4904 -0.1417  2.1470
 2155TP3     H218285   0.744   1.920   8.856 -0.0361 -0.7589  0.6751
 2156TP3      O18286   0.816   0.949   0.698  0.5823  0.4884  0.4457
 2156TP3     H118287   0.816   0.871   0.641  0.4012  0.2940  0.7105
 2156TP3     H218288   0.880   1.007   0.657 -0.8367  1.1216 -0.9843
 2157TP3      O18289   0.693   5.020   1.105  0.3345 -0.1502  0.4751
 2157TP3     H118290   0.687   5.115   1.095  0.8622 -0.1194  0.4403
 2157TP3     H218291   0.686   5.006   1.200  0.7819 -0.0358  0.5273
 2158TP3      O18292   4.945   4.420   0.562  0.3570 -0.1331 -0.2955
 2158TP3     H118293   4.858   4.457   0.579  0.2412 -0.7744  0.5618
 2158TP3     H218294   4.930   4.326   0.555  0.9550 -0.2251 -0.4140
 2159TP3      O18295   2.836   1.724  10.158 -0.0399  0.0742  0.1110
 2159TP3     H118296   2.817   1.651  10.216 -0.0681  0.1200  0.1589
 2159TP3     H218297   2.909   1.693  10.104  0.7161  0.4182  0.8998
 2160TP3      O18298   2.922   5.022   3.189 -0.3135 -0.1431  0.1701
 2160TP3     H118299   2.854   5.034   3.123  0.6889  1.6182 -0.6072
 2160TP3     H218300   2.919   5.103   3.240  2.5916  0.9723 -1.2469
 2161TP3      O18301   3.511   2.019   2.128 -0.4525 -0.0530  0.2696
 2161TP3     H118302   3.424   2.053   2.110  0.1729  0.4032 -2.1848
 2161TP3     H218303   3.562   2.097   2.153 -0.2882 -0.0268 -0.1524
 2162TP3      O18304   1.659   2.633   2.199  0.4056  0.4477 -0.0138
 2162TP3     H118305   1.596   2.686   2.248  0.8963  0.0477  1.0829
 2162TP3     H218306   1.680   2.561   2.259  0.7252 -0.2713 -0.9764
 2163TP3      O18307   1.065   3.093   0.207  0.5147 -0.2546  0.4008
 2163TP3     H118308   1.090   3.026   0.271  2.4375 -0.6409 -0.6879
 2163TP3     H218309   1.137   3.156   0.208 -0.1756  0.5752 -0.2568
 2164TP3      O18310   2.979   1.898   8.523 -0.0688  0.3744 -0.1153
 2164TP3     H118311   3.054   1.950   8.552 -0.7810  1.3916 -0.0196
 2164TP3     H218312   2.975   1.914   8.428  0.5016 -0.5966 -0.3183
 2165TP3      O18313   0.472   3.270   8.107  0.2131  0.2406  0.3119
 2165TP3     H118314   0.442   3.343   8.053  0.2702  0.6694  0.8502
 2165TP3     H218315   0.417   3.273   8.185 -0.2880 -0.7592  0.0070
 2166TP3      O18316   1.262   1.994   2.440  0.6051 -0.1868 -0.2983
 2166TP3     H118317   1.184   2.018   2.490 -0.4959  0.7099 -2.3363
 2166TP3     H218318   1.294   1.914   2.483 -1.2438 -0.4107  0.7755
 2167TP3      O18319   5.084   2.441   1.135  0.6445  0.0831  0.1554
 2167TP3     H118320   5.028   2.478   1.204  0.2772 -1.4615  0.7527
 2167TP3     H218321   5.031   2.446   1.056  0.7842  1.2036  0.1127
 2168TP3      O18322   0.091   2.154   8.087  0.4630  0.2130 -0.4921
 2168TP3     H118323   0.140   2.233   8.065  0.2475  1.0239  1.6591
 2168TP3     H218324   0.020   2.151   8.024  0.4068  1.8224 -0.5301
 2169TP3      O18325   1.437   1.888   8.622  0.0237 -0.1589 -0.2335
 2169TP3     H118326   1.531   1.901   8.635 -0.4094  2.3575  1.0832
 2169TP3     H218327   1.397   1.914   8.706 -1.8671 -0.7112 -0.9013
 2170TP3      O18328   3.571   1.784   1.114  0.1928  0.0037 -0.0504
 2170TP3     H118329   3.505   1.715   1.111  0.4579 -0.2420 -0.2222
 2170TP3     H218330   3.551   1.840   1.039 -1.2775  1.2709  1.2327
 2171TP3      O18331   2.076   0.123   3.436 -0.1026  0.0459 -0.1267
 2171TP3     H118332   2.149   0.183   3.445  1.0909 -1.4393  0.4932
 2171TP3     H218333   2.049   0.104   3.526  1.0702 -2.1014 -0.1673
 2172TP3      O18334   4.713   0.953   1.554 -0.3703  0.3198 -0.5921
 2172TP3     H118335   4.804   0.962   1.525 -0.2648  0.7260 -0.1479
 2172TP3     H218336   4.708   1.005   1.634 -0.9856  0.2659 -0.5894
 2173TP3      O18337   3.377   1.249  10.102  0.1025  0.1234 -0.3371
 2173TP3     H118338   3.472   1.245  10.093  0.0183  1.4119 -2.1103
 2173TP3     H218339   3.353   1.162  10.134  2.0599  0.4949  2.5800
 2174TP3      O18340   1.728   4.270  10.023  0.0493 -0.0833  0.0178
 2174TP3     H118341   1.686   4.186  10.005 -0.6309  0.1071  0.6485
 2174TP3     H218342   1.810   4.247  10.066 -0.0908 -0.4299  0.1029
 2175TP3      O18343   0.676   3.895   1.366 -0.3393 -0.1179  0.0075
 2175TP3     H118344   0.625   3.855   1.435 -0.7989  0.4084 -0.0236
 2175TP3     H218345   0.627   3.877   1.286 -0.8247  0.9256  0.0487
 2176TP3      O18346   0.677   4.583  10.207  0.0476 -0.4533  0.0882
 2176TP3     H118347   0.661   4.669  10.167 -0.1198  0.4512  2.0111
 2176TP3     H218348   0.593   4.537  10.199 -0.2669  0.0815  0.2535
 2177TP3      O18349   4.853   3.158   9.777 -0.6941 -0.3070  0.7836
 2177TP3     H118350   4.760   3.140   9.792 -1.3280  1.0508 -1.2076
 2177TP3     H218351   4.857   3.251   9.759  0.6993 -0.7406 -1.5311
 2178TP3      O18352   2.737   3.922   8.185 -0.4178 -0.0312 -0.6534
 2178TP3     H118353   2.799   3.918   8.112  0.9478  2.4669  0.2455
 2178TP3     H218354   2.658   3.959   8.148  0.7113  2.5144 -0.7080
 2179TP3      O18355   2.957   1.173   1.082  0.2199 -0.1752 -0.0937
 2179TP3     H118356   2.986   1.134   1.000 -0.5651 -1.0672  0.0305
 2179TP3     H218357   3.010   1.130   1.149 -0.3296 -0.7198  0.0035
 2180TP3      O18358   4.133   4.351   9.014  0.3853  1.2308  0.1246
 2180TP3     H118359   4.131   4.336   8.920 -0.0217 -1.3120  0.4780
 2180TP3     H218360   4.092   4.273   9.053 -2.3146  3.5189  2.3274
 2181TP3      O18361   4.628   0.904   9.604 -0.1955  0.2402 -0.6233
 2181TP3     H118362   4.611   0.956   9.526  0.6934  0.9683 -0.3551
 2181TP3     H218363   4.696   0.953   9.651 -0.4106 -0.4038  0.3887
 2182TP3      O18364   0.553   3.944   8.589  0.4320  0.0017  0.1314
 2182TP3     H118365   0.470   3.940   8.543  0.3322  0.1342  0.2982
 2182TP3     H218366   0.538   3.896   8.671  0.0366  1.3652  0.8956
 2183TP3      O18367   1.118   4.897   3.342 -0.4110 -0.5449  0.3500
 2183TP3     H118368   1.207   4.928   3.324 -0.0623 -1.3812  0.5922
 2183TP3     H218369   1.095   4.845   3.265 -0.5427 -0.6376  0.4505
 2184TP3      O18370   0.062   2.004   1.770  0.4501  0.4705  0.2309
 2184TP3     H118371   0.119   2.052   1.710  0.0962  0.1797 -0.3496
 2184TP3     H218372   0.085   1.913   1.757 -0.1179  0.3513  0.0093
 2185TP3      O18373   2.980   3.594   7.831  0.1568  0.6374  0.3155
 2185TP3     H118374   2.895   3.637   7.840  0.7907  1.9881  0.1307
 2185TP3     H218375   2.985   3.573   7.737 -0.2170  0.0070  0.4314
 2186TP3      O18376   3.190   3.837   9.978 -0.0418  0.2910  0.3335
 2186TP3     H118377   3.118   3.776   9.994  0.0246  0.0617 -0.2105
 2186TP3     H218378   3.237   3.842  10.061  0.4712 -1.0963  0.1573
 2187TP3      O18379   3.141   0.079   2.680 -0.0198  0.4458  0.2138
 2187TP3     H118380   3.115  -0.013   2.686  1.6391 -0.3927 -3.0583
 2187TP3     H218381   3.213   0.088   2.742  0.2664 -0.7081  0.0711
 2188TP3      O18382   1.655   4.920   7.272 -0.3589 -0.2786  0.0545
 2188TP3     H118383   1.594   4.980   7.229  0.7594 -0.0706 -1.2996
 2188TP3     H218384   1.611   4.897   7.354 -0.9932  2.0800  0.4498
 2189TP3      O18385   4.488   3.445   0.367 -0.5976  0.5294  0.0234
 2189TP3     H118386   4.521   3.518   0.420  0.0341  1.0850 -1.0896
 2189TP3     H218387   4.559   3.427   0.305 -1.1972 -0.2891 -0.4384
 2190TP3      O18388   2.577   3.975   3.076  0.2721 -0.3207  0.2158
 2190TP3     H118389   2.647   3.960   3.140 -0.4874  0.0422  1.1591
 2190TP3     H218390   2.623   3.983   2.992  1.3577 -0.1676  0.8006
 2191TP3      O18391   2.103   5.109  10.338 -0.7182 -0.1264 -0.5788
 2191TP3     H118392   2.164   5.164  10.288 -0.0368 -0.5561 -0.2373
 2191TP3     H218393   2.109   5.143  10.428  0.2053 -1.1443 -0.2274
 2192TP3      O18394   4.974   5.061   1.153  0.3534 -0.3622  0.4953
 2192TP3     H118395   4.910   5.039   1.085  1.4598  1.0131 -1.0819
 2192TP3     H218396   5.058   5.031   1.118  0.9757  0.5201  1.1779
 2193TP3      O18397   3.462   0.986   8.880 -0.4756  0.1806 -0.9936
 2193TP3     H118398   3.387   0.969   8.824 -0.3077 -0.4507 -1.0363
 2193TP3     H218399   3.486   0.900   8.915 -0.3852  0.5135 -0.2003
 2194TP3      O18400   3.820   1.727   9.864  0.0422  0.5186  0.1446
 2194TP3     H118401   3.738   1.677   9.869  1.5701 -2.0552  1.8898
 2194TP3     H218402   3.833   1.761   9.952  0.5785  1.4133 -0.2661
 2195TP3      O18403   1.344   0.184   9.796 -0.0121 -0.5373  0.6598
 2195TP3     H118404   1.391   0.267   9.802 -0.8215 -0.0070 -0.0488
 2195TP3     H218405   1.296   0.177   9.878  0.3464 -0.4805  0.8735
 2196TP3      O18406   0.629   2.437   9.998  0.4080 -0.9878 -0.0248
 2196TP3     H118407   0.718   2.404  10.009  1.1040  0.9960  0.6625
 2196TP3     H218408   0.634   2.499   9.926  0.7332  2.5847  2.7495
 2197TP3      O18409   3.175   0.957   2.860 -0.4277  0.4847  0.3409
 2197TP3     H118410   3.202   0.982   2.948  0.4694 -0.9338  0.5071
 2197TP3     H218411   3.100   0.898   2.874  1.5603 -2.2272  0.4326
 2198TP3      O18412   3.803   2.079   9.346  0.6464 -0.1663  0.3780
 2198TP3     H118413   3.753   2.120   9.417  0.3869  1.7929 -0.8737
 2198TP3     H218414   3.877   2.138   9.332  0.5529 -0.3676 -1.1433
 2199TP3      O18415   1.225   3.128   1.383 -0.1665  0.8163  0.0238
 2199TP3     H118416   1.235   3.064   1.453 -1.1168 -1.0729 -1.4708
 2199TP3     H218417   1.146   3.100   1.336  0.7453  1.6656 -2.1461
 2200TP3      O18418   1.151   3.309   6.827 -0.3823  0.2330 -0.0830
 2200TP3     H118419   1.118   3.364   6.899 -1.4263 -0.9813  0.4291
 2200TP3     H218420   1.094   3.330   6.753 -1.3173 -0.7116  0.3456
 2201TP3      O18421   1.885   1.887   2.215 -0.2801 -0.0542  0.1355
 2201TP3     H118422   1.818   1.911   2.151  0.5234 -1.0983 -1.1225
 2201TP3     H218423   1.835   1.845   2.286 -0.9162 -1.9504 -1.3322
 2202TP3      O18424   1.535   1.997   0.011  1.2644  0.5552 -0.1455
 2202TP3     H118425   1.500   1.908   0.010  2.3531  0.1047  0.4664
 2202TP3     H218426   1.570   2.008   0.099 -0.7525  2.3764  0.5291
 2203TP3      O18427   2.769   0.919  10.342  0.3651  0.2473  0.0302
 2203TP3     H118428   2.806   1.007  10.349  0.4146  0.1967  0.4014
 2203TP3     H218429   2.675   0.931  10.358  0.0506  0.5077 -1.7680
 2204TP3      O18430   3.379   0.104   2.146  0.5071 -0.3863  0.2340
 2204TP3     H118431   3.348   0.038   2.207  2.1096 -0.5666  0.9020
 2204TP3     H218432   3.434   0.056   2.084  0.7467  0.1338  0.0310
 2205TP3      O18433   2.752   1.816   2.088  0.4335 -0.5322  0.1188
 2205TP3     H118434   2.720   1.819   2.178  0.7301  2.9062  0.2436
 2205TP3     H218435   2.841   1.781   2.096  0.5925  0.0589  1.2373
 2206TP3      O18436   4.848   1.947   7.927 -0.0652 -0.5453 -0.4522
 2206TP3     H118437   4.837   1.998   7.847 -2.6421 -1.1250 -0.5769
 2206TP3     H218438   4.799   1.997   7.993  1.0144 -0.6876  0.4846
 2207TP3      O18439   3.757   4.953  10.266  0.1613 -0.4261  0.4351
 2207TP3     H118440   3.775   4.920  10.178  0.7709  0.2968  0.2836
 2207TP3     H218441   3.843   4.974  10.301  0.0151 -1.5907  1.5697
 2208TP3      O18442   3.510   3.186   8.465  0.3094  0.0517  0.2103
 2208TP3     H118443   3.539   3.096   8.450 -0.2899 -0.0509 -0.3885
 2208TP3     H218444   3.428   3.177   8.514  1.2853  0.3419  1.9813
 2209TP3      O18445   1.272   5.082   8.074 -0.1458  0.0288 -0.0617
 2209TP3     H118446   1.231   5.167   8.055 -1.5127 -0.6310 -0.1578
 2209TP3     H218447   1.202   5.030   8.115  1.5922  0.1162  3.4308
 2210TP3      O18448   5.080   2.240   8.987  0.7483 -0.5501  0.3648
 2210TP3     H118449   5.147   2.298   8.950 -0.4375  0.2814 -0.5724
 2210TP3     H218450   5.095   2.156   8.943 -0.3305  0.2931 -1.8089
 2211TP3      O18451   3.763   1.187   7.423 -0.0867 -0.1823  0.4958
 2211TP3     H118452   3.719   1.102   7.427  0.0753 -0.2571  0.7226
 2211TP3     H218453   3.757   1.213   7.331  1.9343 -1.5511 -0.1041
 2212TP3      O18454   1.278   0.043   9.598 -0.1042  0.1481 -0.0239
 2212TP3     H118455   1.314   0.084   9.520 -2.9890  2.5608 -0.2690
 2212TP3     H218456   1.303   0.102   9.669 -0.1224 -0.3691  0.4166
 2213TP3      O18457   1.535   1.816   7.574 -0.6201  0.0715  0.1687
 2213TP3     H118458   1.447   1.832   7.608 -0.7244  1.6007 -0.7220
 2213TP3     H218459   1.521   1.795   7.482 -0.0601  0.1950  0.0525
 2214TP3      O18460   2.202   4.562   1.891 -0.1747 -0.1966  0.7306
 2214TP3     H118461   2.158   4.482   1.859  0.5537 -0.6126  0.7544
 2214TP3     H218462   2.167   4.574   1.979  1.0260 -1.5207  1.4276
 2215TP3      O18463   2.865   1.324  10.133 -0.4564 -0.4269 -0.3705
 2215TP3     H118464   2.912   1.334  10.051 -1.3417 -0.9490 -0.9609
 2215TP3     H218465   2.924   1.274  10.189 -0.1504 -0.7277 -0.9628
 2216TP3      O18466   1.314   3.692   8.945 -0.0161  0.5669 -0.1702
 2216TP3     H118467   1.321   3.785   8.967  2.6377  0.3746  0.2180
 2216TP3     H218468   1.225   3.668   8.970  0.4574  2.0708  3.7008
 2217TP3      O18469   1.422   3.313   2.536 -0.5149  0.0698  0.3374
 2217TP3     H118470   1.426   3.408   2.539 -0.9825  0.1743 -1.3841
 2217TP3     H218471   1.492   3.284   2.594 -0.5460  1.4483  1.1017
 2218TP3      O18472   4.139   2.257   8.955  0.0711  0.1476  0.2190
 2218TP3     H118473   4.204   2.308   8.906  2.1337 -2.3934  0.0228
 2218TP3     H218474   4.092   2.208   8.888  0.2155 -0.4462  0.5435
 2219TP3      O18475   4.686   0.925   8.487  0.0659  0.5647  0.1968
 2219TP3     H118476   4.666   0.976   8.408 -0.3754  0.6500  0.3602
 2219TP3     H218477   4.661   0.982   8.560  0.2450  0.3923  0.3934
 2220TP3      O18478   1.424   3.194   3.011  0.0223  0.1329  0.0590
 2220TP3     H118479   1.356   3.170   3.075 -2.0176  0.1203 -1.9608
 2220TP3     H218480   1.474   3.263   3.054 -0.7653 -0.4008  1.9474
 2221TP3      O18481   3.702   0.715   1.542 -0.3422  0.6266  0.2255
 2221TP3     H118482   3.747   0.739   1.623  0.1792  0.7233 -0.0903
 2221TP3     H218483   3.766   0.663   1.493 -1.4043 -1.3793  0.8591
 2222TP3      O18484   1.261   2.426   9.360 -0.3084 -0.0513 -0.5677
 2222TP3     H118485   1.173   2.460   9.370  0.0612  1.2398 -1.4992
 2222TP3     H218486   1.267   2.398   9.269  0.2015 -0.2801 -0.4715
 2223TP3      O18487   4.688   0.388   8.185  0.3541  0.1625 -0.0315
 2223TP3     H118488   4.691   0.409   8.091 -0.5944  1.0248  0.1091
 2223TP3     H218489   4.739   0.307   8.193  0.5467  0.1362 -1.2725
 2224TP3      O18490   3.351   2.509   1.920 -0.2395 -0.4520 -0.1098
 2224TP3     H118491   3.369   2.526   2.013  0.2644 -1.0981 -0.0864
 2224TP3     H218492   3.365   2.415   1.910 -0.4008 -0.4016 -0.8208
 2225TP3      O18493   2.699   0.656   9.399 -0.7204 -0.1080 -0.7689
 2225TP3     H118494   2.693   0.673   9.305 -0.8172 -1.5055 -1.0411
 2225TP3     H218495   2.668   0.566   9.409  1.2995 -0.7537  0.3280
 2226TP3      O18496   5.004   1.787   0.007 -0.9307 -0.0458  0.1755
 2226TP3     H118497   4.956   1.865  -0.020  1.1393  0.8095 -1.2507
 2226TP3     H218498   5.090   1.819   0.034  0.7850 -1.9343 -2.5441
 2227TP3      O18499   3.679   4.482   0.956 -0.2845 -0.0895  0.0557
 2227TP3     H118500   3.719   4.533   1.027 -0.0047  0.5621 -0.5635
 2227TP3     H218501   3.586   4.500   0.963 -0.0820  1.4292 -0.8624
 2228TP3      O18502   0.936   1.236   0.095  0.6812  0.5258 -0.7512
 2228TP3     H118503   0.872   1.298   0.062  1.8669  0.6874 -2.9058
 2228TP3     H218504   0.892   1.192   0.168 -0.3818  3.4591  0.5231
 2229TP3      O18505   4.846   3.943   8.870 -0.9181 -0.4665 -0.1995
 2229TP3     H118506   4.811   3.893   8.796  1.0223 -1.2834 -0.6534
 2229TP3     H218507   4.896   4.014   8.828  1.0188 -1.5109  0.2309
 2230TP3      O18508   4.470   1.587   0.651 -0.7139  0.5943 -0.2371
 2230TP3     H118509   4.398   1.579   0.589  0.5003 -0.5003 -1.5523
 2230TP3     H218510   4.506   1.499   0.659 -1.1733  0.5452  2.5313
 2231TP3      O18511   4.374   4.693   1.711  0.1062  0.5203 -0.1631
 2231TP3     H118512   4.447   4.633   1.699 -0.4062 -0.1772  0.1131
 2231TP3     H218513   4.340   4.672   1.799 -0.4639  0.7822 -0.3134
 2232TP3      O18514   0.760   0.110   7.502 -0.7272 -0.0905 -0.2697
 2232TP3     H118515   0.778   0.204   7.506  1.0895 -0.4241 -0.0302
 2232TP3     H218516   0.780   0.085   7.412 -0.2646 -0.4247 -0.0756
 2233TP3      O18517   4.387   2.321   7.759 -0.1649  0.2925 -0.2225
 2233TP3     H118518   4.314   2.267   7.729 -0.6466 -1.0870  3.0044
 2233TP3     H218519   4.346   2.393   7.806  0.4226 -0.6959  1.9385
 2234TP3      O18520   3.323   4.983   8.438 -0.2868  0.2901 -0.4882
 2234TP3     H118521   3.293   4.989   8.347 -0.7348  0.0355 -0.3618
 2234TP3     H218522   3.329   4.889   8.455  0.2940  0.3358 -0.4094
 2235TP3      O18523   2.813   4.787   7.716 -0.2935 -0.5252 -0.5421
 2235TP3     H118524   2.867   4.714   7.747  1.0887  0.0116 -1.5709
 2235TP3     H218525   2.872   4.838   7.660 -1.2950  1.2147 -0.0993
 2236TP3      O18526   0.520   0.629   9.534  0.5287  0.3947  0.0154
 2236TP3     H118527   0.571   0.623   9.453 -0.0986  1.3104 -0.4548
 2236TP3     H218528   0.582   0.664   9.599  0.2071  2.7266 -0.8566
 2237TP3      O18529   4.990   0.379   9.926  0.6689 -0.0504  0.2862
 2237TP3     H118530   5.082   0.401   9.931  0.8803 -1.0061  0.9085
 2237TP3     H218531   4.989   0.288   9.894  0.0964 -1.0897  2.9671
 2238TP3      O18532   1.238   1.650   8.714 -0.0713  0.8041 -0.0415
 2238TP3     H118533   1.151   1.688   8.730 -0.0829  0.3120  1.1988
 2238TP3     H218534   1.294   1.690   8.781  0.4422  0.3950 -0.2174
 2239TP3      O18535   3.472   5.204   8.939  0.0292 -0.0031  0.3836
 2239TP3     H118536   3.416   5.164   8.873 -0.1020 -0.8912  1.0149
 2239TP3     H218537   3.560   5.202   8.901  0.1874 -1.7685  0.7589
 2240TP3      O18538   4.455   3.444   8.441 -0.6365 -0.0763  0.1047
 2240TP3     H118539   4.497   3.501   8.376 -0.8665  1.1882  1.0267
 2240TP3     H218540   4.417   3.373   8.390 -0.4975  0.6968 -1.1024
 2241TP3      O18541   4.696   2.101   9.022 -0.2519  0.4215  0.3530
 2241TP3     H118542   4.610   2.070   9.052  0.7181 -1.1942  1.6167
 2241TP3     H218543   4.736   2.023   8.982  1.3572  0.6230  1.5085
 2242TP3      O18544   1.060   0.078   7.048 -0.5845  0.9329  0.9492
 2242TP3     H118545   1.128   0.017   7.074 -1.0256  0.0241  0.0672
 2242TP3     H218546   1.041   0.129   7.127  0.5814  0.7016  1.3960
 2243TP3      O18547   4.373   4.742   9.495  0.1284 -0.2230  1.0112
 2243TP3     H118548   4.325   4.815   9.455  0.7995 -1.1720 -1.7541
 2243TP3     H218549   4.437   4.784   9.553 -0.0856  1.3492  0.1713
 2244TP3      O18550   4.123   3.903   0.895  0.0051  0.1061  0.7487
 2244TP3     H118551   4.122   3.913   0.800 -2.4703 -0.1907  0.6753
 2244TP3     H218552   4.040   3.940   0.924  0.7890  0.3718  2.8402
 2245TP3      O18553   4.220   0.643   0.779 -0.0988 -0.1997  0.4493
 2245TP3     H118554   4.224   0.606   0.691 -2.3677  0.0170  0.1871
 2245TP3     H218555   4.286   0.594   0.829  0.2701 -1.2726 -1.0244
 2246TP3      O18556   2.707   3.967   1.341 -0.5643  0.3918  0.0659
 2246TP3     H118557   2.741   3.941   1.427 -2.6433  0.0981  0.8369
 2246TP3     H218558   2.751   4.050   1.322  0.7841 -0.1083  0.8551
 2247TP3      O18559   2.708   4.001   2.826  0.1666 -0.0366 -0.0214
 2247TP3     H118560   2.791   3.984   2.781 -1.9487 -4.1544 -3.1236
 2247TP3     H218561   2.653   4.043   2.759 -1.0958  0.0156  1.0142
 2248TP3      O18562   1.044   1.123  10.276 -0.2821  0.2805 -0.2234
 2248TP3     H118563   0.994   1.176  10.338  3.5592  1.6524  1.9843
 2248TP3     H218564   1.091   1.187  10.222  2.3897 -0.7695  0.7123
 2249TP3      O18565   1.204   2.033  10.359  0.1543  0.6759 -0.2550
 2249TP3     H118566   1.217   2.033  10.264 -1.1933 -1.0018 -0.4921
 2249TP3     H218567   1.281   1.989  10.394 -0.1784 -0.3278 -0.7500
 2250TP3      O18568   3.885   2.639   9.916  0.0922 -0.1808 -0.2558
 2250TP3     H118569   3.829   2.712   9.939 -0.1291 -0.1279 -0.9479
 2250TP3     H218570   3.968   2.658   9.959  0.0080  0.4266 -0.3569
 2251TP3      O18571   3.894   0.533   8.498 -0.7282  0.3625 -0.4178
 2251TP3     H118572   3.901   0.626   8.475  2.2977 -0.0027 -1.4657
 2251TP3     H218573   3.961   0.520   8.565 -0.5190 -1.2097 -0.8971
 2252TP3      O18574   1.423   2.896   6.789  0.2698 -0.2547  0.0095
 2252TP3     H118575   1.477   2.883   6.711 -1.2761 -0.2213 -1.1251
 2252TP3     H218576   1.427   2.990   6.805  3.4128 -0.6199  2.1734
 2253TP3      O18577   1.934   3.987   9.124 -0.1642  0.3065  0.2701
 2253TP3     H118578   1.950   3.977   9.030 -0.1916  0.7528  0.2146
 2253TP3     H218579   1.974   3.910   9.163 -0.2751  0.0477 -0.1218
 2254TP3      O18580   3.173   4.063   3.389  0.3065 -0.0008 -0.3722
 2254TP3     H118581   3.178   4.002   3.462  0.2562 -1.2397 -1.3745
 2254TP3     H218582   3.125   4.016   3.321  0.2916  1.1428 -1.1880
 2255TP3      O18583   1.178   5.216   1.164 -0.0790  0.3687 -0.4838
 2255TP3     H118584   1.167   5.173   1.249  1.4727  0.0151 -0.4428
 2255TP3     H218585   1.271   5.238   1.160 -0.4535  1.9264 -1.3750
 2256TP3      O18586   1.886   0.614   3.459 -0.4614  0.0552  0.2615
 2256TP3     H118587   1.969   0.566   3.460  0.0364  0.9014  0.3458
 2256TP3     H218588   1.905   0.693   3.408 -1.6356 -0.4628 -1.0553
 2257TP3      O18589   3.817   2.452   8.372 -0.3489 -0.2895  0.5659
 2257TP3     H118590   3.742   2.400   8.400  1.6665 -3.0263  1.2462
 2257TP3     H218591   3.860   2.479   8.454 -0.6722  1.4928  0.1964
 2258TP3      O18592   3.405   4.706   9.895 -0.1877  0.0874 -0.3733
 2258TP3     H118593   3.380   4.655   9.972 -1.3531  1.1674 -0.0083
 2258TP3     H218594   3.451   4.782   9.931  0.2554  0.0377 -0.8236
 2259TP3      O18595   0.901   0.730  10.010 -0.0586 -0.1498  0.1982
 2259TP3     H118596   0.892   0.815  10.054 -1.6008 -0.1513 -0.0410
 2259TP3     H218597   0.924   0.669  10.079 -0.6664  0.1633  0.6894
 2260TP3      O18598   2.539   4.583   9.052  0.0014 -0.0987 -0.3380
 2260TP3     H118599   2.506   4.501   9.089  1.5586 -0.7114 -0.2218
 2260TP3     H218600   2.473   4.648   9.074 -0.2069 -0.8923  1.5665
 2261TP3      O18601   3.186   0.326   8.404 -0.3079  0.0686  0.3363
 2261TP3     H118602   3.249   0.297   8.470  2.8472  2.0451 -1.5437
 2261TP3     H218603   3.167   0.417   8.427 -0.6034  0.2159 -0.4631
 2262TP3      O18604   4.549   4.815   0.975  0.0517 -0.3516  0.0041
 2262TP3     H118605   4.494   4.863   0.914 -1.7635 -0.0183  1.7980
 2262TP3     H218606   4.604   4.759   0.920  0.5750  2.0176 -2.0329
 2263TP3      O18607   0.635   3.270   8.671  0.0954 -0.7614 -0.6502
 2263TP3     H118608   0.619   3.231   8.757 -0.5302 -0.1872 -0.5002
 2263TP3     H218609   0.717   3.230   8.642  0.1470 -1.2015  0.0717
 2264TP3      O18610   4.640   3.699   0.264  0.5997  0.6161 -0.3816
 2264TP3     H118611   4.608   3.783   0.299  0.5467  0.8558 -0.9905
 2264TP3     H218612   4.657   3.646   0.342  1.5239  1.5134  0.0539
 2265TP3      O18613   0.569   4.738   3.498 -0.0164  0.1290  0.5547
 2265TP3     H118614   0.528   4.749   3.584  0.4593  1.3839  0.6415
 2265TP3     H218615   0.522   4.799   3.442 -0.1005 -0.4455 -0.0110
 2266TP3      O18616   4.622   0.874   0.211 -0.9666 -0.8107 -0.4410
 2266TP3     H118617   4.584   0.953   0.173 -1.3794 -1.9784 -2.5981
 2266TP3     H218618   4.686   0.844   0.146  0.6866 -1.1714  1.2553
 2267TP3      O18619   0.773   0.331   7.755 -0.2745 -0.0846  0.0572
 2267TP3     H118620   0.785   0.418   7.792  1.1605 -1.1364  2.2622
 2267TP3     H218621   0.862   0.300   7.737 -0.7297 -1.2874 -0.2275
 2268TP3      O18622   1.556   1.047   2.540  0.2149  0.1508 -0.0415
 2268TP3     H118623   1.637   0.995   2.548 -0.5131 -1.3274 -1.5764
 2268TP3     H218624   1.584   1.130   2.502  1.1868  0.2568  0.8516
 2269TP3      O18625   3.409   4.467   1.029  0.1727  0.3218 -0.0705
 2269TP3     H118626   3.372   4.547   0.992  0.0817  0.9857  1.3664
 2269TP3     H218627   3.392   4.474   1.123  1.5489 -0.6439  0.2877
 2270TP3      O18628   0.947   0.641   3.635  0.0270  0.1130  0.0248
 2270TP3     H118629   1.000   0.636   3.555  0.5542  1.5948  0.2507
 2270TP3     H218630   0.993   0.587   3.699  0.3997  0.1148 -0.2412
 2271TP3      O18631   2.871   2.262   0.410  0.2520  0.0236  0.4269
 2271TP3     H118632   2.846   2.312   0.332  0.7586 -1.3395 -0.6631
 2271TP3     H218633   2.789   2.223   0.441  0.3115 -0.9767 -0.5962
 2272TP3      O18634   4.734   3.961   3.056  0.2716 -0.7084 -0.6155
 2272TP3     H118635   4.784   4.043   3.059  0.1564 -0.6454  2.8197
 2272TP3     H218636   4.791   3.897   3.099 -1.0573 -1.5648 -0.0769
 2273TP3      O18637   1.354   2.597   9.535 -0.1865 -0.2387  0.2164
 2273TP3     H118638   1.298   2.558   9.602  1.0071 -0.1139  1.3063
 2273TP3     H218639   1.332   2.549   9.455 -1.2296 -0.7670  0.7933
 2274TP3      O18640   4.381   0.279  10.360  0.7009  0.1110  0.0561
 2274TP3     H118641   4.301   0.227  10.358  0.9993 -0.3421 -0.2364
 2274TP3     H218642   4.354   0.363  10.396  0.1396 -0.1187  0.1779
 2275TP3      O18643   3.178   5.124   7.812  0.2291  0.1865  0.1583
 2275TP3     H118644   3.153   5.143   7.722 -0.3608  0.8981  0.4637
 2275TP3     H218645   3.161   5.030   7.822  0.1067  0.1435 -0.4084
 2276TP3      O18646   2.823   1.431   8.460  0.0641 -0.1637 -0.0664
 2276TP3     H118647   2.885   1.468   8.523 -1.0922  1.4397  0.2069
 2276TP3     H218648   2.869   1.437   8.376 -0.0073  1.8838 -0.0191
 2277TP3      O18649   3.092   3.127   9.901 -0.5962 -0.5993 -0.1638
 2277TP3     H118650   3.011   3.135   9.851 -1.3271 -0.9302  0.9122
 2277TP3     H218651   3.077   3.051   9.958  0.1523 -0.1767  0.6235
 2278TP3      O18652   4.369   3.914   1.797  0.2946  0.0541  0.1377
 2278TP3     H118653   4.423   3.951   1.728  0.6648 -0.1988  0.2906
 2278TP3     H218654   4.417   3.837   1.827  0.2429  0.2859  0.8244
 2279TP3      O18655   3.999   0.526   2.929  0.0197 -0.5061  0.1056
 2279TP3     H118656   4.021   0.556   2.841  2.3590 -0.2226  0.7137
 2279TP3     H218657   3.932   0.459   2.916  1.5557 -1.7354 -2.0381
 2280TP3      O18658   2.048   2.257   7.930  0.8371  0.1592  0.8242
 2280TP3     H118659   2.134   2.234   7.895 -0.4298 -2.3357 -0.9758
 2280TP3     H218660   2.026   2.184   7.989 -0.3687  0.3104  0.5923
 2281TP3      O18661   4.172   0.634   1.807 -0.5704  0.8734  0.4264
 2281TP3     H118662   4.214   0.626   1.721 -2.0441  0.2627 -0.2696
 2281TP3     H218663   4.231   0.586   1.866  0.0477  0.5797 -0.3947
 2282TP3      O18664   0.908   0.658  10.260 -0.5447 -0.1314 -0.2497
 2282TP3     H118665   0.968   0.716  10.306 -2.1141  0.3312  1.2889
 2282TP3     H218666   0.901   0.581  10.316 -0.4103 -0.7566 -1.0649
 2283TP3      O18667   0.682   0.584   2.796 -0.0239  0.6808  0.3799
 2283TP3     H118668   0.603   0.549   2.837  1.3262 -0.5903  2.0310
 2283TP3     H218669   0.720   0.643   2.861  2.1254 -1.3274  1.0676
 2284TP3      O18670   0.916   4.403   8.170  0.8765  0.5189 -0.0932
 2284TP3     H118671   0.941   4.430   8.082 -0.8158 -1.5867 -1.3183
 2284TP3     H218672   0.906   4.308   8.164  1.0725  0.2561  2.4934
 2285TP3      O18673   1.665   0.581   9.418 -0.0619 -0.4587  0.2239
 2285TP3     H118674   1.570   0.575   9.412  0.0455 -2.0216 -0.5410
 2285TP3     H218675   1.692   0.496   9.454  1.0202  0.1177  0.8282
 2286TP3      O18676   0.966   3.937   2.824 -0.1172 -0.4754  0.4054
 2286TP3     H118677   0.885   3.986   2.832  0.2089  0.4245 -1.2499
 2286TP3     H218678   1.008   3.946   2.910 -0.9734  0.4973  0.7460
 2287TP3      O18679   2.860   2.784   9.351  0.4822 -0.2369 -0.3755
 2287TP3     H118680   2.798   2.736   9.296 -1.7068 -0.2735  1.9264
 2287TP3     H218681   2.901   2.847   9.292 -2.7285  0.6779 -1.8653
 2288TP3      O18682   3.594   3.901  10.319  0.4898 -0.6479  0.0438
 2288TP3     H118683   3.570   3.982  10.362  0.6841 -1.3338  1.4895
 2288TP3     H218684   3.616   3.841  10.390  3.0407 -1.1488 -1.0445
 2289TP3      O18685   2.334   3.595   2.418  0.2937  0.3062 -0.1807
 2289TP3     H118686   2.311   3.603   2.511 -1.6419 -0.8780 -0.5011
 2289TP3     H218687   2.409   3.536   2.417 -0.3529 -0.5521  0.5916
 2290TP3      O18688   0.727   4.115   0.488  0.1863  0.4234  0.1010
 2290TP3     H118689   0.664   4.138   0.557  1.0600  0.8774  0.7619
 2290TP3     H218690   0.741   4.197   0.441 -1.8428 -0.2571 -1.8791
 2291TP3      O18691   1.807   0.306   7.547 -0.0822  0.2848 -0.0205
 2291TP3     H118692   1.868   0.344   7.484  1.4534 -0.6932  0.8219
 2291TP3     H218693   1.847   0.223   7.572 -0.6399  0.6314  2.2064
 2292TP3      O18694   5.064   2.789   2.557  0.1697 -0.5504  0.1211
 2292TP3     H118695   5.082   2.751   2.471 -1.2129  0.3953 -0.6265
 2292TP3     H218696   5.085   2.882   2.548  0.8026 -0.5786  1.0763
 2293TP3      O18697   0.667   2.877   1.448  0.5151  0.1565 -0.3323
 2293TP3     H118698   0.615   2.955   1.429  1.6988  0.6598 -1.7536
 2293TP3     H218699   0.738   2.908   1.504  0.4125 -0.1135 -0.0489
 2294TP3      O18700   2.376   1.113   9.087 -0.2938 -0.2828 -0.2379
 2294TP3     H118701   2.406   1.048   9.150  0.6180  0.5280  0.1833
 2294TP3     H218702   2.437   1.105   9.013  0.5605  0.8662  0.3096
 2295TP3      O18703   1.030   1.580   2.562 -0.1579  0.4400  0.0391
 2295TP3     H118704   0.979   1.527   2.500  0.3090 -2.1881  1.7200
 2295TP3     H218705   0.965   1.628   2.612 -0.6853  0.6743 -0.8599
 2296TP3      O18706   2.097   1.945   9.791  0.0434  0.7589  0.1497
 2296TP3     H118707   2.013   1.903   9.808  0.4040 -0.7890 -1.5878
 2296TP3     H218708   2.077   2.039   9.791 -0.8820  0.7175  3.6049
 2297TP3      O18709   3.267   1.826   8.891 -0.2780 -0.4365  0.2292
 2297TP3     H118710   3.188   1.854   8.937 -0.7211 -2.1169  0.5501
 2297TP3     H218711   3.337   1.878   8.930 -1.0027  0.0135  0.9755
 2298TP3      O18712   1.523   0.901   3.631  0.3447  0.1122 -0.6756
 2298TP3     H118713   1.604   0.950   3.647  0.5579 -0.8752  1.7223
 2298TP3     H218714   1.553   0.810   3.621 -0.3365 -0.0392 -1.3934
 2299TP3      O18715   1.710   5.125   3.696 -0.1567 -0.0986 -0.2595
 2299TP3     H118716   1.677   5.178   3.768 -1.8813 -1.1001 -0.2475
 2299TP3     H218717   1.703   5.182   3.619 -0.5763  0.1997 -0.0042
 2300TP3      O18718   1.658   1.581   8.902  0.2555 -0.0323 -0.3811
 2300TP3     H118719   1.702   1.663   8.922  1.7945 -1.2408  1.5505
 2300TP3     H218720   1.571   1.590   8.942 -0.2161  1.2491 -1.6462
 2301TP3      O18721   2.971   1.566   9.164 -0.3896 -0.7213 -0.3345
 2301TP3     H118722   3.051   1.538   9.208 -0.8409 -1.6235 -0.0601
 2301TP3     H218723   2.910   1.494   9.177 -1.6235  0.4083  0.4469
 2302TP3      O18724   3.598   1.305   1.701 -0.0101 -0.0722  0.0980
 2302TP3     H118725   3.660   1.332   1.769  3.1748 -0.6112 -2.3722
 2302TP3     H218726   3.620   1.360   1.626 -3.3450  0.4324 -0.6399
 2303TP3      O18727   2.258   1.856   7.671  0.1685 -0.0259  0.1702
 2303TP3     H118728   2.318   1.886   7.739 -0.2164  1.1347  0.0189
 2303TP3     H218729   2.174   1.896   7.694 -0.2445 -0.5840 -0.3366
 2304TP3      O18730   3.151   2.066   8.161 -0.4868  0.3280  0.0805
 2304TP3     H118731   3.189   2.070   8.074 -0.0663 -0.0644  0.2402
 2304TP3     H218732   3.223   2.086   8.220 -0.6867  0.2497  0.3548
 2305TP3      O18733   3.603   2.676  10.389  0.2920  0.6411  0.2567
 2305TP3     H118734   3.650   2.616  10.446  1.0418 -1.6377 -2.4825
 2305TP3     H218735   3.630   2.763  10.417  1.7749 -0.4048  2.3161
 2306TP3      O18736   3.715   0.156   3.134 -0.3541 -0.1774  0.3418
 2306TP3     H118737   3.781   0.087   3.143 -0.0308 -0.0126 -0.6816
 2306TP3     H218738   3.682   0.169   3.223  0.1588 -1.0792  0.6777
 2307TP3      O18739   2.846   0.771   7.102 -0.2550  0.0051 -1.0131
 2307TP3     H118740   2.799   0.851   7.124 -0.5309 -0.5214  0.4689
 2307TP3     H218741   2.830   0.758   7.008  0.1980  1.9078 -1.3948
 2308TP3      O18742   1.023   4.220   6.789 -0.2804 -0.0091  0.4419
 2308TP3     H118743   0.951   4.263   6.837 -1.4468 -1.9256  0.4951
 2308TP3     H218744   1.084   4.192   6.858 -0.7613 -0.6296  0.6229
 2309TP3      O18745   1.490   0.321   8.952 -0.1590 -0.5638  0.3024
 2309TP3     H118746   1.443   0.284   8.878 -0.0616 -1.1254  0.5126
 2309TP3     H218747   1.473   0.260   9.024 -0.1853 -0.0694  0.7192
 2310TP3      O18748   1.748   1.753   9.584 -0.6745 -0.2776  0.8175
 2310TP3     H118749   1.786   1.831   9.626  1.0372  0.2237 -1.4727
 2310TP3     H218750   1.766   1.682   9.646  0.0689  0.7200  1.7974
 2311TP3      O18751   0.096   0.143   1.538  0.1529  0.5527  0.1553
 2311TP3     H118752   0.140   0.224   1.565 -0.6679  0.9752  0.2728
 2311TP3     H218753   0.019   0.138   1.595  0.9338 -1.0673  1.1226
 2312TP3      O18754   3.879   3.962   0.723  0.1105 -0.1891 -0.3556
 2312TP3     H118755   3.829   3.953   0.641 -0.7262 -0.1927  0.1453
 2312TP3     H218756   3.841   4.038   0.766 -0.6234 -1.1947  0.8325
 2313TP3      O18757   4.663   3.301   7.921 -0.2614 -0.1365 -0.2941
 2313TP3     H118758   4.654   3.208   7.898 -1.5913  0.1003 -0.8229
 2313TP3     H218759   4.648   3.303   8.016 -0.5483 -0.4292 -0.3300
 2314TP3      O18760   5.102   5.201  10.074  0.1144 -0.0771 -0.3556
 2314TP3     H118761   5.152   5.274  10.110  0.5990  0.0963 -1.3251
 2314TP3     H218762   5.028   5.190  10.133 -0.4475  1.7713 -0.6570
 2315TP3      O18763   4.750   5.092   0.311 -0.3336 -0.2959  0.4914
 2315TP3     H118764   4.678   5.106   0.249  0.4452  1.1262 -0.1197
 2315TP3     H218765   4.759   5.176   0.357  0.6116 -0.6199  0.9223
 2316TP3      O18766   3.718   0.696   9.727  0.4413  0.3196 -0.1091
 2316TP3     H118767   3.643   0.643   9.752 -0.0082  1.0348  0.0674
 2316TP3     H218768   3.781   0.683   9.798 -0.1284  0.9439  0.5180
 2317TP3      O18769   1.979   4.897   1.905 -0.2129 -0.2500 -0.1885
 2317TP3     H118770   1.893   4.933   1.882 -1.0316 -2.0649 -0.1466
 2317TP3     H218771   1.959   4.811   1.942  1.5764 -0.3058  0.7049
 2318TP3      O18772   1.569   2.948   2.737 -0.2941  0.1525  0.7561
 2318TP3     H118773   1.648   2.956   2.791  1.8915  0.6676 -2.2575
 2318TP3     H218774   1.555   3.035   2.700  0.3329 -0.7887 -1.9790
 2319TP3      O18775   2.841   1.017   9.594 -0.1671 -0.1020 -0.5044
 2319TP3     H118776   2.862   1.101   9.633  0.7880 -0.8711  0.7353
 2319TP3     H218777   2.926   0.975   9.580 -0.5754 -0.5467 -1.8682
 2320TP3      O18778   4.531   1.855   9.531  0.0695  0.3747 -0.0947
 2320TP3     H118779   4.584   1.847   9.451  1.4077 -3.0634  0.9336
 2320TP3     H218780   4.469   1.782   9.525 -0.0952  0.3152  1.8004
 2321TP3      O18781   1.991   4.015   0.474  0.5953  0.0117  0.0470
 2321TP3     H118782   1.910   3.964   0.481  0.7039 -0.1645  0.0361
 2321TP3     H218783   2.022   4.023   0.564 -0.1983  1.3366  0.2272
 2322TP3      O18784   1.709   3.361  10.320 -0.4069 -0.0581  0.7278
 2322TP3     H118785   1.672   3.285  10.274 -0.1770 -0.2025  0.7783
 2322TP3     H218786   1.659   3.435  10.289  0.1711 -0.0638 -0.2434
 2323TP3      O18787   0.221   2.558   7.715 -0.1169 -0.1089 -0.4872
 2323TP3     H118788   0.305   2.536   7.756  0.2482  0.2872 -1.0047
 2323TP3     H218789   0.202   2.647   7.746 -1.3968 -0.9433  1.2975
 2324TP3      O18790   2.273   0.320   8.282 -0.4112 -0.2015 -0.3033
 2324TP3     H118791   2.276   0.383   8.354  0.8661  0.2450 -0.7200
 2324TP3     H218792   2.291   0.372   8.204 -0.6556 -0.8666 -0.8092
 2325TP3      O18793   0.415   3.879   9.463 -0.4689 -0.3668 -0.0420
 2325TP3     H118794   0.361   3.936   9.518 -0.9340 -1.0297  0.1913
 2325TP3     H218795   0.377   3.792   9.473  0.1045 -0.6867 -0.5704
 2326TP3      O18796   3.994   2.747   1.057  0.9489 -0.5061 -0.1745
 2326TP3     H118797   4.028   2.835   1.042  1.6339 -0.6182  0.6388
 2326TP3     H218798   3.998   2.704   0.972  0.2680  0.3657 -0.6506
 2327TP3      O18799   1.115   1.397  10.114 -0.2084  0.1400 -0.7365
 2327TP3     H118800   1.122   1.402  10.019 -0.5846 -0.6369 -0.8129
 2327TP3     H218801   1.085   1.484  10.140 -1.8226 -0.1443 -1.5126
 2328TP3      O18802   4.945   0.716   2.818 -0.1389 -0.5070  0.2536
 2328TP3     H118803   4.976   0.792   2.769  1.3170 -1.1867  0.0558
 2328TP3     H218804   4.855   0.737   2.842 -0.2277  0.6620 -1.0240
 2329TP3      O18805   3.996   3.412   1.608 -0.7094  0.0589  0.3303
 2329TP3     H118806   4.030   3.328   1.578 -0.8585  0.0229  0.2607
 2329TP3     H218807   3.909   3.392   1.642 -1.3648  0.4204 -1.0681
 2330TP3      O18808   0.910   2.894   8.946 -0.3098 -0.3274 -0.4955
 2330TP3     H118809   0.815   2.903   8.950 -0.2471  0.6362 -0.8651
 2330TP3     H218810   0.942   2.984   8.954  0.6416 -0.7963  1.5047
 2331TP3      O18811   0.541   2.035   3.278 -0.2255  0.1827 -0.1233
 2331TP3     H118812   0.555   2.098   3.348 -0.1516 -0.6527  0.6346
 2331TP3     H218813   0.589   1.957   3.307 -0.5578 -0.3154 -0.8967
 2332TP3      O18814   0.122   0.845   8.919  1.3186  0.0802  0.0735
 2332TP3     H118815   0.077   0.774   8.873  1.4239  0.8160 -1.2271
 2332TP3     H218816   0.054   0.911   8.933  1.4800  0.2184  0.2105
 2333TP3      O18817   0.331   0.245   0.613  0.3887 -0.1089  0.5770
 2333TP3     H118818   0.246   0.228   0.572  0.3256  0.0595  0.6397
 2333TP3     H218819   0.381   0.290   0.545 -0.2768  1.6911  1.2246
 2334TP3      O18820   4.066   4.992   9.142  0.8588  0.5985  0.2897
 2334TP3     H118821   4.133   4.992   9.073 -0.1274  0.7168 -0.6996
 2334TP3     H218822   4.021   4.908   9.132  0.7284  0.6028  0.8212
 2335TP3      O18823   3.726   2.706   7.946 -0.0727  0.5909 -0.4031
 2335TP3     H118824   3.736   2.699   8.041 -0.4589 -0.7034 -0.4325
 2335TP3     H218825   3.816   2.708   7.913  0.0650  1.2885 -0.0105
 2336TP3      O18826   3.950   2.446   8.931  0.0862  0.2407  0.4030
 2336TP3     H118827   3.928   2.514   8.995  0.0026  0.1789  0.4409
 2336TP3     H218828   4.025   2.400   8.970 -1.5406 -1.4677  1.7093
 2337TP3      O18829   1.919   1.119   0.992 -0.2982 -0.7588  0.5722
 2337TP3     H118830   1.921   1.101   0.898  0.8426 -0.0129  0.4324
 2337TP3     H218831   1.879   1.041   1.031 -1.0209 -0.9586 -0.5487
 2338TP3      O18832   4.936   0.614   9.595 -0.9204 -0.3160 -0.2924
 2338TP3     H118833   4.858   0.599   9.542 -1.1771  0.2510 -0.0743
 2338TP3     H218834   4.994   0.540   9.573 -0.3821  0.7037 -2.5187
 2339TP3      O18835   0.985   4.102   0.688 -0.3236  0.0717 -0.5070
 2339TP3     H118836   0.959   4.020   0.646  0.3215 -0.4620  0.0796
 2339TP3     H218837   1.031   4.151   0.620 -1.6735  0.4430 -1.1685
 2340TP3      O18838   5.182   4.507   1.959  0.4109  0.1068  0.3425
 2340TP3     H118839   5.176   4.520   2.054 -1.6919 -0.3277  0.3374
 2340TP3     H218840   5.269   4.470   1.945  1.3920  1.6582  1.8901
 2341TP3      O18841   0.201   4.823   9.773  0.2698  0.5084  0.3638
 2341TP3     H118842   0.295   4.842   9.770  0.3315  0.0778 -0.9816
 2341TP3     H218843   0.165   4.869   9.698 -0.5227  0.2588  0.5817
 2342TP3      O18844   0.285   4.500   2.564 -0.7758  0.0757 -0.2860
 2342TP3     H118845   0.323   4.510   2.651  0.4006 -0.4724 -0.7019
 2342TP3     H218846   0.353   4.533   2.505 -2.5800  2.9760 -0.9213
 2343TP3      O18847   4.357   2.018   0.880  0.0999  0.4509 -0.4428
 2343TP3     H118848   4.411   2.097   0.871 -0.5813  0.9090 -0.6315
 2343TP3     H218849   4.306   2.033   0.960  1.3714 -0.6832  0.6298
 2344TP3      O18850   2.225   0.794   9.836 -0.4573 -0.1332  0.0644
 2344TP3     H118851   2.310   0.830   9.861 -0.2197 -1.2839  1.0141
 2344TP3     H218852   2.228   0.702   9.864 -1.5701 -0.5197 -0.9700
 2345TP3      O18853   4.485   3.030   0.472  0.0377 -0.1827  0.4823
 2345TP3     H118854   4.402   3.012   0.516  0.2758 -0.0704  0.9777
 2345TP3     H218855   4.517   3.111   0.512  1.2709 -1.1847  1.5788
 2346TP3      O18856   3.559   0.834   6.406 -0.5891 -0.0640  0.8429
 2346TP3     H118857   3.474   0.863   6.374 -1.3155 -2.8139  0.0641
 2346TP3     H218858   3.543   0.749   6.446  1.5624  0.0056  2.0214
 2347TP3      O18859   3.143   0.949   1.936 -0.1871 -0.0043 -0.3368
 2347TP3     H118860   3.148   0.857   1.960 -1.3895  0.3405  1.5098
 2347TP3     H218861   3.061   0.957   1.887  0.5596 -0.1075 -1.6469
 2348TP3      O18862   4.068   5.160   7.375 -0.2255  0.0986  0.1753
 2348TP3     H118863   3.991   5.202   7.336 -0.5595 -0.3834  0.3129
 2348TP3     H218864   4.048   5.067   7.375  0.1612  0.0103  0.6518
 2349TP3      O18865   1.416   3.015   0.804 -0.0868 -0.0453  0.2175
 2349TP3     H118866   1.392   3.108   0.804  0.3685  0.1450  3.2498
 2349TP3     H218867   1.466   3.004   0.723 -1.6743  1.8716 -1.1499
 2350TP3      O18868   2.189   0.930   7.775 -0.6924  0.0965  0.0302
 2350TP3     H118869   2.200   0.884   7.692  0.0009  0.3928 -0.0522
 2350TP3     H218870   2.279   0.946   7.806 -0.8944 -2.0969  2.0247
 2351TP3      O18871   2.068   3.549   7.690  0.1577 -0.1541  0.1826
 2351TP3     H118872   1.992   3.600   7.718  0.7332  0.8910 -0.1083
 2351TP3     H218873   2.092   3.586   7.605 -0.5460 -2.1813 -0.9573
 2352TP3      O18874   2.427   3.897   1.375  0.3106  0.2423  0.0371
 2352TP3     H118875   2.521   3.911   1.363  0.4939 -0.3150  0.7426
 2352TP3     H218876   2.417   3.885   1.470 -0.5937  1.1750  0.0803
 2353TP3      O18877   4.144   2.175   9.782 -0.1610  0.0677  0.3040
 2353TP3     H118878   4.059   2.130   9.777  0.1846 -0.7678  1.5407
 2353TP3     H218879   4.134   2.250   9.724 -1.6219 -0.2279  0.1222
 2354TP3      O18880   3.761   1.979   1.496  0.4793  0.0605  0.4532
 2354TP3     H118881   3.787   2.038   1.425 -2.7967  0.3593 -0.6558
 2354TP3     H218882   3.735   1.898   1.451  2.7727 -1.5170  1.7808
 2355TP3      O18883   3.966   4.393   9.732  0.0396  0.1757 -0.6818
 2355TP3     H118884   4.053   4.373   9.767  0.3986  2.0591 -0.4421
 2355TP3     H218885   3.916   4.312   9.745  1.9119 -1.1618 -1.3922
 2356TP3      O18886   3.466   4.009   0.815  0.0286  0.3475  0.3526
 2356TP3     H118887   3.518   4.018   0.895 -0.3573  0.0843  0.6376
 2356TP3     H218888   3.376   4.006   0.846 -0.0856 -0.4684 -0.0347
 2357TP3      O18889   3.675   1.090   3.650  0.2001  0.2539 -0.2730
 2357TP3     H118890   3.653   1.113   3.740 -2.3568  0.3309 -0.8397
 2357TP3     H218891   3.656   1.170   3.600  3.8965  1.0399 -0.6606
 2358TP3      O18892   4.299   0.126   0.805 -0.1546  0.7099 -0.0299
 2358TP3     H118893   4.235   0.192   0.833 -1.1774  0.7880 -2.3387
 2358TP3     H218894   4.325   0.153   0.717 -0.1002 -1.5761 -0.7895
 2359TP3      O18895   3.055   4.919   0.714  0.5796 -0.0208  0.1449
 2359TP3     H118896   3.082   4.960   0.796  1.0971  0.0128 -0.0422
 2359TP3     H218897   3.041   4.992   0.654  0.3127 -0.0526  0.1644
 2360TP3      O18898   3.829   4.174   9.818  0.5933  0.0694  0.5507
 2360TP3     H118899   3.863   4.121   9.747 -0.3005  0.5809 -0.2821
 2360TP3     H218900   3.830   4.116   9.894 -0.4088 -1.1575 -0.3421
 2361TP3      O18901   2.595   3.976   0.754 -0.4004  0.0181  0.6902
 2361TP3     H118902   2.590   4.068   0.779 -0.7715 -0.0466  0.8650
 2361TP3     H218903   2.506   3.943   0.767 -0.7886  0.1299 -1.3265
 2362TP3      O18904   1.598   0.461  10.286  0.7948  0.1404  0.1551
 2362TP3     H118905   1.689   0.434  10.280  0.7131 -0.2184  0.5307
 2362TP3     H218906   1.601   0.549  10.324  0.8986 -0.6095  1.9994
 2363TP3      O18907   3.976   0.496   0.291  0.0708  0.3048  0.4230
 2363TP3     H118908   4.020   0.528   0.213 -0.7319  1.1955  0.3224
 2363TP3     H218909   4.026   0.533   0.364  1.0032 -0.7764  0.3560
 2364TP3      O18910   3.831   2.878   1.427 -0.3610 -0.4693 -0.2477
 2364TP3     H118911   3.805   2.969   1.414 -1.3157 -0.7395 -0.3258
 2364TP3     H218912   3.814   2.861   1.520  1.5525 -0.0499  0.2135
 2365TP3      O18913   3.409   1.505   0.889  0.4513  0.7436 -1.1183
 2365TP3     H118914   3.396   1.525   0.982 -2.0172 -0.3045 -1.1518
 2365TP3     H218915   3.350   1.564   0.843 -1.3635 -1.3596 -1.6768
 2366TP3      O18916   4.122   3.371   0.869  0.2027 -0.0164  0.3433
 2366TP3     H118917   4.186   3.308   0.902 -0.4779  0.1230  2.0155
 2366TP3     H218918   4.068   3.393   0.945 -1.2241  0.6099 -0.7942
 2367TP3      O18919   4.600   3.030   1.710  0.4470 -0.1531  0.4043
 2367TP3     H118920   4.688   3.001   1.733 -0.1502 -1.8384  0.6258
 2367TP3     H218921   4.593   3.011   1.616  0.1470 -0.4306  0.4863
 2368TP3      O18922   2.815   2.733  10.370 -0.0525 -0.1017  0.0393
 2368TP3     H118923   2.739   2.708  10.424 -0.0143  1.1329  0.7086
 2368TP3     H218924   2.829   2.658  10.312 -1.8392 -0.3280 -0.1578
 2369TP3      O18925   3.590   3.292  10.230  0.2250 -0.2311 -0.2431
 2369TP3     H118926   3.606   3.294  10.136  0.3681 -1.0325 -0.2377
 2369TP3     H218927   3.499   3.264  10.239  0.4563 -0.9566 -0.1234
 2370TP3      O18928   1.745   0.285   9.067  0.1722  0.2687 -0.1364
 2370TP3     H118929   1.657   0.320   9.075  0.6595  1.7719 -0.8767
 2370TP3     H218930   1.795   0.355   9.023  2.8328  1.4836  4.1943
 2371TP3      O18931   0.160   3.726   0.980  0.4024  0.1412  0.3015
 2371TP3     H118932   0.217   3.803   0.974  0.5601 -0.0522 -1.0155
 2371TP3     H218933   0.149   3.712   1.074 -0.5338  2.4102  0.5997
 2372TP3      O18934   3.481   0.009   8.436  0.2891  0.2657 -0.1766
 2372TP3     H118935   3.410  -0.055   8.437  1.4762 -1.1236  0.1993
 2372TP3     H218936   3.517   0.003   8.348  1.6531 -1.0935  0.4313
 2373TP3      O18937   2.132   1.657   1.146 -0.0526  0.2645  0.0321
 2373TP3     H118938   2.052   1.687   1.103 -0.8471  0.1705  1.4074
 2373TP3     H218939   2.102   1.615   1.227  1.2870 -1.0054 -0.0836
 2374TP3      O18940   0.203   3.300   9.013 -0.5087  0.2145 -0.8398
 2374TP3     H118941   0.194   3.269   9.104 -2.9957  1.8921 -0.4361
 2374TP3     H218942   0.175   3.226   8.960  1.7382 -1.0796 -0.3757
 2375TP3      O18943   0.929   4.116   8.167  0.0393 -0.0691  0.1248
 2375TP3     H118944   0.915   4.092   8.075  0.9919  0.2069 -0.1028
 2375TP3     H218945   0.872   4.057   8.216  0.6888 -1.3049 -0.5504
 2376TP3      O18946   0.997   3.479   7.938  0.4440  0.6796  0.0417
 2376TP3     H118947   0.928   3.543   7.924 -0.4988 -0.3552 -0.2337
 2376TP3     H218948   1.069   3.508   7.882  0.1130  1.5836  0.0681
 2377TP3      O18949   0.113   5.190   8.282 -0.0572  0.0185  0.1936
 2377TP3     H118950   0.136   5.209   8.191  1.8527  1.8478  0.9697
 2377TP3     H218951   0.030   5.235   8.296  0.3797  0.9995 -0.2652
 2378TP3      O18952   2.533   1.475   2.285 -0.0101  0.1348  0.1382
 2378TP3     H118953   2.627   1.496   2.288  0.2482 -0.9824  0.2235
 2378TP3     H218954   2.521   1.409   2.354 -0.8649  0.2826  0.1436
 2379TP3      O18955   3.016   2.574   8.519 -0.2537  0.0447 -0.5325
 2379TP3     H118956   3.007   2.482   8.491  0.8238 -0.4593  0.6757
 2379TP3     H218957   2.967   2.579   8.601  1.6742 -0.1198  0.6975
 2380TP3      O18958   4.950   2.222  10.126 -0.5766 -0.2370 -0.6035
 2380TP3     H118959   4.979   2.313  10.134 -0.2168 -0.3266 -0.8528
 2380TP3     H218960   4.861   2.228  10.092 -0.5808  0.0210 -0.5555
 2381TP3      O18961   4.176   2.216  10.053 -0.4533 -0.2303  0.0844
 2381TP3     H118962   4.108   2.151  10.071 -1.2655  0.7125  0.5375
 2381TP3     H218963   4.187   2.214   9.957 -0.7222 -0.7855  0.0668
 2382TP3      O18964   4.755   3.412   1.050  0.0926 -0.1135  0.1998
 2382TP3     H118965   4.797   3.498   1.054 -0.6206  0.1959  1.2303
 2382TP3     H218966   4.821   3.351   1.082  0.3535  0.1337  0.1357
 2383TP3      O18967   3.088   4.197  10.164  0.0502  0.2585  0.2996
 2383TP3     H118968   3.013   4.139  10.177 -0.0219  0.2938  0.0548
 2383TP3     H218969   3.057   4.282  10.194  0.5881 -0.0790  1.9305
 2384TP3      O18970   0.933   4.472   7.400 -0.3073 -0.1501 -0.0944
 2384TP3     H118971   0.959   4.380   7.399 -1.4727 -0.5243  0.8940
 2384TP3     H218972   0.948   4.503   7.311 -0.0893 -1.3572 -0.4869
 2385TP3      O18973   3.998   3.140   2.955  0.4249  0.6702 -0.4067
 2385TP3     H118974   4.082   3.170   2.991  0.5955  0.7696 -0.8826
 2385TP3     H218975   3.980   3.200   2.882 -0.0238  0.6023 -0.3559
 2386TP3      O18976   2.942   2.555   8.976  0.2029 -0.2097 -0.2390
 2386TP3     H118977   2.998   2.486   9.010 -0.4958  0.9820  4.0127
 2386TP3     H218978   2.993   2.636   8.987 -0.6894  0.4245 -0.5756
 2387TP3      O18979   3.877   4.651   8.273 -0.0250  0.6308  0.5127
 2387TP3     H118980   3.919   4.648   8.187 -3.5577 -0.4175 -1.3497
 2387TP3     H218981   3.787   4.678   8.255 -0.8465  0.6499  3.9634
 2388TP3      O18982   1.978   2.098   0.724 -0.1474 -0.0338 -0.0249
 2388TP3     H118983   1.912   2.034   0.700  0.7468 -2.1384  2.5763
 2388TP3     H218984   2.061   2.059   0.698  0.4261 -0.0728  1.7197
 2389TP3      O18985   2.528   4.507   9.653 -0.1746  0.2668  0.2648
 2389TP3     H118986   2.537   4.537   9.563  0.2775  0.7962  0.4792
 2389TP3     H218987   2.485   4.580   9.698  1.0365  0.6518  0.8195
 2390TP3      O18988   2.695   2.488   9.476  0.0173  0.6262 -0.6712
 2390TP3     H118989   2.673   2.573   9.516 -2.2306  0.0239 -0.4529
 2390TP3     H218990   2.690   2.504   9.382 -1.1741  0.6128 -0.6334
 2391TP3      O18991   3.341   2.869   0.154 -0.6746  0.6142  0.5298
 2391TP3     H118992   3.388   2.935   0.102  0.9390 -1.5893 -1.0192
 2391TP3     H218993   3.279   2.830   0.093  0.5097 -1.2946  0.4524
 2392TP3      O18994   4.882   2.062   2.466  0.1439  0.0812 -0.7753
 2392TP3     H118995   4.941   2.024   2.401 -0.0354 -0.9703 -0.3534
 2392TP3     H218996   4.937   2.122   2.517  0.2992  0.8491 -1.8307
 2393TP3      O18997   4.402   4.600   9.252 -0.2258 -0.4353 -0.5281
 2393TP3     H118998   4.396   4.644   9.336 -0.3878 -0.8015 -0.3475
 2393TP3     H218999   4.424   4.670   9.190 -0.2588 -0.1413 -0.2097
 2394TP3      O19000   1.851   4.642   2.835  0.3783 -0.1360  0.4329
 2394TP3     H119001   1.779   4.586   2.862  0.0087 -0.3009 -0.8117
 2394TP3     H219002   1.901   4.589   2.773  1.3833  0.1005  1.0101
 2395TP3      O19003   4.585   4.712   2.710 -0.1288 -0.3627  0.0983
 2395TP3     H119004   4.594   4.655   2.787 -3.5485  0.4138  1.2646
 2395TP3     H219005   4.661   4.771   2.715  0.4476 -1.1747  2.1207
 2396TP3      O19006   1.427   3.577   7.539  0.6335  0.2800 -0.2084
 2396TP3     H119007   1.518   3.555   7.560  1.0719  2.1681  0.0431
 2396TP3     H219008   1.427   3.590   7.444  0.5127 -0.1752 -0.2730
 2397TP3      O19009   2.826   4.826   8.034  0.0405  0.6874  0.4535
 2397TP3     H119010   2.753   4.861   8.085 -0.8579  1.1966 -1.0808
 2397TP3     H219011   2.793   4.743   8.000  0.7397  0.2002  0.9414
 2398TP3      O19012   0.745   1.923   9.743  0.2415  0.3556  0.6160
 2398TP3     H119013   0.715   1.841   9.782 -0.2933  0.3913  0.2929
 2398TP3     H219014   0.728   1.913   9.650  1.4626  0.2922  0.3877
 2399TP3      O19015   2.097   0.219   0.933  0.0857 -0.1166 -0.4182
 2399TP3     H119016   2.092   0.314   0.942 -0.9485 -0.1458 -0.6161
 2399TP3     H219017   2.130   0.189   1.018 -0.6791  0.3348  0.0428
 2400TP3      O19018   1.691   1.650   0.336  0.2199 -0.5204 -0.4660
 2400TP3     H119019   1.737   1.572   0.367  0.6668 -0.4008 -0.8003
 2400TP3     H219020   1.748   1.685   0.267  0.3892  0.4993  0.1645
 2401TP3      O19021   0.664   4.898   9.215  0.8524  0.2299 -0.6734
 2401TP3     H119022   0.719   4.961   9.168  1.7197  0.2219  0.2964
 2401TP3     H219023   0.724   4.826   9.237  0.4280  0.1507  0.2666
 2402TP3      O19024   1.391   3.768   8.555 -0.3430 -0.1233  0.2122
 2402TP3     H119025   1.366   3.820   8.631  2.1133 -1.3003  1.9830
 2402TP3     H219026   1.311   3.760   8.503 -1.6491  2.2988  1.6971
 2403TP3      O19027   4.798   3.252   1.641 -0.2727  0.3112  0.4600
 2403TP3     H119028   4.720   3.222   1.688 -1.1224 -3.4303 -2.8547
 2403TP3     H219029   4.765   3.316   1.579  0.0067  1.4168  1.4076
 2404TP3      O19030   3.586   3.147   3.246 -0.6619 -0.4175 -0.2886
 2404TP3     H119031   3.606   3.171   3.336  0.3868  0.4254 -0.7364
 2404TP3     H219032   3.552   3.058   3.253 -0.6285 -0.3553  0.9400
 2405TP3      O19033   1.984   3.415   9.251 -0.2606  0.0430  0.1366
 2405TP3     H119034   2.070   3.379   9.274  0.2053  1.9751  1.6984
 2405TP3     H219035   1.950   3.355   9.185  2.6343 -0.3571 -1.1537
 2406TP3      O19036   3.216   3.456   1.041 -0.4323 -0.4197  0.3787
 2406TP3     H119037   3.232   3.364   1.062  0.5285 -0.3344  0.0869
 2406TP3     H219038   3.216   3.459   0.945  0.3355 -0.0094  0.3759
 2407TP3      O19039   1.482   3.116   9.014  0.0399 -0.4797 -0.4758
 2407TP3     H119040   1.560   3.104   9.069 -0.3921 -0.4037  0.1575
 2407TP3     H219041   1.507   3.186   8.953  0.3227 -0.1713 -0.0124
 2408TP3      O19042   4.878   0.888   3.323 -0.4991  0.1634 -0.0859
 2408TP3     H119043   4.798   0.892   3.270 -0.2399 -1.2359 -0.6393
 2408TP3     H219044   4.860   0.820   3.388 -0.7637  1.7733  1.6072
 2409TP3      O19045   2.039   4.861   9.460  0.3639 -0.8645 -0.2892
 2409TP3     H119046   2.067   4.770   9.457 -0.1736 -1.0200 -0.6645
 2409TP3     H219047   1.989   4.874   9.380  1.2635  0.0420 -0.7164
 2410TP3      O19048   1.079   2.524   0.099  0.3244  0.1350  0.3243
 2410TP3     H119049   0.985   2.522   0.084  0.2429  2.0801  0.2651
 2410TP3     H219050   1.106   2.432   0.099 -1.5042 -0.4361  0.0042
 2411TP3      O19051   4.818   3.117   0.234  0.0319  0.0042 -0.1147
 2411TP3     H119052   4.824   3.116   0.329  2.1478 -3.1487 -0.1537
 2411TP3     H219053   4.784   3.030   0.210 -1.2040  0.9706 -2.2729
 2412TP3      O19054   4.387   4.510   0.450 -0.3883  0.4004  0.6073
 2412TP3     H119055   4.314   4.480   0.505 -0.7397  0.1891  0.0399
 2412TP3     H219056   4.357   4.595   0.417 -1.5451 -0.8099 -1.7041
 2413TP3      O19057   1.681   3.893   0.727 -0.4337 -0.0583 -0.2518
 2413TP3     H119058   1.630   3.839   0.787  0.0200 -0.0341  0.1575
 2413TP3     H219059   1.765   3.849   0.720  0.1472  0.8801  0.5281
 2414TP3      O19060   2.628   0.157   8.628  0.5098  0.0920  0.0503
 2414TP3     H119061   2.599   0.151   8.719  0.3735  2.5221  0.2303
 2414TP3     H219062   2.719   0.127   8.630 -0.0734 -1.8039  0.5684
 2415TP3      O19063   4.392   3.625   1.587 -0.0071  0.0231  0.0573
 2415TP3     H119064   4.359   3.662   1.505  1.5309  0.8609 -0.2084
 2415TP3     H219065   4.453   3.691   1.620  1.1520 -1.3262  0.6922
 2416TP3      O19066   3.932   3.602   2.743 -0.3868 -0.5475  0.2518
 2416TP3     H119067   3.922   3.695   2.762  2.0554  0.1709 -1.3890
 2416TP3     H219068   3.860   3.582   2.683  0.4647  1.0377 -1.4274
 2417TP3      O19069   3.531   1.119   8.192  0.0090 -0.2784  0.4298
 2417TP3     H119070   3.479   1.161   8.123  0.8471 -1.3614 -0.9057
 2417TP3     H219071   3.616   1.102   8.151 -0.3308 -3.4218  0.7894
 2418TP3      O19072   0.900   4.945   3.010  0.0364 -0.3659  0.4088
 2418TP3     H119073   0.865   5.030   3.036 -0.2333 -0.3750  0.0760
 2418TP3     H219074   0.886   4.940   2.916 -0.6567 -1.0975  0.5364
 2419TP3      O19075   0.314   3.568   6.920 -0.2447  0.5841 -0.2147
 2419TP3     H119076   0.279   3.565   6.831 -3.9021 -1.0907  1.0763
 2419TP3     H219077   0.373   3.493   6.924  0.3158  0.9354 -1.3096
 2420TP3      O19078   3.998   0.324   0.494 -0.3113  0.1499 -0.2043
 2420TP3     H119079   4.002   0.361   0.405  2.0593 -0.8481 -0.5591
 2420TP3     H219080   4.084   0.341   0.531 -1.0938  0.0716  1.7605
 2421TP3      O19081   4.706   4.760   0.689  0.2746  0.0874 -0.0900
 2421TP3     H119082   4.775   4.811   0.646  1.0319 -0.6374  0.2658
 2421TP3     H219083   4.702   4.678   0.639  0.7571 -0.5185  0.8461
 2422TP3      O19084   3.395   1.086   8.427  0.2441  0.9501 -0.3436
 2422TP3     H119085   3.462   1.054   8.487 -0.0506  3.3731  1.4447
 2422TP3     H219086   3.441   1.099   8.344  1.1519 -0.5564 -0.1106
 2423TP3      O19087   1.643   1.447   8.451  0.0349 -0.2727 -0.1669
 2423TP3     H119088   1.569   1.506   8.459 -0.1703 -0.4323 -0.8405
 2423TP3     H219089   1.701   1.471   8.523  0.5502  1.5742 -1.1402
 2424TP3      O19090   3.359   1.004   1.091 -0.3173  0.0597 -0.1931
 2424TP3     H119091   3.274   1.047   1.095 -0.8400 -0.9405 -0.1689
 2424TP3     H219092   3.380   0.984   1.183 -1.2614 -1.9322 -0.3616
 2425TP3      O19093   2.205   1.301   2.324 -0.8074 -0.6084  0.0511
 2425TP3     H119094   2.285   1.318   2.374  0.0473 -1.9546 -0.7902
 2425TP3     H219095   2.139   1.358   2.364  0.5554  0.5163  0.7884
 2426TP3      O19096   2.835   3.779   8.854 -0.7791 -0.3055  0.2688
 2426TP3     H119097   2.865   3.690   8.870 -0.2797 -0.5454 -1.6709
 2426TP3     H219098   2.916   3.829   8.840 -1.0283  0.5953  1.8557
 2427TP3      O19099   0.012   2.852   3.874 -0.0878  0.4270  0.1707
 2427TP3     H119100   0.099   2.878   3.903  0.2592 -0.2686 -0.2333
 2427TP3     H219101  -0.003   2.902   3.793 -0.0386  0.4969  0.2053
 2428TP3      O19102   4.091   1.079   7.274  0.0152  0.8504  0.3404
 2428TP3     H119103   4.061   1.163   7.239  0.3801  0.3007 -1.3812
 2428TP3     H219104   4.014   1.022   7.268  0.9842 -0.3639 -3.4377
 2429TP3      O19105   0.823   1.676   8.388 -1.0953  0.7448  0.2516
 2429TP3     H119106   0.777   1.692   8.470 -0.2109  0.2172  0.8673
 2429TP3     H219107   0.901   1.732   8.393 -1.6266  1.6174 -0.7655
 2430TP3      O19108   4.760   0.494   8.843 -0.1710 -0.1311 -0.5000
 2430TP3     H119109   4.734   0.586   8.851  0.0176 -0.0739 -0.5365
 2430TP3     H219110   4.821   0.493   8.769  0.5157 -0.1380  0.0546
 2431TP3      O19111   2.182   1.981   0.613 -0.1768  0.5205  0.0668
 2431TP3     H119112   2.143   1.895   0.629 -0.8949  1.0530  1.2593
 2431TP3     H219113   2.264   1.961   0.567 -1.9774 -0.6178 -2.9403
 2432TP3      O19114   4.979   3.548   9.936  0.0972  0.2682 -0.0538
 2432TP3     H119115   4.923   3.495   9.992 -0.4297  0.9448  0.0660
 2432TP3     H219116   4.935   3.549   9.851  0.8861 -0.7455 -0.5013
 2433TP3      O19117   4.263   4.173   7.766 -0.2907  0.8364 -0.0193
 2433TP3     H119118   4.218   4.089   7.778 -0.0991  0.9643  1.9608
 2433TP3     H219119   4.355   4.152   7.776  0.1049  0.7795 -2.8986
 2434TP3      O19120   0.364   2.734  10.290 -0.1517  0.1578 -0.0582
 2434TP3     H119121   0.415   2.655  10.309  1.0994  0.8017 -0.6498
 2434TP3     H219122   0.379   2.791  10.365 -1.0181 -0.1232  0.3475
 2435TP3      O19123   1.684   3.502   7.650 -0.2400 -0.3292  0.4321
 2435TP3     H119124   1.743   3.488   7.724  1.5097 -0.1415 -0.8750
 2435TP3     H219125   1.736   3.551   7.587 -1.6321 -0.6385 -1.0159
 2436TP3      O19126   0.563   0.390  10.411 -0.1724 -0.0225  0.4909
 2436TP3     H119127   0.550   0.485  10.415 -0.9440 -0.0298 -1.2759
 2436TP3     H219128   0.545   0.360  10.501 -1.5898  1.2953  0.6829
 2437TP3      O19129   1.795   1.598   7.805  0.0798 -0.0988 -0.4917
 2437TP3     H119130   1.783   1.689   7.781  1.3798  0.5357  1.0934
 2437TP3     H219131   1.890   1.586   7.808  0.1901  0.0091  4.2049
 2438TP3      O19132   2.784   3.974   0.357  0.4276  0.6149 -0.2264
 2438TP3     H119133   2.759   3.883   0.373 -0.5713  1.0176  0.5711
 2438TP3     H219134   2.841   3.970   0.280 -0.7420 -0.5372 -1.0646
 2439TP3      O19135   2.776   1.730   0.377 -0.1666 -0.0466 -0.1242
 2439TP3     H119136   2.822   1.800   0.423  1.4575 -1.4332  0.4512
 2439TP3     H219137   2.844   1.666   0.357 -1.3050 -0.7167 -2.1221
 2440TP3      O19138   3.584   0.428   3.494  0.4828 -0.2604  0.7812
 2440TP3     H119139   3.564   0.470   3.411  0.7558  0.7776  1.2144
 2440TP3     H219140   3.556   0.338   3.483 -2.0842  0.4852  0.5073
 2441TP3      O19141   3.019   3.346   8.632 -0.2382 -0.0800  0.1837
 2441TP3     H119142   3.034   3.438   8.650 -1.9252  0.3081 -0.2651
 2441TP3     H219143   2.985   3.344   8.542 -0.1429 -1.1472  0.1572
 2442TP3      O19144   5.011   0.589   8.444  0.1566  0.0777  0.1858
 2442TP3     H119145   5.075   0.642   8.491  1.5236 -1.2326 -0.1378
 2442TP3     H219146   4.927   0.632   8.462  0.9248  0.9912  1.8371
 2443TP3      O19147   2.351   0.750   7.207 -0.0196 -0.1903 -0.0134
 2443TP3     H119148   2.268   0.737   7.162 -0.4196  0.3901  0.5391
 2443TP3     H219149   2.410   0.782   7.138 -0.2889 -0.4559 -0.3740
 2444TP3      O19150   3.648   2.115   9.130  0.7584 -0.4570  0.4427
 2444TP3     H119151   3.689   2.165   9.059  0.5118  1.0859  1.3408
 2444TP3     H219152   3.715   2.112   9.199 -0.2292  1.2684  1.5517
 2445TP3      O19153   4.822   1.684   7.093 -0.0845 -0.3652 -0.4036
 2445TP3     H119154   4.796   1.767   7.133 -0.2183 -0.3976 -0.4216
 2445TP3     H219155   4.892   1.651   7.149  0.5531  0.1694 -0.8729
 2446TP3      O19156   1.464   0.122   9.174 -0.2786 -0.2510 -0.1194
 2446TP3     H119157   1.381   0.076   9.159 -0.9570  1.6572 -2.9550
 2446TP3     H219158   1.528   0.074   9.121 -0.1696 -0.1345 -0.0945
 2447TP3      O19159   2.193   0.018   6.983  0.3068  0.2503 -0.0707
 2447TP3     H119160   2.269   0.061   7.022  1.0593  0.4985 -1.7284
 2447TP3     H219161   2.189   0.052   6.894 -0.7374 -1.0377 -0.5529
 2448TP3      O19162   2.129   4.484   9.211 -0.1578 -0.2740  0.6762
 2448TP3     H119163   2.072   4.407   9.215  2.0322 -1.9936  0.7577
 2448TP3     H219164   2.218   4.448   9.210  0.9532  2.1656 -1.5532
 2449TP3      O19165   4.691   1.454   1.821  0.1750 -0.1284  0.0766
 2449TP3     H119166   4.642   1.536   1.817  0.2291 -0.1052 -0.1234
 2449TP3     H219167   4.742   1.460   1.902  0.1003 -0.0116  0.1154
 2450TP3      O19168   1.560   0.875   0.286  0.5720  0.0173 -0.3372
 2450TP3     H119169   1.582   0.911   0.372  1.7890  1.0144 -1.0434
 2450TP3     H219170   1.630   0.905   0.228 -0.4358 -0.2922 -1.7787
 2451TP3      O19171   1.294   0.705   1.686  0.0862  0.5455 -0.1302
 2451TP3     H119172   1.288   0.682   1.778  1.0844  4.4718  1.1059
 2451TP3     H219173   1.203   0.705   1.655 -0.2206 -1.1671  0.6996
 2452TP3      O19174   0.442   4.483   0.460 -0.0127 -0.6118  0.6042
 2452TP3     H119175   0.436   4.428   0.382  1.3136  0.0168  0.0253
 2452TP3     H219176   0.387   4.559   0.441  0.1020 -0.5848  0.3785
 2453TP3      O19177   2.882   3.204   7.205 -0.3315  0.0620  0.0520
 2453TP3     H119178   2.827   3.170   7.135 -0.6814  2.3262 -0.8500
 2453TP3     H219179   2.970   3.173   7.184  0.0757  2.8188 -2.9968
 2454TP3      O19180   4.722   2.553  10.003 -0.5720 -0.0000 -0.4706
 2454TP3     H119181   4.730   2.495   9.928  0.6024  0.5700 -0.8211
 2454TP3     H219182   4.810   2.591  10.013 -0.8829  0.4510  0.7613
 2455TP3      O19183   2.066   4.548   2.615 -0.2073  0.5000  0.1693
 2455TP3     H119184   1.999   4.485   2.588 -1.0562  1.8416 -0.9927
 2455TP3     H219185   2.145   4.520   2.568 -0.2363 -0.4271  0.6571
 2456TP3      O19186   2.578   2.567  10.195 -0.1649  0.4063  0.1275
 2456TP3     H119187   2.520   2.616  10.254  1.0859  0.8933  0.9965
 2456TP3     H219188   2.632   2.634  10.153  0.6548 -0.1194  0.3198
 2457TP3      O19189   2.636   1.543   7.510  0.2543 -0.1263 -0.0040
 2457TP3     H119190   2.558   1.587   7.544  0.5158 -0.4203  1.0157
 2457TP3     H219191   2.602   1.478   7.449 -0.2364  0.4228 -0.3210
 2458TP3      O19192   1.199   5.038   3.014  0.4482  0.0087  0.1712
 2458TP3     H119193   1.243   5.006   3.092  0.0291 -2.2912 -0.4664
 2458TP3     H219194   1.107   5.015   3.026  0.2375  0.3753 -0.6326
 2459TP3      O19195   0.860   2.691   1.773  0.2508  0.0832  0.1758
 2459TP3     H119196   0.904   2.703   1.857  0.8109 -2.1511  0.2830
 2459TP3     H219197   0.903   2.752   1.714  1.8503 -0.3184  0.8631
 2460TP3      O19198   2.421   0.361   2.678  0.2608  0.0314  0.0671
 2460TP3     H119199   2.363   0.298   2.720 -0.3002 -0.0852 -0.8507
 2460TP3     H219200   2.500   0.360   2.732 -0.5108  0.0717  1.2342
 2461TP3      O19201   0.577   3.824  10.194  0.0731  0.3856 -0.1025
 2461TP3     H119202   0.496   3.791  10.231  1.2181  0.4190  2.7528
 2461TP3     H219203   0.559   3.916  10.175 -0.8121  0.1564 -0.4128
 2462TP3      O19204   1.236   2.499   9.786  0.2373  0.3714 -0.1653
 2462TP3     H119205   1.157   2.549   9.767 -0.4253 -0.2442  0.8655
 2462TP3     H219206   1.208   2.407   9.778  0.8370  0.1501  0.2508
 2463TP3      O19207   1.099   3.480   3.330  0.6446 -0.0369 -0.5550
 2463TP3     H119208   1.081   3.562   3.376 -0.2533 -0.6431  0.2016
 2463TP3     H219209   1.178   3.446   3.372  0.0227 -0.4182  0.3386
 2464TP3      O19210   1.237   0.537  10.217  0.3929  0.0745 -0.2263
 2464TP3     H119211   1.170   0.551  10.284 -0.2534  0.1640 -0.8690
 2464TP3     H219212   1.281   0.622  10.209 -1.1785  0.8204 -1.6362
 2465TP3      O19213   0.532   0.008   2.798 -0.1206  0.3216  0.3416
 2465TP3     H119214   0.490   0.093   2.781 -0.0133  0.0116 -1.6432
 2465TP3     H219215   0.461  -0.056   2.787  0.2722 -0.0017 -0.3721
 2466TP3      O19216   2.785   4.972   9.483 -0.1168  0.0142 -0.2888
 2466TP3     H119217   2.847   4.971   9.556 -0.7063 -0.5133  0.2170
 2466TP3     H219218   2.755   5.063   9.479 -1.2428 -0.2512  1.1596
 2467TP3      O19219   3.716   2.512   7.070 -0.2371  0.6793 -0.6529
 2467TP3     H119220   3.680   2.471   7.148 -0.7092  1.0068 -0.6917
 2467TP3     H219221   3.770   2.444   7.029  0.8977  0.8375  0.5162
 2468TP3      O19222   1.058   3.255   3.566  0.0027  0.4119  0.0166
 2468TP3     H119223   1.055   3.200   3.488 -1.3544 -1.5295  1.3402
 2468TP3     H219224   1.149   3.254   3.593  0.3901  0.6873 -1.2277
 2469TP3      O19225   0.789   0.237   0.771  0.1317  0.7070 -0.3278
 2469TP3     H119226   0.769   0.295   0.845  1.6988  0.1089  0.6044
 2469TP3     H219227   0.708   0.188   0.756 -0.4379  1.3775  0.4809
 2470TP3      O19228   4.041   3.986   2.153 -0.3271 -0.3151  0.4319
 2470TP3     H119229   4.131   3.953   2.157 -0.8814 -2.2150 -1.0251
 2470TP3     H219230   4.045   4.058   2.090 -0.1044 -1.7071 -1.2318
 2471TP3      O19231   3.476   1.995   2.674  0.3411 -0.1245  0.0081
 2471TP3     H119232   3.421   1.961   2.744  0.3012 -0.2272 -0.0738
 2471TP3     H219233   3.563   1.958   2.691  1.1342  2.3540  1.8618
 2472TP3      O19234   4.178   4.113   3.271 -0.1263 -0.5904  0.7658
 2472TP3     H119235   4.146   4.203   3.278  0.7667 -0.2002  0.0497
 2472TP3     H219236   4.156   4.073   3.355 -1.2896  0.0404  0.7868
 2473TP3      O19237   0.036   3.615   8.374 -0.0709 -0.2147 -0.4560
 2473TP3     H119238  -0.053   3.586   8.393  0.6622 -1.5922  1.1383
 2473TP3     H219239   0.059   3.573   8.292 -0.7314 -0.1847 -0.6593
 2474TP3      O19240   0.343   0.166   8.553 -0.0395 -0.4170  0.0631
 2474TP3     H119241   0.287   0.149   8.629 -1.6511  2.3069 -0.3548
 2474TP3     H219242   0.404   0.234   8.583 -0.7724  0.7775 -1.0466
 2475TP3      O19243   4.796   0.115   0.847 -0.5931  0.1324  0.1426
 2475TP3     H119244   4.791   0.059   0.924  3.0536  0.0309  0.4695
 2475TP3     H219245   4.719   0.091   0.795 -1.4205 -2.1083  2.2112
 2476TP3      O19246   0.327   2.412  10.418 -0.0724  0.3916  0.0098
 2476TP3     H119247   0.330   2.418  10.322 -0.1390  2.4174  0.0924
 2476TP3     H219248   0.396   2.350  10.440  0.1340  0.1046 -1.3346
 2477TP3      O19249   4.218   3.201   7.997 -0.6015  0.8363  0.4934
 2477TP3     H119250   4.275   3.186   8.071 -0.7412 -2.4599  0.1029
 2477TP3     H219251   4.129   3.193   8.033 -0.8360  3.3998  0.6415
 2478TP3      O19252   4.336   2.587   8.104  0.0194 -0.1568 -0.3943
 2478TP3     H119253   4.389   2.652   8.151  0.1340 -1.0687  0.7780
 2478TP3     H219254   4.247   2.603   8.135  0.4343 -2.5995  2.4802
 2479TP3      O19255   0.776   1.677   3.016  0.5685  0.0704  0.0107
 2479TP3     H119256   0.844   1.740   3.039  0.9478 -0.7358  1.1548
 2479TP3     H219257   0.729   1.661   3.097  1.1076 -1.8547 -0.0070
 2480TP3      O19258   2.273   2.110   3.410  0.0743  0.2932 -0.1322
 2480TP3     H119259   2.208   2.070   3.353 -0.2337 -0.1237  0.4881
 2480TP3     H219260   2.287   2.198   3.375 -0.0783  0.0344 -0.8570
 2481TP3      O19261   0.608   0.853   2.349  0.3446  0.3037  0.2562
 2481TP3     H119262   0.622   0.944   2.376  2.6166 -0.1269  0.7084
 2481TP3     H219263   0.616   0.855   2.253  0.6714  0.5359  0.2877
 2482TP3      O19264   3.484   3.251   9.942 -0.1431 -0.1911  0.1790
 2482TP3     H119265   3.415   3.233  10.005 -0.6828 -0.4243 -0.4670
 2482TP3     H219266   3.481   3.178   9.881  0.0595  0.2607 -0.3834
 2483TP3      O19267   4.326   3.746   9.903 -0.7276 -0.0006 -0.4547
 2483TP3     H119268   4.322   3.673   9.965 -2.3087  1.5641  1.4168
 2483TP3     H219269   4.244   3.741   9.854 -0.8226  0.5086 -0.3491
 2484TP3      O19270   3.022   5.024   2.779  0.8877  0.3895  0.2309
 2484TP3     H119271   2.988   4.999   2.693 -0.1026  0.5906  0.5442
 2484TP3     H219272   3.020   4.943   2.830  1.6340  0.2345  0.0194
 2485TP3      O19273   3.250   2.019   8.624 -0.2277  0.1496 -0.2343
 2485TP3     H119274   3.340   2.051   8.630 -0.2241  0.3834 -1.2993
 2485TP3     H219275   3.207   2.052   8.703  0.4501  0.6022 -0.0497
 2486TP3      O19276   2.799   5.121   1.561  0.4558 -0.3309  0.0900
 2486TP3     H119277   2.718   5.124   1.510  1.2966  0.6352 -1.2674
 2486TP3     H219278   2.841   5.039   1.533  0.9686  0.2529 -0.8886
 2487TP3      O19279   1.740   4.881   2.922  0.4266 -0.1759 -0.2492
 2487TP3     H119280   1.656   4.840   2.940  0.4878 -0.7404 -1.2084
 2487TP3     H219281   1.800   4.808   2.908  0.3803  0.1787 -2.7075
 2488TP3      O19282   2.909   1.563   7.478 -0.3141  0.0131 -0.3293
 2488TP3     H119283   2.815   1.559   7.460 -0.6346 -0.5990  1.3368
 2488TP3     H219284   2.931   1.656   7.473 -0.9750  0.1479 -0.8461
 2489TP3      O19285   5.127   5.041   2.375  0.1347  0.6143  0.1353
 2489TP3     H119286   5.152   4.994   2.454 -0.1529 -0.6260 -0.4881
 2489TP3     H219287   5.124   5.133   2.402 -0.0561  0.2075  1.5843
 2490TP3      O19288   4.764   2.738   2.267 -0.2281  0.1845 -0.3890
 2490TP3     H119289   4.850   2.757   2.230 -0.8318  0.9990 -1.4281
 2490TP3     H219290   4.719   2.823   2.269 -0.4835  0.0646  1.6116
 2491TP3      O19291   0.438   0.252   2.724 -0.1129  0.9153 -0.0981
 2491TP3     H119292   0.370   0.229   2.660 -1.1103 -0.8841  1.4954
 2491TP3     H219293   0.414   0.340   2.754 -1.1313  0.7281 -0.3204
 2492TP3      O19294   2.475   0.913   1.453  0.3994  0.0786  1.1370
 2492TP3     H119295   2.381   0.893   1.456  0.6233 -1.2555  0.2350
 2492TP3     H219296   2.479   1.008   1.441 -0.8171  0.2200  1.6745
 2493TP3      O19297   4.310   2.946   2.053  0.7109 -0.1271  0.7736
 2493TP3     H119298   4.350   3.029   2.025 -0.8639  0.7137  0.8912
 2493TP3     H219299   4.262   2.916   1.976 -0.5066  0.2205  1.3750
 2494TP3      O19300   0.300   4.594   2.155  0.3015 -0.4318 -0.2043
 2494TP3     H119301   0.351   4.517   2.129 -0.4641  0.0361 -3.6492
 2494TP3     H219302   0.216   4.559   2.183 -0.3345 -0.9705 -2.5209
 2495TP3      O19303   2.589   4.216  10.015  0.1686  0.3011  0.1126
 2495TP3     H119304   2.660   4.180  10.069  0.4347 -1.2994 -1.1818
 2495TP3     H219305   2.620   4.302   9.989  0.6966  0.4785  1.2682
 2496TP3      O19306   1.504   2.313  10.259 -0.0887 -0.0840  0.2497
 2496TP3     H119307   1.524   2.220  10.269 -0.7096 -0.4703 -1.6496
 2496TP3     H219308   1.555   2.356  10.328 -0.3660 -1.8696  1.6426
 2497TP3      O19309   2.553   0.705   1.246  0.1085 -0.0175 -0.9413
 2497TP3     H119310   2.502   0.729   1.168 -1.6949 -2.0335 -0.4910
 2497TP3     H219311   2.536   0.776   1.308 -2.5140 -0.7469 -0.7026
 2498TP3      O19312   0.545   3.315   0.404 -0.9815  0.0736  0.1028
 2498TP3     H119313   0.487   3.310   0.480  1.7268 -0.5658  2.2732
 2498TP3     H219314   0.561   3.225   0.379 -0.3071  0.1919  0.0751
 2499TP3      O19315   3.508   4.149   8.782  0.4302  0.1995  0.0625
 2499TP3     H119316   3.590   4.109   8.810  0.2297  0.3045  0.8252
 2499TP3     H219317   3.513   4.239   8.814  0.0560  0.2321  0.0351
 2500TP3      O19318   3.967   3.976   8.519  0.3257  0.0497  0.0557
 2500TP3     H119319   3.975   3.893   8.566  1.6462  0.4430  0.5654
 2500TP3     H219320   3.932   3.952   8.433 -1.8262 -0.7292  1.0661
 2501TP3      O19321   3.856   4.822   0.496  0.3217  0.2397  0.6004
 2501TP3     H119322   3.936   4.787   0.457  0.5924  1.2791  0.1813
 2501TP3     H219323   3.877   4.832   0.589  0.5551  0.1602  0.5567
 2502TP3      O19324   2.144   3.744   3.146  0.7664  0.5331 -0.5064
 2502TP3     H119325   2.165   3.791   3.227 -1.1567  0.4387  0.0968
 2502TP3     H219326   2.123   3.656   3.174  0.9710  0.2397 -1.2431
 2503TP3      O19327   1.581   2.222   8.800 -0.0766  0.0817  0.5207
 2503TP3     H119328   1.489   2.217   8.777  0.1787  0.0298 -0.5614
 2503TP3     H219329   1.587   2.299   8.857 -0.8006  0.0303  0.6706
 2504TP3      O19330   2.834   3.148   3.120  0.0695 -0.2526  0.0012
 2504TP3     H119331   2.906   3.111   3.068 -0.5068  0.0482 -1.0414
 2504TP3     H219332   2.755   3.117   3.077 -0.4510 -0.7182  1.2359
 2505TP3      O19333   2.347   3.369   3.425 -0.2358  0.2853 -0.2033
 2505TP3     H119334   2.402   3.307   3.474  1.0771  0.7294 -1.0653
 2505TP3     H219335   2.259   3.353   3.458  0.1533 -1.6172  0.0330
 2506TP3      O19336   1.337   0.233   1.360 -0.2877 -0.2679  0.0931
 2506TP3     H119337   1.363   0.142   1.375 -0.8942 -0.7505 -1.4750
 2506TP3     H219338   1.389   0.284   1.421  1.4389 -1.5167 -0.2599
 2507TP3      O19339   4.466   0.744   2.585  0.1702 -0.4678 -0.8942
 2507TP3     H119340   4.491   0.720   2.675 -1.5687 -0.3647 -0.3581
 2507TP3     H219341   4.378   0.708   2.574 -0.2327  0.7976 -2.0540
 2508TP3      O19342   4.900   0.088   7.584 -0.0087 -0.1069  0.3436
 2508TP3     H119343   4.976   0.069   7.638 -0.8669 -1.6525  1.0758
 2508TP3     H219344   4.929   0.157   7.525  1.6815 -0.0537  1.1818
 2509TP3      O19345   1.982   0.741   0.937  0.8218 -0.1726  0.2188
 2509TP3     H119346   1.966   0.829   0.902  1.4865  0.5765  1.6966
 2509TP3     H219347   1.899   0.715   0.977  0.9848  0.3613  0.9311
 2510TP3      O19348   4.279   1.495   1.752 -0.0920  0.3036  0.6107
 2510TP3     H119349   4.271   1.409   1.710 -1.7780  1.0233 -0.6629
 2510TP3     H219350   4.290   1.475   1.845  1.3122 -1.2961  0.1641
 2511TP3      O19351   5.098   0.144   0.295 -0.0055  0.3783 -0.1734
 2511TP3     H119352   5.040   0.210   0.255  0.6587  0.7727 -0.5045
 2511TP3     H219353   5.086   0.067   0.239 -0.1019  0.5029 -0.3300
 2512TP3      O19354   4.796   2.891   1.909  0.5759  0.6761  0.2097
 2512TP3     H119355   4.797   2.965   1.970  0.5487  0.5449  0.3679
 2512TP3     H219356   4.726   2.835   1.941  0.3357  0.7736 -0.1382
 2513TP3      O19357   0.479   3.187   9.951 -0.2501  0.6463 -0.1174
 2513TP3     H119358   0.397   3.204   9.904  0.0327 -2.7130 -2.1379
 2513TP3     H219359   0.544   3.175   9.883  0.9604 -1.0283  1.2360
 2514TP3      O19360   1.673   4.877   9.371 -0.5630 -0.3539  0.3069
 2514TP3     H119361   1.716   4.825   9.302  0.6288  1.7240 -0.6329
 2514TP3     H219362   1.676   4.822   9.449 -1.9518 -2.8047 -1.2448
 2515TP3      O19363   0.106   1.916   0.823  0.0309  0.3898  0.4431
 2515TP3     H119364   0.075   2.006   0.810  0.5208  0.7555  1.6259
 2515TP3     H219365   0.044   1.878   0.886  0.5663  0.3353  0.9467
 2516TP3      O19366   3.901   4.038   1.008 -0.6382 -0.6158 -0.6898
 2516TP3     H119367   3.889   4.129   0.981 -0.8282 -0.3441  0.2816
 2516TP3     H219368   3.812   4.006   1.026 -0.3867  0.0817  2.3109
 2517TP3      O19369   5.182   2.852   6.766 -0.3147 -0.0468 -0.0361
 2517TP3     H119370   5.176   2.767   6.723  0.8946 -0.8447  1.3049
 2517TP3     H219371   5.124   2.845   6.842 -1.3258  0.8511 -0.6980
 2518TP3      O19372   0.038   4.331   3.173 -0.2912  0.1636 -0.2224
 2518TP3     H119373   0.012   4.344   3.081 -0.4155  0.5817 -0.1304
 2518TP3     H219374   0.035   4.419   3.211 -1.5224 -0.1697  0.5105
 2519TP3      O19375   5.166   3.954   0.133  0.5051 -0.1134  0.0443
 2519TP3     H119376   5.132   3.865   0.130  1.2561 -0.4253  0.4881
 2519TP3     H219377   5.089   4.009   0.118  0.1289 -0.8384 -0.7923
 2520TP3      O19378   2.894   0.543   7.278 -0.3161 -0.1844  0.1266
 2520TP3     H119379   2.887   0.630   7.238 -0.1539  0.2800  1.0826
 2520TP3     H219380   2.805   0.523   7.307 -0.3838 -0.4053 -0.2350
 2521TP3      O19381   4.300   0.898   9.761  0.2374 -0.4427 -0.3639
 2521TP3     H119382   4.327   0.989   9.760 -0.1860 -0.2759  0.8944
 2521TP3     H219383   4.301   0.871   9.669  0.4149  0.8011 -0.7436
 2522TP3      O19384   4.908   1.905   0.362 -0.1871  0.3164  0.1337
 2522TP3     H119385   4.839   1.923   0.298  0.9243 -1.0977 -1.5665
 2522TP3     H219386   4.864   1.862   0.434 -0.9488 -2.0521 -1.6237
 2523TP3      O19387   0.895   4.623   0.830  0.0068  0.1436  0.2062
 2523TP3     H119388   0.820   4.563   0.832  0.5279 -0.6682 -1.9240
 2523TP3     H219389   0.878   4.685   0.902 -1.1504 -1.8046  1.7100
 2524TP3      O19390   5.179   3.718  10.203 -0.0825 -0.1703  0.8310
 2524TP3     H119391   5.256   3.666  10.227  1.6882  1.3403 -1.1061
 2524TP3     H219392   5.198   3.805  10.239  0.7136  1.0444 -2.2010
 2525TP3      O19393   4.897   0.163   0.542 -0.6735  0.1239  0.3329
 2525TP3     H119394   4.932   0.103   0.606  0.3976  0.0946 -0.2598
 2525TP3     H219395   4.900   0.115   0.459  0.3831  1.0388 -0.1818
 2526TP3      O19396   2.348   3.568  10.175 -0.7749 -0.4998 -0.0060
 2526TP3     H119397   2.297   3.600  10.101 -0.5036 -0.7962 -0.3206
 2526TP3     H219398   2.307   3.485  10.198 -1.3767 -0.0227  0.7070
 2527TP3      O19399   1.879   0.658   9.619  0.1855 -0.3087 -0.3096
 2527TP3     H119400   1.885   0.727   9.684 -0.3974 -0.1681 -0.4044
 2527TP3     H219401   1.786   0.652   9.598  0.4459  0.2556 -1.7758
 2528TP3      O19402   2.113   3.882   9.886 -0.3300 -0.0960 -0.2147
 2528TP3     H119403   2.023   3.886   9.852 -0.2073  1.5830 -0.4162
 2528TP3     H219404   2.166   3.924   9.818  0.3071  0.8491  0.8417
 2529TP3      O19405   2.853   1.243   1.762 -0.4943 -0.1189  0.1733
 2529TP3     H119406   2.885   1.273   1.847  0.2129  0.2000 -0.1986
 2529TP3     H219407   2.876   1.314   1.702 -1.3817 -0.1471 -0.2098
 2530TP3      O19408   1.439   4.535   1.904 -0.6148  0.2559 -0.2214
 2530TP3     H119409   1.472   4.486   1.829  1.5777 -0.0081  0.8175
 2530TP3     H219410   1.511   4.594   1.927 -1.2041  0.2948  1.6770
 2531TP3      O19411   3.539   5.085   9.161  0.0444  0.4486  0.0992
 2531TP3     H119412   3.623   5.045   9.139  0.0552  0.5373 -0.0205
 2531TP3     H219413   3.507   5.120   9.078 -0.8821 -1.0140 -0.1852
 2532TP3      O19414   2.964   4.479   8.412 -0.2778  0.5627  0.3156
 2532TP3     H119415   2.970   4.550   8.347  0.7343  1.0753  0.9466
 2532TP3     H219416   2.921   4.519   8.487 -3.4086 -0.5777 -0.7149
 2533TP3      O19417   1.547   4.392   8.233 -0.2810 -0.2992 -0.2761
 2533TP3     H119418   1.600   4.451   8.180 -1.6879  1.2706 -0.0360
 2533TP3     H219419   1.475   4.447   8.265 -0.5529 -1.6566  1.6580
 2534TP3      O19420   4.942   4.346   2.035  0.8165 -0.1203  0.4491
 2534TP3     H119421   5.024   4.379   1.999  1.1738 -0.5984  0.8206
 2534TP3     H219422   4.944   4.252   2.017  0.1108 -0.0542 -0.0061
 2535TP3      O19423   3.827   2.381   9.737 -0.3575  0.1604 -0.5236
 2535TP3     H119424   3.835   2.401   9.830  2.7802  0.0343 -0.6620
 2535TP3     H219425   3.915   2.394   9.702 -0.7330 -2.6582 -2.9038
 2536TP3      O19426   3.832   4.320   8.765 -0.1599  0.4767  0.0416
 2536TP3     H119427   3.822   4.333   8.859 -0.1766 -0.1035  0.1224
 2536TP3     H219428   3.895   4.387   8.738  0.2153  0.3288  0.5438
 2537TP3      O19429   4.286   0.824   9.044  0.6491  0.4701 -0.9696
 2537TP3     H119430   4.284   0.833   9.139  0.5645  0.4771 -0.9715
 2537TP3     H219431   4.210   0.875   9.014  0.6418  0.4201 -1.0364
 2538TP3      O19432   1.877   4.650   1.940  0.7132 -0.0711  0.0919
 2538TP3     H119433   1.794   4.629   1.982 -0.6192 -1.7256 -3.0442
 2538TP3     H219434   1.939   4.586   1.976 -0.6875 -2.2899 -1.2050
 2539TP3      O19435   4.724   4.581   2.953 -0.4979 -0.0700 -0.0953
 2539TP3     H119436   4.775   4.535   2.888 -0.0948  0.2880 -0.0388
 2539TP3     H219437   4.751   4.543   3.037  0.2225  0.6150 -0.0048
 2540TP3      O19438   1.757   5.118   9.968  0.2163 -0.1382 -0.8778
 2540TP3     H119439   1.851   5.119   9.986 -0.3241  1.9154  2.8945
 2540TP3     H219440   1.725   5.037  10.008  0.3076 -0.6959 -1.9091
 2541TP3      O19441   4.079   0.126   1.210 -0.4225 -0.6795  0.9501
 2541TP3     H119442   3.987   0.107   1.230 -0.1869 -2.5835  0.4605
 2541TP3     H219443   4.088   0.103   1.117  0.4292  0.0246  0.8455
 2542TP3      O19444   1.839   1.145  10.376  0.2574 -0.2807  0.0866
 2542TP3     H119445   1.905   1.214  10.388  1.0516 -1.0880  0.5329
 2542TP3     H219446   1.805   1.129  10.464 -0.2942 -0.0974 -0.0960
 2543TP3      O19447   3.700   4.997   1.026  0.2588 -0.1026  0.1765
 2543TP3     H119448   3.794   4.979   1.029  0.4118  0.7265  0.5712
 2543TP3     H219449   3.669   4.949   0.949  0.9222 -0.7355  0.2914
 2544TP3      O19450   5.212   4.137   9.585  0.0337  0.2843  0.4356
 2544TP3     H119451   5.265   4.198   9.534  0.4325 -0.2002  0.2659
 2544TP3     H219452   5.134   4.188   9.610  0.6862  1.0665  0.9012
 2545TP3      O19453   1.653   2.357   1.213  0.0758 -0.5699  0.1127
 2545TP3     H119454   1.598   2.325   1.141  1.9914  0.8718 -2.1542
 2545TP3     H219455   1.641   2.452   1.211  0.1854 -0.5102  1.7260
 2546TP3      O19456   2.172   4.743   2.258  0.1162  0.3386  0.1415
 2546TP3     H119457   2.247   4.799   2.279  0.7019 -1.0129  1.8166
 2546TP3     H219458   2.202   4.655   2.279 -1.5808 -0.3478 -0.2271
 2547TP3      O19459   3.375   4.884   7.637 -0.0325  0.1892  0.0464
 2547TP3     H119460   3.378   4.809   7.578 -0.1947  1.2304 -1.3179
 2547TP3     H219461   3.294   4.871   7.688  0.3094 -0.9139  0.3342
 2548TP3      O19462   3.045   2.507   0.916  0.3632  0.0994  0.1471
 2548TP3     H119463   3.011   2.436   0.862  1.2125 -0.9214  0.9029
 2548TP3     H219464   3.013   2.587   0.875 -0.9018 -0.7312 -0.5342
 2549TP3      O19465   2.460   3.419   0.829 -0.9732  0.0146  0.0263
 2549TP3     H119466   2.459   3.497   0.884  1.1963  0.2142 -0.1575
 2549TP3     H219467   2.408   3.443   0.752 -2.2242  0.4570  0.9737
 2550TP3      O19468   3.486   4.930  10.243  0.2936 -0.0983  0.0833
 2550TP3     H119469   3.577   4.957  10.237  0.3053 -0.0806  0.3652
 2550TP3     H219470   3.469   4.920  10.336 -0.0964  0.2598  0.0537
 2551TP3      O19471   0.615   2.637   0.939 -0.0176 -0.3242 -0.6520
 2551TP3     H119472   0.632   2.731   0.932  2.5861 -0.7295 -0.3981
 2551TP3     H219473   0.547   2.631   1.007  2.0941  1.2296  1.7837
 2552TP3      O19474   0.115   1.886   8.039 -0.3248 -0.2335  0.5274
 2552TP3     H119475   0.038   1.879   8.095 -0.4318 -0.1554  0.3902
 2552TP3     H219476   0.149   1.974   8.057 -0.6824  0.0076  0.0556
 2553TP3      O19477   0.035   0.163  10.180  0.5719  0.2593  0.3741
 2553TP3     H119478   0.102   0.226  10.153  3.5153 -2.4224  0.8585
 2553TP3     H219479  -0.002   0.200  10.260  1.0318  2.0767 -0.2027
 2554TP3      O19480   3.788   0.654   2.633 -0.6549 -0.4960 -0.4507
 2554TP3     H119481   3.867   0.614   2.669 -0.2916 -0.3474 -1.0831
 2554TP3     H219482   3.777   0.614   2.547 -0.3835  0.6181 -1.0188
 2555TP3      O19483   0.993   2.439   9.391  0.0025 -0.5216  0.0474
 2555TP3     H119484   0.925   2.502   9.365  0.3888 -0.7295 -1.5489
 2555TP3     H219485   0.964   2.407   9.476 -2.2810 -1.1232 -0.8920
 2556TP3      O19486   2.482   0.211   7.820 -0.1596 -0.5907 -0.2092
 2556TP3     H119487   2.566   0.254   7.839 -0.9013 -0.4552  3.5616
 2556TP3     H219488   2.416   0.276   7.844 -1.3243 -1.9314  0.3598
 2557TP3      O19489   2.167   4.926   9.977 -0.4695  0.3469  0.3545
 2557TP3     H119490   2.159   4.936   9.882  0.7394 -0.4436  0.1579
 2557TP3     H219491   2.099   4.984  10.013 -2.1477 -0.6543 -1.0203
 2558TP3      O19492   4.127   2.044   0.394 -0.1554 -0.5716 -0.5175
 2558TP3     H119493   4.153   2.017   0.482 -0.7285 -1.3865 -0.5839
 2558TP3     H219494   4.049   1.992   0.376 -2.0264  1.9207 -0.2158
 2559TP3      O19495   0.824   2.066   1.594  0.1187  0.3779 -0.1010
 2559TP3     H119496   0.823   2.141   1.534 -2.7117 -0.8759 -1.8382
 2559TP3     H219497   0.875   2.000   1.547 -2.2883 -0.6834 -1.4103
 2560TP3      O19498   5.152   2.186   3.634 -0.2795  0.1061  0.2568
 2560TP3     H119499   5.233   2.148   3.600  0.1534  1.8000 -0.6969
 2560TP3     H219500   5.090   2.181   3.560 -0.9399 -0.7925  0.8452
 2561TP3      O19501   4.548   3.268   2.234  0.1128  0.1318  0.7074
 2561TP3     H119502   4.567   3.279   2.141  0.3099  0.5585  0.7933
 2561TP3     H219503   4.479   3.332   2.251  0.4041  0.3879  0.9514
 2562TP3      O19504   3.964   2.239   2.573 -0.3679 -0.7988  0.0875
 2562TP3     H119505   3.939   2.148   2.590  1.7963 -1.1995  1.6015
 2562TP3     H219506   4.002   2.269   2.656  0.7521  0.8623 -0.9656
 2563TP3      O19507   3.472   0.957   9.987  0.1014  0.1284 -1.3657
 2563TP3     H119508   3.426   0.932   9.907 -1.0276  1.3051 -1.1098
 2563TP3     H219509   3.417   0.923  10.058 -0.0510  0.9929 -1.0629
 2564TP3      O19510   2.804   3.645   2.586 -0.4834 -0.4803  0.0169
 2564TP3     H119511   2.733   3.652   2.650 -1.4035 -0.6088 -0.9537
 2564TP3     H219512   2.788   3.717   2.525 -0.3467 -1.0826 -0.7476
 2565TP3      O19513   5.080   3.258   9.355  0.3893  0.1797 -0.4197
 2565TP3     H119514   5.058   3.302   9.273 -0.3122  0.9164  0.1438
 2565TP3     H219515   5.000   3.214   9.382 -0.8659  3.4886  2.0273
 2566TP3      O19516   1.602   2.337   7.864 -0.0794  0.1130 -0.1886
 2566TP3     H119517   1.694   2.320   7.842 -0.5598 -0.5267 -1.8431
 2566TP3     H219518   1.576   2.408   7.805 -0.8471 -0.2141 -0.2547
 2567TP3      O19519   4.605   4.049   9.659 -0.7790 -0.2693 -0.2058
 2567TP3     H119520   4.700   4.048   9.661 -0.7788  0.0293  0.0230
 2567TP3     H219521   4.582   4.042   9.566 -0.5489 -1.0482 -0.2090
 2568TP3      O19522   1.911   1.066   9.005 -0.0688 -0.2770  0.3572
 2568TP3     H119523   1.983   1.033   9.058  1.3992  2.2287  0.1252
 2568TP3     H219524   1.913   1.161   9.019 -4.1185 -0.1358  1.2403
 2569TP3      O19525   1.113   3.216   2.923 -0.4731 -0.2121 -0.1930
 2569TP3     H119526   1.203   3.229   2.951 -0.4349  0.9478 -0.7992
 2569TP3     H219527   1.088   3.132   2.961 -0.3200  1.0483  2.9906
 2570TP3      O19528   1.046   1.384   8.703 -0.1340  0.5446 -0.2938
 2570TP3     H119529   1.122   1.438   8.722 -0.3772  0.6783  0.3433
 2570TP3     H219530   1.021   1.406   8.614  0.5298  0.5498 -0.4814
 2571TP3      O19531   4.790   2.274   2.768 -0.1346  0.4656 -0.1288
 2571TP3     H119532   4.848   2.201   2.790  0.9714  1.0723 -0.9490
 2571TP3     H219533   4.841   2.352   2.788 -0.6192  1.0135 -0.9643
 2572TP3      O19534   0.782   1.651   7.557 -0.0569  0.0608 -0.3469
 2572TP3     H119535   0.848   1.679   7.493  0.3196  1.6995  0.6792
 2572TP3     H219536   0.825   1.581   7.606  0.1864 -0.2279 -0.9646
 2573TP3      O19537   3.272   4.129   0.079 -0.3413  0.3252  0.4644
 2573TP3     H119538   3.225   4.064   0.026 -0.8584 -0.6672  2.0798
 2573TP3     H219539   3.339   4.164   0.020 -0.8339 -0.7923 -0.8082
 2574TP3      O19540   1.921   3.222   9.081 -0.1046 -0.5451  0.4229
 2574TP3     H119541   1.936   3.131   9.108  2.4325 -0.1659  0.5478
 2574TP3     H219542   1.826   3.230   9.075 -0.3866 -3.6801 -1.2763
 2575TP3      O19543   0.023   1.189   1.677 -0.6464 -0.3366 -0.1573
 2575TP3     H119544   0.113   1.158   1.684 -0.8841 -1.9209 -2.7805
 2575TP3     H219545   0.032   1.282   1.654  0.2967 -0.4203 -0.1679
 2576TP3      O19546   4.444   4.043   2.880 -0.2380  0.0468 -0.3764
 2576TP3     H119547   4.533   4.066   2.855  0.5783 -1.9582  0.5395
 2576TP3     H219548   4.442   4.054   2.976 -0.9959  0.0754 -0.3831
 2577TP3      O19549   3.806   4.808   2.447  0.2169 -0.1295 -0.1568
 2577TP3     H119550   3.883   4.770   2.405  0.7918  0.0341  0.7166
 2577TP3     H219551   3.816   4.902   2.434  0.7223 -0.0289  0.8469
 2578TP3      O19552   2.539   2.872   0.881 -0.1612 -0.3963 -0.0284
 2578TP3     H119553   2.542   2.945   0.943 -0.3855 -0.3490 -0.0717
 2578TP3     H219554   2.626   2.869   0.842 -0.1734 -0.1066 -0.0777
 2579TP3      O19555   1.232   4.349   1.297 -0.3356  0.1467 -0.5301
 2579TP3     H119556   1.225   4.418   1.363 -1.4536 -0.9236  0.5217
 2579TP3     H219557   1.165   4.285   1.322 -0.0037 -0.8422 -2.0514
 2580TP3      O19558   0.882   4.071   2.444  0.2414 -0.0944  0.6558
 2580TP3     H119559   0.910   4.162   2.456  1.6901 -0.6233  1.6185
 2580TP3     H219560   0.919   4.045   2.360  1.0673 -0.2147  1.0483
 2581TP3      O19561   3.131   1.957   3.231 -0.1284  0.1289 -0.3230
 2581TP3     H119562   3.134   2.050   3.210  1.0483  0.2730  0.3980
 2581TP3     H219563   3.222   1.929   3.227 -0.5601 -1.1995 -1.3846
 2582TP3      O19564   3.513   4.917   2.771  0.2151 -0.0230  0.4805
 2582TP3     H119565   3.588   4.866   2.800 -0.6736 -0.2291  2.6171
 2582TP3     H219566   3.457   4.854   2.726  0.7664 -0.1107 -0.0997
 2583TP3      O19567   3.163   2.764  10.416  0.2799 -0.2326 -0.3516
 2583TP3     H119568   3.123   2.773  10.330  0.3525 -0.2817 -0.3911
 2583TP3     H219569   3.126   2.683  10.452 -0.7809  0.4916  0.2258
 2584TP3      O19570   1.011   2.640   7.623 -0.3489 -0.5860  0.3702
 2584TP3     H119571   1.029   2.690   7.702  0.0598  0.3495 -0.3023
 2584TP3     H219572   1.097   2.610   7.593 -0.4331 -0.3738 -0.0897
 2585TP3      O19573   3.914   1.566   9.231 -0.1748 -0.0712 -1.1315
 2585TP3     H119574   3.981   1.629   9.204  0.6773 -1.6286 -2.9267
 2585TP3     H219575   3.959   1.507   9.291 -0.8106  0.6085  0.0648
 2586TP3      O19576   1.374   4.443   2.863  0.5516 -0.5618  0.0485
 2586TP3     H119577   1.283   4.470   2.869  0.8065  1.6019 -3.2400
 2586TP3     H219578   1.382   4.371   2.925 -3.7877 -1.9358 -0.6556
 2587TP3      O19579   3.868   4.747   2.698  0.7526 -0.3742 -0.7029
 2587TP3     H119580   3.896   4.828   2.739  1.0081 -0.6517 -0.3253
 2587TP3     H219581   3.851   4.771   2.607 -1.0511  0.5404 -0.1771
 2588TP3      O19582   4.209   3.081   8.464  0.0428  0.1088  0.1607
 2588TP3     H119583   4.221   3.049   8.553  1.4148  1.4609  0.4871
 2588TP3     H219584   4.119   3.057   8.442 -0.2864 -0.3131  1.8743
 2589TP3      O19585   5.150   2.706   9.530  0.1856  0.5502 -0.1022
 2589TP3     H119586   5.095   2.779   9.500  1.3754  1.0729 -1.1380
 2589TP3     H219587   5.220   2.701   9.464 -0.1051 -1.8365 -0.3231
 2590TP3      O19588   3.780   3.178   8.269 -0.2056  0.2770 -0.4517
 2590TP3     H119589   3.728   3.098   8.269 -1.3276  0.9654 -1.6577
 2590TP3     H219590   3.720   3.247   8.298  0.5141  0.8251 -0.2122
 2591TP3      O19591   1.991   2.369   0.848  0.2038  0.2549 -0.2810
 2591TP3     H119592   2.086   2.384   0.844  0.1457  0.4822 -0.9516
 2591TP3     H219593   1.981   2.278   0.820  0.1492  0.5443 -1.2445
 2592TP3      O19594   1.821   5.155   2.307  0.0819  0.1684 -0.2813
 2592TP3     H119595   1.760   5.129   2.239  0.4904 -0.3257 -0.4658
 2592TP3     H219596   1.905   5.119   2.280  1.3724  3.9604 -1.9924
 2593TP3      O19597   1.295   5.199   0.258 -0.3384  0.0071 -0.3380
 2593TP3     H119598   1.313   5.137   0.187  0.4457 -0.9923  0.7013
 2593TP3     H219599   1.238   5.265   0.218 -0.3162 -0.7956 -1.7604
 2594TP3      O19600   4.537   4.255   8.028 -0.3701  0.7102 -0.2356
 2594TP3     H119601   4.630   4.237   8.042 -0.4771  0.5269  0.2812
 2594TP3     H219602   4.516   4.213   7.945 -0.0251  0.6214 -0.2781
 2595TP3      O19603   0.871   3.163   0.606 -0.3741 -1.2495 -0.0913
 2595TP3     H119604   0.876   3.176   0.511  0.6391 -2.9262 -0.3246
 2595TP3     H219605   0.861   3.251   0.642  0.5579 -0.4365 -1.6819
 2596TP3      O19606   4.810   2.793   3.030 -0.3341  0.0616 -0.4672
 2596TP3     H119607   4.784   2.730   2.963 -0.8937 -0.5322  0.2864
 2596TP3     H219608   4.757   2.870   3.013 -2.0455 -0.8345  0.5375
 2597TP3      O19609   3.752   2.636   1.235 -0.1575  0.2215 -0.6599
 2597TP3     H119610   3.713   2.617   1.321 -0.3283 -1.2939 -1.0612
 2597TP3     H219611   3.686   2.610   1.172  0.3721  0.3713 -1.2889
 2598TP3      O19612   2.466   0.099   1.062 -0.2928  0.4777  0.1775
 2598TP3     H119613   2.494   0.187   1.040 -1.7775  0.1533 -4.0667
 2598TP3     H219614   2.541   0.044   1.040 -0.7051  0.4474 -1.3179
 2599TP3      O19615   1.419   2.129   3.534  0.0507 -0.4658  0.0483
 2599TP3     H119616   1.479   2.165   3.468 -1.6762  3.0330  0.1184
 2599TP3     H219617   1.336   2.117   3.487 -0.9801  1.3001  1.2957
 2600TP3      O19618   4.934   0.073   7.279  0.5038 -0.4401  0.0160
 2600TP3     H119619   4.940   0.161   7.318  0.2337 -0.4048 -0.0219
 2600TP3     H219620   4.842   0.048   7.290  0.4188 -0.4215 -0.6115
 2601TP3      O19621   2.414   3.139   0.663  0.0463  0.1696 -0.2130
 2601TP3     H119622   2.495   3.134   0.613 -0.5180  0.7513 -1.2138
 2601TP3     H219623   2.368   3.215   0.627 -2.1380 -1.6467 -1.5008
 2602TP3      O19624   1.980   2.204   9.866  0.1444 -0.7611  0.2537
 2602TP3     H119625   1.984   2.180   9.959 -0.4231  1.7182  0.9925
 2602TP3     H219626   1.888   2.230   9.853  0.3799 -0.4484 -0.8234
 2603TP3      O19627   1.943   0.032   7.530  0.3436  0.4719 -0.3630
 2603TP3     H119628   1.965   0.043   7.622  1.5093 -0.3227 -0.5258
 2603TP3     H219629   1.867  -0.026   7.530 -0.6006  1.6721  0.1331
 2604TP3      O19630   0.832   0.597   7.858 -0.2825  0.0236 -0.2728
 2604TP3     H119631   0.775   0.609   7.934 -1.7592 -3.1774 -0.7384
 2604TP3     H219632   0.919   0.621   7.890 -1.0652  0.0727  2.0232
 2605TP3      O19633   0.729   5.222   9.538 -0.1430 -0.7374  0.4444
 2605TP3     H119634   0.797   5.181   9.591  0.4067 -0.1705  0.1825
 2605TP3     H219635   0.753   5.200   9.447  0.6297  0.8372  0.2402
 2606TP3      O19636   2.781   3.242   1.423  0.5103  0.2893  0.9172
 2606TP3     H119637   2.727   3.319   1.442 -1.0754 -0.6630  0.3781
 2606TP3     H219638   2.768   3.225   1.330  1.4747 -0.1862  0.8555
 2607TP3      O19639   0.463   2.355   7.985  0.3136 -0.0793  0.1198
 2607TP3     H119640   0.459   2.446   8.014  3.5899  0.0495  0.5618
 2607TP3     H219641   0.478   2.361   7.890 -0.3476 -0.2035  0.0037
 2608TP3      O19642   4.682   2.731   9.589 -0.1668  0.4887 -0.6054
 2608TP3     H119643   4.604   2.680   9.610  1.0496 -1.5520 -0.7500
 2608TP3     H219644   4.728   2.679   9.523  0.5301  2.4419 -1.7450
 2609TP3      O19645   1.846   4.783   6.560  0.2389  0.1176  0.2665
 2609TP3     H119646   1.793   4.862   6.548  0.6712  1.2652  4.4850
 2609TP3     H219647   1.783   4.715   6.584  0.2267  0.2692  0.6710
 2610TP3      O19648   0.145   3.453   8.173 -0.2440  0.7712 -0.0041
 2610TP3     H119649   0.155   3.362   8.200 -1.2574  0.3583 -0.9566
 2610TP3     H219650   0.154   3.451   8.077  0.2212  1.7573  0.0020
 2611TP3      O19651   2.777   2.828   0.337 -0.3917 -0.2094 -0.5155
 2611TP3     H119652   2.869   2.829   0.311  0.2460 -0.4117  1.5043
 2611TP3     H219653   2.743   2.913   0.308  1.1864  1.0330  0.9953
 2612TP3      O19654   1.374   3.421   9.209  0.3872 -0.1595  0.2305
 2612TP3     H119655   1.331   3.506   9.221  1.0790  0.5550 -1.9804
 2612TP3     H219656   1.323   3.362   9.264 -1.1110  1.3713  0.5979
 2613TP3      O19657   4.663   0.629   0.849 -0.1211 -0.1094  0.1440
 2613TP3     H119658   4.687   0.677   0.928 -0.9637 -1.1689  1.0676
 2613TP3     H219659   4.713   0.548   0.854 -0.5382 -0.3890 -0.1771
 2614TP3      O19660   0.191   5.097   1.497 -0.0660 -0.0722 -0.1379
 2614TP3     H119661   0.172   5.190   1.508  0.7256  0.0893 -0.0261
 2614TP3     H219662   0.273   5.083   1.546 -0.8883 -1.1250  1.0035
 2615TP3      O19663   4.626   4.178   3.241 -0.3588  0.0090 -0.5734
 2615TP3     H119664   4.682   4.106   3.269  1.1499  1.1226 -0.5888
 2615TP3     H219665   4.557   4.136   3.190  0.9015 -1.3501 -1.2288
 2616TP3      O19666   3.226   3.400   9.776 -0.2374  0.2048  0.5926
 2616TP3     H119667   3.291   3.437   9.835 -1.2663  1.3088  1.0792
 2616TP3     H219668   3.189   3.326   9.824 -0.2018  0.3293  0.8108
 2617TP3      O19669   5.016   0.253   1.252 -0.0237 -0.0401 -0.0168
 2617TP3     H119670   5.105   0.227   1.232 -0.2014 -1.2924  0.6803
 2617TP3     H219671   4.961   0.184   1.215 -0.5325 -0.6432  1.7491
 2618TP3      O19672   4.311   4.061   8.385  0.2320  0.0475 -0.2020
 2618TP3     H119673   4.278   3.980   8.425  0.7527 -0.3250 -0.5059
 2618TP3     H219674   4.298   4.048   8.291  0.0190  0.4542 -0.2255
 2619TP3      O19675   3.042   1.988   9.961  0.2232  0.2645  0.0402
 2619TP3     H119676   3.103   1.976  10.035 -1.2980 -1.3049  1.1161
 2619TP3     H219677   3.062   1.916   9.902  2.4851  2.3738 -1.9643
 2620TP3      O19678   3.166   0.685   2.001 -0.3205  0.1200 -0.1356
 2620TP3     H119679   3.092   0.670   2.059  0.1115 -0.2347  0.3380
 2620TP3     H219680   3.150   0.628   1.926 -0.0530 -0.6927  0.4069
 2621TP3      O19681   1.014   2.156   8.060 -0.3952  0.6528  0.2501
 2621TP3     H119682   0.944   2.219   8.074 -0.5775  0.7252 -0.9126
 2621TP3     H219683   1.057   2.148   8.145 -1.2544  1.2757  0.7504
 2622TP3      O19684   2.302   2.230   2.141  0.2884  0.1328 -0.1871
 2622TP3     H119685   2.350   2.183   2.074 -1.4801 -0.3209 -1.1780
 2622TP3     H219686   2.231   2.171   2.167 -0.2491  1.1008  0.6302
 2623TP3      O19687   5.143   3.216   9.074 -0.0461 -0.0486  0.2657
 2623TP3     H119688   5.105   3.133   9.105  1.4039 -0.2218  1.7536
 2623TP3     H219689   5.165   3.199   8.983 -1.9555 -0.4779 -0.1616
 2624TP3      O19690   4.989   2.820   2.134  0.2970 -0.3903 -0.0899
 2624TP3     H119691   5.081   2.843   2.146  0.8209 -2.1808 -0.3600
 2624TP3     H219692   4.979   2.807   2.040 -0.4440  0.5184 -0.1553
 2625TP3      O19693   0.436   2.367   6.489  0.3746  0.1891  0.0096
 2625TP3     H119694   0.342   2.387   6.496 -0.0853 -1.6903 -0.4775
 2625TP3     H219695   0.443   2.308   6.415  2.0834  0.9549 -0.4834
 2626TP3      O19696   2.362   1.907   9.674  0.2109 -0.1905 -0.0432
 2626TP3     H119697   2.344   1.931   9.584 -0.6322 -2.0840 -0.4294
 2626TP3     H219698   2.276   1.913   9.718 -0.1799 -2.8231 -0.2997
 2627TP3      O19699   0.818   0.805   2.096 -0.2634  0.0251  0.4740
 2627TP3     H119700   0.904   0.828   2.132  0.3614 -0.3901 -0.6883
 2627TP3     H219701   0.819   0.842   2.008 -0.0468 -2.5312 -0.6927
 2628TP3      O19702   0.113   5.117   0.805 -0.4162  0.0348 -0.4179
 2628TP3     H119703   0.064   5.155   0.878 -1.0966  1.0065 -1.3564
 2628TP3     H219704   0.204   5.120   0.834 -0.6890  0.1957  0.4690
 2629TP3      O19705   0.120   4.376   7.950 -0.2282  0.7271 -0.1606
 2629TP3     H119706   0.087   4.436   7.884  0.0693  1.2405  0.1461
 2629TP3     H219707   0.042   4.339   7.991 -0.4125  0.8031 -0.4435
 2630TP3      O19708   1.611   0.783   8.185  0.7452 -0.2306  0.4956
 2630TP3     H119709   1.614   0.875   8.160 -0.1593 -0.0666  0.9564
 2630TP3     H219710   1.609   0.735   8.102  0.2844  0.2047  0.2535
 2631TP3      O19711   4.697   2.291   1.456 -0.2960 -0.3395  0.3384
 2631TP3     H119712   4.722   2.206   1.492 -0.1868  0.0060  1.0938
 2631TP3     H219713   4.700   2.351   1.531 -1.2466  0.1560 -0.0030
 2632TP3      O19714   0.991   2.718   9.122  0.1729  0.0873 -0.3661
 2632TP3     H119715   0.988   2.766   9.205  0.1026 -0.2770 -0.1566
 2632TP3     H219716   0.955   2.779   9.057  1.9529  1.0733 -0.4869
 2633TP3      O19717   5.100   4.229   1.737  0.3558  0.4005  0.3533
 2633TP3     H119718   5.170   4.169   1.762  0.2982  0.3140  0.3049
 2633TP3     H219719   5.145   4.301   1.693  0.4542  0.5281  0.6566
 2634TP3      O19720   1.260   3.261   9.393  0.0543 -0.6367  0.1484
 2634TP3     H119721   1.243   3.290   9.483 -0.2722 -0.0829 -0.0880
 2634TP3     H219722   1.174   3.238   9.358 -0.2885  2.1105 -1.0249
 2635TP3      O19723   2.446   2.460   1.385  0.1454  0.4468 -1.2926
 2635TP3     H119724   2.464   2.516   1.309  2.4753  0.0628 -1.1026
 2635TP3     H219725   2.401   2.518   1.446 -0.6872  1.1018 -2.4892
 2636TP3      O19726   0.440   2.166   7.466 -0.2270 -0.2152 -0.7198
 2636TP3     H119727   0.363   2.188   7.413 -0.9211  1.0283  0.7151
 2636TP3     H219728   0.425   2.211   7.549  2.6546  1.0686 -0.7900
 2637TP3      O19729   0.403   2.637   9.471 -0.2980  0.3914 -0.0614
 2637TP3     H119730   0.463   2.636   9.397  0.6338  1.2188  0.6596
 2637TP3     H219731   0.384   2.544   9.488  1.4822  0.0598  0.2498
 2638TP3      O19732   2.220   5.073   7.327  0.2977 -0.1331 -0.0454
 2638TP3     H119733   2.138   5.094   7.284 -0.6746 -2.1761  0.7061
 2638TP3     H219734   2.286   5.079   7.258  0.0469  3.9945 -0.1848
 2639TP3      O19735   2.630   0.677   0.610  0.1212 -0.6197 -0.5801
 2639TP3     H119736   2.634   0.699   0.517  2.9079 -2.2704 -0.9809
 2639TP3     H219737   2.620   0.761   0.654 -1.9285  0.1319 -2.3373
 2640TP3      O19738   1.087   2.300   8.911 -0.1255  0.0631 -0.3823
 2640TP3     H119739   1.119   2.370   8.968  0.6337 -1.1770  0.7822
 2640TP3     H219740   1.060   2.231   8.972 -1.7467 -0.3192 -1.4668
 2641TP3      O19741   2.056   3.920   8.195  0.3217 -0.2019  0.4787
 2641TP3     H119742   2.011   3.996   8.159  0.0633 -0.9399 -0.8202
 2641TP3     H219743   2.005   3.896   8.272 -2.4787 -1.8539 -1.6799
 2642TP3      O19744   2.171   1.929   1.554  0.0060  0.2460  0.2250
 2642TP3     H119745   2.137   1.840   1.561  2.3674 -1.1817 -3.1794
 2642TP3     H219746   2.228   1.939   1.630 -0.3215 -1.1620  0.6841
 2643TP3      O19747   4.546   0.053   8.617  0.1699 -0.2173 -0.2749
 2643TP3     H119748   4.559   0.031   8.710 -1.1863 -0.4861 -0.1254
 2643TP3     H219749   4.536   0.148   8.617 -0.4404 -0.2799 -0.0623
 2644TP3      O19750   0.480   4.973  10.253  0.1462  0.6210  0.0935
 2644TP3     H119751   0.499   5.027  10.329  0.6976 -0.4328  0.7238
 2644TP3     H219752   0.425   4.903  10.286  0.2741  0.2298 -0.5016
 2645TP3      O19753   0.783   1.647  10.410  0.6261  0.7200 -0.0298
 2645TP3     H119754   0.688   1.634  10.409  0.5625  1.1814 -0.1813
 2645TP3     H219755   0.809   1.625  10.500  0.7121 -1.6217 -0.5529
 2646TP3      O19756   0.849   5.105   1.402 -0.1192  0.3969 -0.6764
 2646TP3     H119757   0.857   5.200   1.397 -0.8522  0.4167 -2.3201
 2646TP3     H219758   0.928   5.072   1.359 -0.4472  0.3077 -1.2285
 2647TP3      O19759   4.124   0.533   0.037  0.4648  0.0250 -0.0599
 2647TP3     H119760   4.189   0.583  -0.012  0.2466 -1.0335 -1.5125
 2647TP3     H219761   4.095   0.466  -0.025 -1.1211 -0.2751  0.9670
 2648TP3      O19762   2.360   0.694   3.774 -0.0884  0.1624  0.0225
 2648TP3     H119763   2.315   0.719   3.693  1.5344  0.2612 -0.9030
 2648TP3     H219764   2.393   0.605   3.756  0.9270  0.4732  0.2648
 2649TP3      O19765   4.059   4.635   9.831 -0.6755  0.0049  0.1362
 2649TP3     H119766   4.005   4.714   9.835  1.0731  1.3940 -1.4630
 2649TP3     H219767   3.999   4.565   9.806 -1.8337  1.3939 -1.1406
 2650TP3      O19768   1.618   2.638   2.841  0.1006  0.8716  0.3823
 2650TP3     H119769   1.602   2.647   2.747  0.9434 -1.4929 -0.0606
 2650TP3     H219770   1.685   2.703   2.860 -0.2838  1.5803 -0.5998
 2651TP3      O19771   0.129   1.886   9.804  0.0731  0.4657  0.3341
 2651TP3     H119772   0.182   1.964   9.819 -0.6334  1.2451 -0.9973
 2651TP3     H219773   0.050   1.919   9.761 -0.5720 -0.9013  0.4158
 2652TP3      O19774   0.996   0.653   9.703 -0.3081 -0.1852 -0.0999
 2652TP3     H119775   0.920   0.611   9.745 -0.4517 -1.3243 -1.4591
 2652TP3     H219776   1.063   0.652   9.771 -1.2542  0.1688  0.8886
 2653TP3      O19777   3.339   2.225   2.080 -0.1340  0.3190  0.0072
 2653TP3     H119778   3.365   2.299   2.135  0.3710  0.9883 -1.1041
 2653TP3     H219779   3.243   2.228   2.080 -0.1289  0.5577  0.5149
 2654TP3      O19780   3.642   3.975   1.042 -0.2718  0.0539  0.4469
 2654TP3     H119781   3.604   3.936   1.121 -0.0355 -0.2377  0.4174
 2654TP3     H219782   3.632   4.069   1.055 -1.1913 -0.0216  0.3496
 2655TP3      O19783   2.933   0.102   2.275  0.3955  0.3791  0.7294
 2655TP3     H119784   2.939   0.129   2.183  1.3091 -0.5861  0.4850
 2655TP3     H219785   2.863   0.037   2.277  2.5531 -2.1726 -0.0067
 2656TP3      O19786   4.212   3.210   0.505 -0.1192 -0.1982 -0.0207
 2656TP3     H119787   4.249   3.234   0.420  0.3999 -0.3612  0.1509
 2656TP3     H219788   4.230   3.285   0.561  1.6843 -1.0021  0.5691
 2657TP3      O19789   0.465   0.253   8.205  0.1558  0.0250 -0.2197
 2657TP3     H119790   0.548   0.293   8.229 -0.0360 -0.5254  1.4768
 2657TP3     H219791   0.421   0.236   8.288 -0.8478 -1.3964 -0.9905
 2658TP3      O19792   4.058   3.556   2.993  0.1009 -0.5274 -0.0266
 2658TP3     H119793   4.132   3.503   2.963  1.2864  1.8146 -1.4812
 2658TP3     H219794   4.008   3.575   2.914 -0.7973 -0.1601  0.6002
 2659TP3      O19795   5.054   1.589   3.632 -0.3675  0.5940  0.2880
 2659TP3     H119796   5.140   1.581   3.672  0.3824  1.0014 -1.1860
 2659TP3     H219797   5.040   1.505   3.589 -0.9901  0.3121  1.0070
 2660TP3      O19798   0.143   1.074   9.435 -0.1883  0.1859  0.2233
 2660TP3     H119799   0.187   0.996   9.403 -3.0081 -0.9348 -1.2417
 2660TP3     H219800   0.126   1.056   9.528 -1.7896 -1.5157 -0.3478
 2661TP3      O19801   0.214   4.108   3.180 -0.1178 -0.6716 -0.1078
 2661TP3     H119802   0.172   4.193   3.171 -0.8855 -1.1216 -0.8720
 2661TP3     H219803   0.150   4.046   3.146  0.5354 -1.5336  0.2016
 2662TP3      O19804   4.435   4.083   9.856 -0.4628 -0.1976  0.7980
 2662TP3     H119805   4.509   4.075   9.915 -0.7833 -1.4269  1.0742
 2662TP3     H219806   4.473   4.078   9.768 -0.1087  0.3733  0.9176
 2663TP3      O19807   2.361   0.525   1.551 -0.7830  0.2801  0.3286
 2663TP3     H119808   2.350   0.436   1.585  0.6969 -0.1071 -0.1383
 2663TP3     H219809   2.345   0.517   1.457  1.9315 -0.0816 -0.1821
 2664TP3      O19810   4.155   3.594   9.559  0.9024  0.8026  0.2111
 2664TP3     H119811   4.164   3.669   9.618 -0.1806 -0.3134  1.8789
 2664TP3     H219812   4.061   3.584   9.547  1.0634  0.1524 -0.6106
 2665TP3      O19813   3.143   2.685   8.113 -0.0338 -0.3798  0.3684
 2665TP3     H119814   3.239   2.683   8.108 -0.0528  0.5100 -0.8317
 2665TP3     H219815   3.116   2.727   8.032 -1.4134  0.1948  1.0924
 2666TP3      O19816   1.514   2.368   8.262 -0.3079 -0.5434  0.0333
 2666TP3     H119817   1.565   2.290   8.285 -0.8358 -1.3360 -1.3578
 2666TP3     H219818   1.459   2.383   8.339  0.2717 -1.1540  0.5789
 2667TP3      O19819   3.099   2.928   2.542 -0.0696 -0.0506  0.3672
 2667TP3     H119820   3.022   2.964   2.499 -0.3491 -1.2301 -0.1686
 2667TP3     H219821   3.068   2.906   2.630  0.1280  1.0812  0.7240
 2668TP3      O19822   2.312   3.506   9.154  0.0872  0.0871  0.1862
 2668TP3     H119823   2.275   3.426   9.192 -1.8159  1.0683  0.5381
 2668TP3     H219824   2.339   3.481   9.066  0.7404 -1.2295  0.7249
 2669TP3      O19825   0.103   3.990   1.598 -0.5192 -0.0969  0.2503
 2669TP3     H119826   0.057   3.906   1.595 -1.6620  0.5033  0.3425
 2669TP3     H219827   0.053   4.046   1.540  0.2874  0.5013  0.1280
 2670TP3      O19828   3.566   4.671   8.487  0.4433  0.0164  0.4407
 2670TP3     H119829   3.510   4.624   8.425  1.8102 -2.3635  0.8648
 2670TP3     H219830   3.539   4.639   8.573  1.5411 -0.2017  0.7262
 2671TP3      O19831   0.913   2.659   0.402 -0.2087 -0.4291  0.4894
 2671TP3     H119832   1.009   2.659   0.399 -0.2275 -0.7640 -0.6362
 2671TP3     H219833   0.891   2.592   0.466  0.3010 -0.5551  0.5400
 2672TP3      O19834   5.143   4.687   1.255 -0.2180  0.3565 -0.2224
 2672TP3     H119835   5.174   4.768   1.214 -1.4960  1.8362  1.5801
 2672TP3     H219836   5.178   4.689   1.343  1.8312 -2.3972 -0.8291
 2673TP3      O19837   1.633   4.715   2.058  0.0241  0.3519  0.4433
 2673TP3     H119838   1.555   4.690   2.107  1.4700  0.5496  3.0300
 2673TP3     H219839   1.639   4.810   2.069 -0.1150  0.5313 -0.9326
 2674TP3      O19840   0.781   1.401   7.699 -0.4678  0.0712  0.4680
 2674TP3     H119841   0.861   1.352   7.718 -0.8949 -0.0885  1.9812
 2674TP3     H219842   0.720   1.375   7.768 -0.3584  3.5777  2.1141
 2675TP3      O19843   2.451   3.118   7.151  0.1287  0.0446  0.0552
 2675TP3     H119844   2.436   3.024   7.144 -0.3061  0.1581 -0.6107
 2675TP3     H219845   2.542   3.131   7.124  0.1353 -0.1660 -0.0208
 2676TP3      O19846   0.212   2.394   8.594 -0.2316 -0.0817  0.8096
 2676TP3     H119847   0.156   2.409   8.518 -0.4049  0.9589  1.1198
 2676TP3     H219848   0.299   2.379   8.558 -0.4277 -0.1985  0.3817
 2677TP3      O19849   0.159   1.704  10.330 -0.4079 -0.2094 -0.3347
 2677TP3     H119850   0.111   1.723  10.410 -1.1516  0.4518 -0.9191
 2677TP3     H219851   0.222   1.776  10.322  0.3989 -0.8409  0.2006
 2678TP3      O19852   3.747   0.962   8.972  0.4096 -0.3744  0.6858
 2678TP3     H119853   3.712   0.937   9.058 -0.8539 -2.0703 -0.2573
 2678TP3     H219854   3.734   0.885   8.918  1.1031  0.6910 -1.0817
 2679TP3      O19855   1.256   0.044  10.028 -0.0377 -0.4946 -0.0991
 2679TP3     H119856   1.225   0.100  10.100  0.5919 -1.2665  0.7874
 2679TP3     H219857   1.350   0.039  10.040 -0.1025 -1.8833 -0.0689
 2680TP3      O19858   3.308   3.788   7.973 -0.4629  0.5285  0.5163
 2680TP3     H119859   3.292   3.840   7.895 -1.1465 -1.7620 -0.9648
 2680TP3     H219860   3.221   3.766   8.006 -0.2994 -1.5759 -0.2946
 2681TP3      O19861   3.002   0.313   9.610  0.4493 -0.0675 -0.0913
 2681TP3     H119862   2.995   0.218   9.601 -0.5015  0.1077 -1.4488
 2681TP3     H219863   3.052   0.340   9.533  0.3392  0.5739  0.0599
 2682TP3      O19864   2.272   0.546   0.111 -0.3282  0.6178  0.3879
 2682TP3     H119865   2.266   0.640   0.126  1.3702  1.1367 -1.6420
 2682TP3     H219866   2.352   0.519   0.155  1.0579  0.8656 -1.8351
 2683TP3      O19867   0.562   1.897   7.038  0.3235 -0.1786  0.5896
 2683TP3     H119868   0.469   1.886   7.060  0.4902  0.8594  1.9390
 2683TP3     H219869   0.600   1.811   7.055 -0.3618 -0.5777  0.1571
 2684TP3      O19870   0.769   2.021   0.305  0.5539 -0.6557 -0.0058
 2684TP3     H119871   0.688   1.982   0.338  0.6338 -0.9971 -0.1989
 2684TP3     H219872   0.822   2.037   0.383  0.5094 -0.9220  0.0814
 2685TP3      O19873   3.872   1.020   1.972 -0.2618  0.3266 -0.6645
 2685TP3     H119874   3.907   1.080   2.038 -1.9933 -0.3012  0.8820
 2685TP3     H219875   3.950   0.974   1.940  0.6251  0.5432  1.0369
 2686TP3      O19876   1.303   3.662   1.274 -0.0930 -0.1244  0.0674
 2686TP3     H119877   1.332   3.642   1.185 -1.4424  2.1589 -0.9716
 2686TP3     H219878   1.282   3.576   1.312  0.4604 -1.1549 -1.8252
 2687TP3      O19879   0.448   1.948   8.307 -0.6000  0.4271  0.0302
 2687TP3     H119880   0.509   1.975   8.375 -0.5228 -0.6618  0.4241
 2687TP3     H219881   0.502   1.904   8.242 -1.0290 -1.5473  0.9135
 2688TP3      O19882   4.024   1.257  10.242 -0.4974 -0.3814 -0.7225
 2688TP3     H119883   3.946   1.311  10.232 -1.6746 -1.4122  1.9641
 2688TP3     H219884   3.999   1.172  10.208 -0.5531 -0.6908  0.0650
 2689TP3      O19885   2.642   1.431   0.243  0.0008  0.0872  0.3527
 2689TP3     H119886   2.594   1.410   0.163  0.5920  1.2311 -0.3195
 2689TP3     H219887   2.581   1.483   0.295  0.1202  0.5957 -0.0120
 2690TP3      O19888   3.963   4.972   0.166 -0.0428 -0.4602 -0.5808
 2690TP3     H119889   4.019   5.037   0.209  1.1717 -2.0176  0.3183
 2690TP3     H219890   3.881   5.018   0.150  0.5150  1.0762  0.6662
 2691TP3      O19891   4.491   5.026   0.433  0.2243 -0.3174 -0.6641
 2691TP3     H119892   4.564   5.086   0.446 -0.2584  0.1719 -0.1460
 2691TP3     H219893   4.532   4.941   0.416  0.9081 -0.2212  0.4053
 2692TP3      O19894   0.697   0.063   1.134 -0.3538 -0.2219  0.6307
 2692TP3     H119895   0.653   0.142   1.105  0.0679  0.3053  1.3816
 2692TP3     H219896   0.789   0.078   1.111  0.0058  0.2466  2.2477
 2693TP3      O19897   1.212   4.994   7.576 -0.8765  0.0696 -0.1298
 2693TP3     H119898   1.148   5.048   7.530 -0.6867 -1.1587 -1.9058
 2693TP3     H219899   1.177   4.905   7.571  0.8936 -0.6174 -1.0873
 2694TP3      O19900   4.260   3.655   2.027 -0.4056 -0.1017  0.6366
 2694TP3     H119901   4.166   3.639   2.016 -0.4217  0.1924  0.2777
 2694TP3     H219902   4.265   3.745   2.059 -0.2291  0.0602  0.1624
 2695TP3      O19903   3.393   3.355   2.340  0.4448  0.1479 -0.0953
 2695TP3     H119904   3.387   3.444   2.374 -0.4244 -0.9596  2.9718
 2695TP3     H219905   3.334   3.304   2.396  2.0632 -2.6385 -0.7493
 2696TP3      O19906   2.148   0.675   2.609  0.0426  0.0612 -0.1049
 2696TP3     H119907   2.134   0.671   2.514 -0.0177  0.0255 -0.0944
 2696TP3     H219908   2.064   0.651   2.647 -0.0447  0.4610 -0.0399
 2697TP3      O19909   3.342   3.203  10.232  0.2031  0.3450  0.2548
 2697TP3     H119910   3.306   3.119  10.202 -0.0692  0.5914 -0.1288
 2697TP3     H219911   3.266   3.249  10.268  0.2790  0.5733  0.1204
 2698TP3      O19912   2.677   2.582   8.111 -0.3405 -0.0271 -0.4459
 2698TP3     H119913   2.638   2.608   8.194 -0.4388  0.1786 -0.5546
 2698TP3     H219914   2.771   2.575   8.130 -0.2827  0.6003 -0.4502
 2699TP3      O19915   3.785   4.781  10.009  0.4163 -0.0392 -0.0002
 2699TP3     H119916   3.788   4.778   9.914 -1.2848 -0.8338 -0.0532
 2699TP3     H219917   3.768   4.690  10.036  0.9290  0.1614  1.0696
 2700TP3      O19918   2.092   1.681   2.760  0.0588  0.2071 -0.2578
 2700TP3     H119919   2.093   1.680   2.856 -1.3915  0.3687 -0.2199
 2700TP3     H219920   2.024   1.618   2.736  0.0016  0.6067 -1.1761
 2701TP3      O19921   3.617   0.498   7.673 -0.4945 -0.2338 -0.3350
 2701TP3     H119922   3.593   0.447   7.595 -2.1363  0.4459 -0.3148
 2701TP3     H219923   3.703   0.534   7.652 -1.2695  0.6832 -2.2507
 2702TP3      O19924   1.822   1.074   7.473 -0.2192 -0.7957 -0.0066
 2702TP3     H119925   1.892   1.090   7.537 -1.3098  1.1345  0.8294
 2702TP3     H219926   1.768   1.005   7.513  0.6703 -1.6270 -0.2177
 2703TP3      O19927   4.819   3.556   2.635 -0.0791  0.4987  0.1263
 2703TP3     H119928   4.865   3.640   2.627 -2.3834  1.6448 -2.6010
 2703TP3     H219929   4.812   3.523   2.546 -3.4396 -0.1470  0.4921
 2704TP3      O19930   4.382   0.805   9.519  0.6073 -0.6644  0.1517
 2704TP3     H119931   4.457   0.830   9.572 -0.6702 -1.0711  2.2395
 2704TP3     H219932   4.400   0.714   9.494  1.1610 -0.5032 -0.0526
 2705TP3      O19933   2.074   0.566   8.637  0.0651 -0.1411  0.2942
 2705TP3     H119934   2.039   0.520   8.713 -1.4450 -1.5580 -1.1721
 2705TP3     H219935   2.023   0.647   8.633 -0.9791 -0.7864 -0.0606
 2706TP3      O19936   4.137   5.156   0.293 -0.1188 -0.2785 -1.0844
 2706TP3     H119937   4.166   5.245   0.273 -0.1723 -0.1812 -0.7285
 2706TP3     H219938   4.151   5.147   0.387 -0.5219 -0.4986 -1.0458
 2707TP3      O19939   3.491   5.158   2.668  0.2874 -0.3484  0.0258
 2707TP3     H119940   3.495   5.070   2.707  1.7751 -0.5489 -0.5414
 2707TP3     H219941   3.478   5.142   2.575  0.3329  0.0500 -0.0495
 2708TP3      O19942   1.771   3.131   8.576  0.4813 -0.2183  0.3236
 2708TP3     H119943   1.832   3.089   8.515 -1.4550 -0.0570 -1.8807
 2708TP3     H219944   1.711   3.060   8.602 -1.2718  0.5284 -1.4247
 2709TP3      O19945   3.834   3.973   9.612  0.9799 -0.0382  1.0224
 2709TP3     H119946   3.848   3.898   9.670  1.6140 -0.2228  0.6518
 2709TP3     H219947   3.786   3.936   9.537  1.5598 -0.1519  0.6967
 2710TP3      O19948   0.742   1.799   6.825  0.3770 -0.3960  0.0468
 2710TP3     H119949   0.765   1.889   6.848 -0.0276 -0.2747 -0.0180
 2710TP3     H219950   0.711   1.760   6.906 -1.6772  0.2289 -0.3953
 2711TP3      O19951   0.100   1.621   3.724 -0.0776 -0.0783 -0.1019
 2711TP3     H119952   0.101   1.602   3.818 -1.6521 -1.5962 -0.3395
 2711TP3     H219953   0.108   1.716   3.718 -1.1690  0.1676  1.6421
 2712TP3      O19954   0.047   1.402   7.620 -0.2170  0.1461  0.0800
 2712TP3     H119955  -0.025   1.399   7.558 -0.9647  0.4919  0.9073
 2712TP3     H219956   0.084   1.490   7.609 -1.9903  1.2156  1.8678
 2713TP3      O19957   0.762   0.266   2.019  0.0604 -0.2596  0.1155
 2713TP3     H119958   0.737   0.288   1.929  3.1461  0.3601 -0.6806
 2713TP3     H219959   0.693   0.305   2.073 -1.0600  0.6833 -1.8959
 2714TP3      O19960   4.422   0.503   0.904 -0.3176  0.1430  0.2504
 2714TP3     H119961   4.416   0.524   0.998  0.0952 -2.2747  0.8764
 2714TP3     H219962   4.507   0.537   0.878 -0.2027  0.3642  0.8887
 2715TP3      O19963   5.075   3.476   7.705  0.4152 -0.6976 -0.2638
 2715TP3     H119964   5.062   3.456   7.612 -1.9002 -0.8080  0.0350
 2715TP3     H219965   5.020   3.413   7.751  1.7809 -0.8519  1.2338
 2716TP3      O19966   2.777   4.257   8.939 -0.0919  0.1654  0.6623
 2716TP3     H119967   2.775   4.347   8.972 -1.4262  0.7363 -0.8667
 2716TP3     H219968   2.710   4.211   8.991  0.0766  0.2339  0.9411
 2717TP3      O19969   1.325   4.392   7.694 -0.4286  0.1163  0.0465
 2717TP3     H119970   1.353   4.402   7.785  0.3036 -1.0263 -0.0304
 2717TP3     H219971   1.243   4.442   7.689 -1.5045 -1.2958  1.8251
 2718TP3      O19972   3.838   4.564   8.566 -1.1357  0.0001 -0.7235
 2718TP3     H119973   3.817   4.471   8.557 -1.2632  0.0110 -0.5283
 2718TP3     H219974   3.817   4.601   8.480  1.7463 -0.6818 -1.8408
 2719TP3      O19975   0.798   1.798   1.496  0.1127  0.3983  0.0347
 2719TP3     H119976   0.891   1.808   1.516  0.3293  0.3174 -0.8761
 2719TP3     H219977   0.793   1.712   1.453 -0.4429  0.2371  0.4173
 2720TP3      O19978   0.869   2.478   0.587  1.0201  0.5003 -0.2090
 2720TP3     H119979   0.917   2.396   0.602 -0.6540 -1.1939 -3.2433
 2720TP3     H219980   0.795   2.474   0.648  2.0411  0.8113  1.0939
 2721TP3      O19981   3.144   0.574   7.381  0.1100 -0.0876  0.7105
 2721TP3     H119982   3.054   0.571   7.347 -0.5670  0.7573  2.3377
 2721TP3     H219983   3.155   0.491   7.427  1.4763 -1.8267 -2.4333
 2722TP3      O19984   3.075   0.520   2.519 -0.1613  0.2092  0.2857
 2722TP3     H119985   3.135   0.524   2.593  0.5241  0.7105 -0.2796
 2722TP3     H219986   3.009   0.587   2.537 -0.8387 -0.6590  1.1356
 2723TP3      O19987   3.757   4.918   1.717 -0.5924  0.2118 -0.2427
 2723TP3     H119988   3.782   4.957   1.633 -3.2090 -0.6331 -1.5334
 2723TP3     H219989   3.667   4.887   1.703 -1.4288  0.7529  3.1433
 2724TP3      O19990   0.186   4.938   0.443  0.3799 -0.2034 -0.0788
 2724TP3     H119991   0.108   4.993   0.443 -0.1716 -0.9842  0.1518
 2724TP3     H219992   0.236   4.968   0.366 -0.9149 -0.7874 -1.1806
 2725TP3      O19993   3.939   3.911  10.332 -0.4432 -0.4275  0.1482
 2725TP3     H119994   3.896   3.989  10.369  1.0215  0.7790 -0.6019
 2725TP3     H219995   4.017   3.898  10.386  2.0920  1.7469 -2.6374
 2726TP3      O19996   3.995   1.838   8.202 -0.9523  0.2533 -0.1284
 2726TP3     H119997   4.054   1.772   8.237 -1.7432 -1.1929 -1.4231
 2726TP3     H219998   3.926   1.846   8.268 -0.4727  0.3255  0.3683
 2727TP3      O19999   3.452   4.467   9.404  0.0534  0.5841  0.0192
 2727TP3     H120000   3.411   4.518   9.473 -0.3889  0.5841 -0.2339
 2727TP3     H220001   3.533   4.435   9.442  0.0594  1.0046  0.3666
 2728TP3      O20002   3.651   3.140   9.245  0.7156  0.4163 -0.1309
 2728TP3     H120003   3.639   3.052   9.279  2.7154  0.3305  0.5086
 2728TP3     H220004   3.732   3.136   9.195  0.5573  1.7739 -0.5553
 2729TP3      O20005   4.483   0.093   3.410 -0.0863  0.1943 -0.3842
 2729TP3     H120006   4.541   0.050   3.348  0.4550  1.1533 -0.5666
 2729TP3     H220007   4.506   0.186   3.404  0.1465  0.2974  1.4112
 2730TP3      O20008   1.245   1.824   7.744  0.6735  0.5726  0.7941
 2730TP3     H120009   1.191   1.846   7.669 -0.2824 -0.4297  1.1630
 2730TP3     H220010   1.267   1.909   7.783 -0.0450  1.0325  0.2272
 2731TP3      O20011   1.143   4.245   0.508  0.5110 -0.6846 -0.2159
 2731TP3     H120012   1.205   4.311   0.539 -0.2798  0.0325 -0.1139
 2731TP3     H220013   1.065   4.295   0.484  0.5898 -1.3611 -2.0713
 2732TP3      O20014   4.185   2.267   8.272 -0.5388 -0.3909 -0.1105
 2732TP3     H120015   4.141   2.204   8.329  0.4010 -1.3986 -0.4541
 2732TP3     H220016   4.223   2.214   8.202  1.9686  0.2706  0.6275
 2733TP3      O20017   1.776   4.768   8.424 -0.0993 -0.0158 -0.0204
 2733TP3     H120018   1.760   4.852   8.380 -1.6568 -0.1621  0.1917
 2733TP3     H220019   1.704   4.761   8.487  0.0864 -1.4650  0.0525
 2734TP3      O20020   3.106   1.558   1.277  0.1425  0.1230 -0.5514
 2734TP3     H120021   3.017   1.527   1.265 -0.5143  1.6213  0.2133
 2734TP3     H220022   3.128   1.535   1.367  1.6448 -2.7906 -1.5189
 2735TP3      O20023   4.550   2.234   3.287 -0.2436 -0.3364  0.4775
 2735TP3     H120024   4.632   2.235   3.336  0.8074  1.3182 -1.1669
 2735TP3     H220025   4.506   2.315   3.312 -0.6436 -0.4690  0.2044
 2736TP3      O20026   3.708   5.027   0.413  0.3750 -0.1534 -0.1583
 2736TP3     H120027   3.717   5.049   0.321  1.3018 -0.8650 -0.2638
 2736TP3     H220028   3.760   4.947   0.423 -0.8177 -0.8647  0.6946
 2737TP3      O20029   0.489   0.631   0.036  0.6969 -0.5526  0.4758
 2737TP3     H120030   0.546   0.705   0.015  0.2770 -0.8173 -1.8102
 2737TP3     H220031   0.464   0.645   0.127 -0.2522  2.7238 -0.1846
 2738TP3      O20032   1.703   2.797   7.696 -0.5894  0.1762 -0.3497
 2738TP3     H120033   1.763   2.840   7.636 -0.1622  2.1129  1.3602
 2738TP3     H220034   1.758   2.766   7.768 -1.4168  0.4856  0.4403
 2739TP3      O20035   1.909   1.778  10.201 -0.5095  0.2018  0.0907
 2739TP3     H120036   1.986   1.786  10.257 -1.6101 -1.9224  2.0643
 2739TP3     H220037   1.851   1.848  10.230 -0.3546  0.2210  0.3526
 2740TP3      O20038   0.473   4.607   8.250 -0.1268 -0.1749  0.0442
 2740TP3     H120039   0.487   4.656   8.331  0.4980  0.5875 -0.5032
 2740TP3     H220040   0.398   4.650   8.209  0.6710  0.6265 -0.6326
 2741TP3      O20041   3.660   0.257   2.542  0.3323 -0.3456  0.7580
 2741TP3     H120042   3.700   0.174   2.568  1.9442  0.7317  1.9138
 2741TP3     H220043   3.729   0.302   2.493 -0.3699  0.4953  0.5277
 2742TP3      O20044   0.389   1.437   1.965 -0.4617  0.2901 -0.5197
 2742TP3     H120045   0.478   1.402   1.967  0.4650  2.4954 -0.8326
 2742TP3     H220046   0.347   1.399   2.042  0.7478 -0.7524 -0.3378
 2743TP3      O20047   2.038   1.899   1.029 -0.2389 -0.1770  0.4872
 2743TP3     H120048   2.062   1.948   1.107  0.8496  0.9381 -0.5201
 2743TP3     H220049   1.949   1.927   1.009 -0.3345 -0.0909  1.0366
 2744TP3      O20050   2.740   0.035   8.860  0.2604 -0.0625 -0.1655
 2744TP3     H120051   2.745   0.131   8.865  2.9074 -0.1927  1.0258
 2744TP3     H220052   2.727   0.007   8.951  0.4699 -0.8596 -0.3765
 2745TP3      O20053   5.151   4.928  10.076 -0.3838 -0.0115 -0.2345
 2745TP3     H120054   5.075   4.889  10.032 -0.6711 -0.6577  0.7915
 2745TP3     H220055   5.140   5.022  10.064 -1.8099 -0.0458  0.5787
 2746TP3      O20056   1.135   2.193   1.274  0.2734 -0.1111 -0.1920
 2746TP3     H120057   1.150   2.287   1.284  2.4368 -0.4384  0.0233
 2746TP3     H220058   1.044   2.181   1.302 -1.4193  2.4419 -3.7642
 2747TP3      O20059   4.472   4.901   2.317 -0.5256  0.2057  0.4830
 2747TP3     H120060   4.485   4.809   2.341 -0.1506  0.4507  1.2815
 2747TP3     H220061   4.431   4.899   2.231  1.9869 -0.7122 -0.8137
 2748TP3      O20062   3.247   0.316   8.779  0.4001  0.1198 -0.0081
 2748TP3     H120063   3.330   0.284   8.744  1.1981  0.1458  1.7353
 2748TP3     H220064   3.270   0.358   8.862 -1.1856  1.3821 -0.1468
 2749TP3      O20065   1.925   5.081   6.614  0.1620  0.5680 -0.1426
 2749TP3     H120066   1.901   5.172   6.630 -0.8369  0.8493 -2.7866
 2749TP3     H220067   1.842   5.035   6.607  0.6397 -0.3432 -0.0200
 2750TP3      O20068   2.372   4.151   1.629 -0.7340  0.6995 -0.2159
 2750TP3     H120069   2.321   4.084   1.674 -0.2154  1.1486  1.0899
 2750TP3     H220070   2.306   4.212   1.595 -1.1637  0.0416 -0.5789
 2751TP3      O20071   4.118   2.025   2.432 -0.0644 -0.1918  0.7464
 2751TP3     H120072   4.199   2.043   2.384 -0.7726  0.1514 -0.3750
 2751TP3     H220073   4.049   2.035   2.366 -1.0792  0.2551  1.8366
 2752TP3      O20074   2.285   2.321   9.961 -0.3411  0.2927  0.6479
 2752TP3     H120075   2.252   2.375  10.033 -0.1694 -0.1820  1.0871
 2752TP3     H220076   2.211   2.315   9.901 -0.6332  0.3191  1.0000
 2753TP3      O20077   1.921   2.600   2.611  0.0384  0.6023  0.8386
 2753TP3     H120078   1.903   2.521   2.561 -0.2299  0.5734  0.9750
 2753TP3     H220079   2.009   2.587   2.647  1.0895  1.4838 -1.2410
 2754TP3      O20080   4.654   2.165   0.686  0.6630  0.0850 -0.1214
 2754TP3     H120081   4.646   2.074   0.714  0.4033  0.4212  0.9142
 2754TP3     H220082   4.747   2.175   0.662  0.6698 -0.4711 -0.3366
 2755TP3      O20083   1.084   1.491   9.780  0.4395 -0.4799 -0.6317
 2755TP3     H120084   1.175   1.500   9.807 -0.1593  3.2031  0.8459
 2755TP3     H220085   1.083   1.521   9.689  0.7272 -0.8228 -0.7501
 2756TP3      O20086   1.550   2.577   1.739  0.1338  0.2110  0.2245
 2756TP3     H120087   1.492   2.627   1.682  0.7634 -1.6244 -2.2264
 2756TP3     H220088   1.567   2.496   1.690  2.2423 -0.6782  2.2426
 2757TP3      O20089   4.105   1.229   7.825  0.0488 -0.0219 -0.3027
 2757TP3     H120090   4.117   1.199   7.735  1.3735 -1.2079  0.2301
 2757TP3     H220091   4.181   1.284   7.842  0.9968 -1.5832  0.7583
 2758TP3      O20092   4.803   4.874   2.670  0.1059 -0.1433  0.2403
 2758TP3     H120093   4.849   4.957   2.677  0.7018 -0.3886 -0.6450
 2758TP3     H220094   4.818   4.845   2.580 -1.7692 -0.2341 -0.0946
 2759TP3      O20095   2.623   1.185   8.954  1.0852  0.3675  0.1257
 2759TP3     H120096   2.696   1.166   9.013  1.2406 -0.1390 -0.2287
 2759TP3     H220097   2.664   1.205   8.871  0.8436  0.6567  0.0748
 2760TP3      O20098   2.557   0.302   2.294 -0.2417 -0.1731 -0.0289
 2760TP3     H120099   2.634   0.297   2.350 -0.2772 -0.5425 -0.0117
 2760TP3     H220100   2.492   0.245   2.336 -0.6256  0.3668  0.1191
 2761TP3      O20101   4.513   3.756   9.669 -0.0683 -0.0708 -0.4855
 2761TP3     H120102   4.534   3.812   9.744  0.2182 -1.7915  0.7905
 2761TP3     H220103   4.435   3.709   9.697  1.1991 -2.2271 -0.3771
 2762TP3      O20104   3.745   0.921   0.814  0.1450 -0.8679  0.4459
 2762TP3     H120105   3.838   0.899   0.820  0.0956 -1.1135  0.3430
 2762TP3     H220106   3.724   0.960   0.899  0.3059 -0.9563  0.5273
 2763TP3      O20107   0.007   1.814   8.351  0.1586  1.2318  0.9723
 2763TP3     H120108  -0.012   1.722   8.332 -2.3254  2.1650 -1.8228
 2763TP3     H220109   0.100   1.815   8.374  0.1922 -1.9693  1.3608
 2764TP3      O20110   2.331   2.500   9.131 -0.1492  0.0230  0.0639
 2764TP3     H120111   2.280   2.562   9.079  0.2951  1.4802  1.3328
 2764TP3     H220112   2.268   2.431   9.153 -0.8612  0.4135 -0.6649
 2765TP3      O20113   4.283   0.036   7.730 -0.2122 -0.5696  0.2983
 2765TP3     H120114   4.297   0.052   7.636  0.8265  0.0511  0.5489
 2765TP3     H220115   4.190   0.055   7.743 -0.1803  0.1825 -0.4430
 2766TP3      O20116   0.961   0.129   1.086  0.3981  0.4355  0.0381
 2766TP3     H120117   1.007   0.212   1.072  0.7392  0.0092 -1.5606
 2766TP3     H220118   1.031   0.064   1.094  0.1254  0.0006 -0.9314
 2767TP3      O20119   0.951   3.254   3.213 -0.1812 -0.3852  0.0124
 2767TP3     H120120   1.014   3.187   3.239 -0.0094  0.0665  0.8035
 2767TP3     H220121   0.994   3.337   3.236 -0.6793 -0.0388 -0.2925
 2768TP3      O20122   0.149   2.830   7.500 -0.2332  0.3659 -0.0584
 2768TP3     H120123   0.188   2.743   7.493  0.8563  0.8843 -0.8578
 2768TP3     H220124   0.064   2.822   7.458  0.5916  0.0837 -1.7940
 2769TP3      O20125   0.241   1.866   2.030  0.1806 -0.2395  0.3610
 2769TP3     H120126   0.168   1.807   2.012 -0.5783  0.8016 -0.0731
 2769TP3     H220127   0.314   1.830   1.979 -0.5768 -0.1766 -0.8084
 2770TP3      O20128   1.795   1.002   0.199  0.3707 -0.7777  0.2930
 2770TP3     H120129   1.848   0.923   0.189  0.9762 -0.6524  2.2004
 2770TP3     H220130   1.821   1.039   0.284 -1.3520  0.3703  0.3787
 2771TP3      O20131   2.068   1.676   3.024  0.3944  0.5661  0.2793
 2771TP3     H120132   2.026   1.757   3.054 -0.2259 -0.4912  2.4606
 2771TP3     H220133   2.147   1.669   3.076 -0.7276 -1.3518  1.8688
 2772TP3      O20134   4.032   4.196   7.900  0.2039  0.0447 -0.8179
 2772TP3     H120135   4.088   4.173   7.974 -1.1010 -0.7482 -0.0440
 2772TP3     H220136   4.086   4.177   7.823  0.4349 -2.4008 -0.1413
 2773TP3      O20137   0.382   1.550  10.147  0.4449  0.3675 -0.0821
 2773TP3     H120138   0.368   1.585  10.059  1.7772  2.2317  0.3809
 2773TP3     H220139   0.450   1.607  10.184 -0.1018 -0.3629  2.1615
 2774TP3      O20140   1.781   2.006   1.036 -0.1026 -0.4372 -0.8636
 2774TP3     H120141   1.775   2.102   1.031  0.2462 -0.4640 -2.3851
 2774TP3     H220142   1.707   1.975   0.984  1.5928 -0.9186 -3.1469
 2775TP3      O20143   1.751   0.745   9.993  0.3647  0.1297 -0.2393
 2775TP3     H120144   1.760   0.819  10.054  1.6767 -0.8858  0.8705
 2775TP3     H220145   1.745   0.787   9.906  1.0512  1.5535  0.3572
 2776TP3      O20146   1.878   5.040   1.171  0.2106 -0.0022  0.4193
 2776TP3     H120147   1.837   4.956   1.192 -0.5618  0.5264  1.1043
 2776TP3     H220148   1.806   5.103   1.175  0.5491  0.5255 -1.2865
 2777TP3      O20149   0.885   3.230   9.801 -0.0099 -0.1568  0.4041
 2777TP3     H120150   0.845   3.268   9.879  1.1018  2.5775 -0.2197
 2777TP3     H220151   0.858   3.288   9.730  1.7309 -0.5983 -0.6764
 2778TP3      O20152   1.347   0.812  10.181 -0.1056 -0.5516 -0.4586
 2778TP3     H120153   1.409   0.847  10.246  0.2543  0.0483 -1.1066
 2778TP3     H220154   1.351   0.875  10.109 -0.0732 -1.4994 -1.3017
 2779TP3      O20155   3.601   3.503   9.899 -0.0385 -0.3727 -0.0103
 2779TP3     H120156   3.551   3.423   9.918 -0.2342  0.2890  2.8314
 2779TP3     H220157   3.545   3.553   9.840 -0.3396 -1.8863 -1.0660
 2780TP3      O20158   1.009   2.440  10.222 -0.0563  0.2504 -0.5152
 2780TP3     H120159   1.096   2.423  10.260 -0.3980 -2.4866 -0.7944
 2780TP3     H220160   0.952   2.449  10.298  0.0935 -0.3096 -0.3262
 2781TP3      O20161   1.696   0.247   2.016 -0.1233 -0.7573  0.4491
 2781TP3     H120162   1.761   0.316   2.032 -0.2834  0.1842 -2.3543
 2781TP3     H220163   1.612   0.288   2.037  0.0202 -1.8409  3.6660
 2782TP3      O20164   0.313   1.733   2.387  0.2528 -0.3146 -0.4460
 2782TP3     H120165   0.399   1.775   2.382  0.5584 -0.5684  1.7225
 2782TP3     H220166   0.317   1.680   2.467 -1.0106 -2.4636 -1.7182
 2783TP3      O20167   1.771   0.392   1.653 -0.5163  0.0720  0.1792
 2783TP3     H120168   1.787   0.298   1.652 -0.5724  0.0572  0.4033
 2783TP3     H220169   1.847   0.430   1.610 -0.6317 -0.0950 -0.1693
 2784TP3      O20170   4.621   4.862   8.196  0.4004  0.2166 -0.0961
 2784TP3     H120171   4.670   4.790   8.156  1.4775  1.5951 -1.3501
 2784TP3     H220172   4.625   4.933   8.132 -1.9782  0.9119  0.4223
 2785TP3      O20173   0.003   2.026   2.709 -0.4076  0.2935  0.1343
 2785TP3     H120174   0.098   2.016   2.707 -0.4660 -1.7615  2.3582
 2785TP3     H220175  -0.021   2.045   2.619  1.9971 -0.6961 -0.8050
 2786TP3      O20176   1.773   5.083   8.398 -0.0674 -0.0724 -0.4763
 2786TP3     H120177   1.684   5.058   8.372 -0.6076 -0.7663  1.8294
 2786TP3     H220178   1.761   5.145   8.469  1.2973 -0.4275  0.0935
 2787TP3      O20179   1.527   2.111   0.793  0.0105 -0.4822  0.5578
 2787TP3     H120180   1.537   2.033   0.848 -0.9924 -0.5129  0.7124
 2787TP3     H220181   1.490   2.078   0.711 -0.8115 -0.1260  0.7764
 2788TP3      O20182   0.734   1.725   2.285 -0.1336 -0.0656 -0.1440
 2788TP3     H120183   0.678   1.677   2.224 -0.3631 -0.3962  0.3189
 2788TP3     H220184   0.779   1.657   2.335  0.6387  0.1969 -0.4653
 2789TP3      O20185   2.283   0.579   9.463 -0.4724 -0.6251 -0.3724
 2789TP3     H120186   2.298   0.668   9.495 -1.2207 -0.2779 -0.9373
 2789TP3     H220187   2.236   0.591   9.380  0.0050 -1.5339 -0.7887
 2790TP3      O20188   0.042   3.893   7.278  0.5462  0.4006  0.2704
 2790TP3     H120189   0.089   3.900   7.361  3.6131  0.1637 -1.2988
 2790TP3     H220190   0.077   3.965   7.225 -0.0897 -0.4534 -1.3640
 2791TP3      O20191   2.990   1.955   8.951  0.2680 -0.1176  0.1226
 2791TP3     H120192   2.943   2.014   8.892 -0.2766  0.2850  0.9414
 2791TP3     H220193   2.967   1.867   8.920 -0.3622  0.0833  0.0072
 2792TP3      O20194   4.642   3.522   9.554  0.3221 -0.0356 -0.5250
 2792TP3     H120195   4.591   3.594   9.591 -0.9309 -1.3575  0.4290
 2792TP3     H220196   4.689   3.562   9.480 -1.3317  1.4690 -0.8461
 2793TP3      O20197   2.789   1.768   9.846 -0.8916 -0.2754 -0.1621
 2793TP3     H120198   2.811   1.763   9.939 -0.8824 -0.8905 -0.1958
 2793TP3     H220199   2.702   1.809   9.845 -0.6580  0.2315  0.0835
 2794TP3      O20200   2.302   0.606   1.043 -0.3686 -0.2751  0.3489
 2794TP3     H120201   2.368   0.599   0.974  0.2094 -3.0624  1.0741
 2794TP3     H220202   2.218   0.596   0.997 -0.2621  1.6103 -0.3532
 2795TP3      O20203   0.798   1.733   0.855 -0.0006 -0.2770 -0.1300
 2795TP3     H120204   0.713   1.752   0.896 -0.3792 -0.7603 -0.6861
 2795TP3     H220205   0.829   1.653   0.899 -0.7468 -1.2190 -1.2599
 2796TP3      O20206   0.859   4.956   0.634 -0.2775  0.2860 -0.2378
 2796TP3     H120207   0.898   4.954   0.722  0.8011 -0.1868 -0.7174
 2796TP3     H220208   0.796   4.884   0.635  0.9107 -0.7826 -0.3720
 2797TP3      O20209   2.982   3.036   8.518  0.7239 -0.4222 -0.6356
 2797TP3     H120210   2.903   3.035   8.464 -0.3204 -0.4316  0.8355
 2797TP3     H220211   3.033   3.110   8.485 -0.2925  0.1015 -1.0735
 2798TP3      O20212   1.381   4.722   8.879 -0.2568 -0.2546 -0.4442
 2798TP3     H120213   1.462   4.671   8.876 -0.4515 -0.5542 -0.8835
 2798TP3     H220214   1.324   4.673   8.937 -1.0043 -1.4323 -2.0737
 2799TP3      O20215   2.178   0.601   1.745 -0.3642 -0.6223 -0.0585
 2799TP3     H120216   2.241   0.595   1.672 -0.2802  0.6048 -0.0982
 2799TP3     H220217   2.218   0.549   1.815 -0.6525 -2.1847 -1.0114
 2800TP3      O20218   0.981   5.219   0.405  0.4369 -0.0393 -0.0002
 2800TP3     H120219   0.979   5.285   0.474 -0.9195 -0.2855  0.2167
 2800TP3     H220220   1.075   5.206   0.387  0.7555  1.0657  0.7775
 2801TP3      O20221   0.532   3.785   1.149 -0.1996 -0.0691 -0.2775
 2801TP3     H120222   0.599   3.742   1.097  0.3402  1.3731 -0.8253
 2801TP3     H220223   0.491   3.714   1.199  0.4729 -1.2260 -1.3148
 2802TP3      O20224   4.599   1.522   0.897 -0.2299 -0.5689 -0.2077
 2802TP3     H120225   4.517   1.484   0.932 -0.9715  1.0923 -0.0652
 2802TP3     H220226   4.614   1.599   0.951  0.6651 -0.0480 -1.1742
 2803TP3      O20227   4.265   1.168   9.750  0.2054  0.4814 -0.1995
 2803TP3     H120228   4.308   1.222   9.816  0.8847  0.2048 -0.4166
 2803TP3     H220229   4.172   1.170   9.775  0.6356 -0.8680  1.6556
 2804TP3      O20230   1.887   4.771   2.571  0.1661 -0.6389  0.4792
 2804TP3     H120231   1.831   4.740   2.641 -2.1351  0.0679 -0.9484
 2804TP3     H220232   1.940   4.695   2.547 -2.4862 -2.3564 -0.2681
 2805TP3      O20233   3.720   0.064   0.798  0.1421  0.3007  0.2643
 2805TP3     H120234   3.670  -0.012   0.768 -1.4251  1.1790  0.5957
 2805TP3     H220235   3.799   0.063   0.743 -0.7394 -0.4685 -1.0480
 2806TP3      O20236   5.135   0.076   0.676 -0.4161  0.3007 -0.1357
 2806TP3     H120237   5.147  -0.009   0.635 -0.5507  0.8151 -1.2871
 2806TP3     H220238   5.184   0.070   0.758  2.0590  0.0527 -1.5159
 2807TP3      O20239   3.804   0.088   2.184  0.0811 -0.0980 -0.1459
 2807TP3     H120240   3.848   0.108   2.101 -3.0452  2.4619 -1.4187
 2807TP3     H220241   3.755   0.008   2.166  0.0588 -0.0020 -0.5321
 2808TP3      O20242   0.386   5.024  10.002 -0.0365 -0.5609  0.3023
 2808TP3     H120243   0.422   4.996  10.086  1.1709 -0.1350 -0.0489
 2808TP3     H220244   0.418   4.959   9.939  0.3840 -0.0241 -0.0564
 2809TP3      O20245   2.283   0.413   7.929  0.3095 -0.7840 -0.0994
 2809TP3     H120246   2.321   0.455   8.006 -0.5604 -1.1319  0.5484
 2809TP3     H220247   2.306   0.470   7.856  0.9673 -0.3293  0.4486
 2810TP3      O20248   4.422   4.636   2.382 -0.0875  0.4957 -0.0358
 2810TP3     H120249   4.440   4.601   2.295 -1.4394 -0.9368  0.2045
 2810TP3     H220250   4.448   4.565   2.441  0.2112  1.1985  0.6806
 2811TP3      O20251   3.353   1.019   7.381 -0.0577  0.1615  0.0418
 2811TP3     H120252   3.335   0.927   7.362  0.9754  0.2112 -1.2451
 2811TP3     H220253   3.294   1.067   7.323  1.2465  0.2964 -1.2319
 2812TP3      O20254   4.673   4.774   1.510  0.1541 -0.1770 -0.1525
 2812TP3     H120255   4.678   4.703   1.574  1.6640  0.6116  0.6609
 2812TP3     H220256   4.694   4.733   1.426  0.3338 -0.8122  0.1952
 2813TP3      O20257   5.171   4.338   2.417 -0.3860  0.3753  1.0479
 2813TP3     H120258   5.254   4.293   2.436 -0.1716  0.7119  0.8976
 2813TP3     H220259   5.111   4.305   2.485 -0.0994  0.2244  1.2320
 2814TP3      O20260   2.554   4.262   9.489  0.1227  0.1348 -0.0163
 2814TP3     H120261   2.530   4.210   9.566 -1.8189 -0.2070 -0.7995
 2814TP3     H220262   2.518   4.349   9.507  0.6761  0.3719 -0.0460
 2815TP3      O20263   1.474   4.803   0.050 -0.2100 -0.2303  0.2190
 2815TP3     H120264   1.525   4.782  -0.029 -0.4124 -0.5434  0.1687
 2815TP3     H220265   1.424   4.723   0.068 -0.8408  0.1402  0.1443
 2816TP3      O20266   1.897   1.785   8.094  0.0295  0.6668  0.2326
 2816TP3     H120267   1.860   1.762   8.009 -0.1130  0.7460  0.2737
 2816TP3     H220268   1.971   1.725   8.105 -0.6548 -0.1430  0.5739
 2817TP3      O20269   1.783   3.464   2.791 -0.1217  0.6832  0.3033
 2817TP3     H120270   1.873   3.457   2.760 -0.5730  1.3635 -1.2598
 2817TP3     H220271   1.792   3.485   2.884  1.3713  2.2784 -0.1420
 2818TP3      O20272   0.048   1.435   1.185 -0.4289 -0.4067 -0.7073
 2818TP3     H120273   0.138   1.466   1.189 -0.2838 -0.7531 -1.2245
 2818TP3     H220274   0.014   1.472   1.103 -0.3566 -1.3324 -1.1681
 2819TP3      O20275   4.027   0.131  10.101 -0.0449 -0.1818 -0.1561
 2819TP3     H120276   4.057   0.103  10.188 -0.2744  0.4795  0.1466
 2819TP3     H220277   4.012   0.225  10.111 -0.8002 -0.2405 -0.7153
 2820TP3      O20278   0.217   0.801   1.615 -0.0333 -0.3138  0.4497
 2820TP3     H120279   0.226   0.854   1.535 -0.0657  0.3698  0.8918
 2820TP3     H220280   0.142   0.840   1.661 -0.7466 -1.4206  0.2710
 2821TP3      O20281   4.006   1.335   8.212 -0.2387  0.2885 -0.2916
 2821TP3     H120282   4.058   1.414   8.198  0.2489  0.1963  0.8847
 2821TP3     H220283   3.934   1.342   8.150  0.1281  1.3667 -0.6100
 2822TP3      O20284   0.918   1.854   7.740  0.2056 -0.2695  0.1787
 2822TP3     H120285   0.838   1.905   7.727 -0.1798 -1.0645 -0.7223
 2822TP3     H220286   0.903   1.774   7.690  1.5512 -0.4464  0.0232
 2823TP3      O20287   4.166   1.003  10.134 -0.0577  0.0256  0.0857
 2823TP3     H120288   4.209   0.920  10.115  2.7216  1.6683 -1.4326
 2823TP3     H220289   4.077   0.993  10.100  0.8683 -1.6122 -2.0663
 2824TP3      O20290   0.513   2.771   7.277  0.0593  0.1947  0.2086
 2824TP3     H120291   0.577   2.825   7.230 -0.3860  1.3274  0.8712
 2824TP3     H220292   0.558   2.742   7.356  0.2246 -0.2372 -0.0391
 2825TP3      O20293   2.862   0.426   2.756 -0.2884  0.8870  0.4903
 2825TP3     H120294   2.914   0.450   2.833 -0.4250  0.1024  0.8320
 2825TP3     H220295   2.785   0.382   2.791  0.8482 -1.7957 -0.1331
 2826TP3      O20296   1.745   4.240   1.614  0.5812 -0.5754  0.2230
 2826TP3     H120297   1.720   4.205   1.528 -0.8148 -0.1160  0.4158
 2826TP3     H220298   1.717   4.331   1.611  1.6781 -0.2102  0.7282
 2827TP3      O20299   5.225   0.442  10.279 -0.1066  0.2873  0.8512
 2827TP3     H120300   5.306   0.479  10.313 -0.1189  0.4467  0.7050
 2827TP3     H220301   5.206   0.492  10.200  0.5006 -0.7869 -0.0018
 2828TP3      O20302   0.003   0.892   2.002 -0.8471  0.6044  0.1522
 2828TP3     H120303  -0.065   0.916   1.939  0.7928  2.0344 -1.1842
 2828TP3     H220304   0.031   0.975   2.040  0.0590  0.0360  0.7613
 2829TP3      O20305   0.820   2.138   8.327  0.3586 -0.2294  1.1614
 2829TP3     H120306   0.776   2.062   8.289 -1.7124  0.9466  1.0243
 2829TP3     H220307   0.770   2.156   8.407  1.9390 -0.0583  2.1570
 2830TP3      O20308   2.278   2.648   1.536 -0.0933 -0.2553  0.0031
 2830TP3     H120309   2.341   2.658   1.608 -0.5848 -2.4792  0.8343
 2830TP3     H220310   2.221   2.725   1.544  1.4625  0.9091  0.3020
 2831TP3      O20311   3.685   0.970  10.234 -0.1436 -0.0801 -0.5306
 2831TP3     H120312   3.725   0.952  10.319  0.5111 -0.4782 -0.9209
 2831TP3     H220313   3.610   1.026  10.255 -0.0866 -0.3120  0.3241
 2832TP3      O20314   3.195   3.882   0.812  0.3225 -0.6866  0.1072
 2832TP3     H120315   3.122   3.856   0.868 -0.8011  0.0156 -0.9699
 2832TP3     H220316   3.154   3.904   0.728  1.6829  0.4556 -0.3043
 2833TP3      O20317   0.412   2.507   8.719 -0.0604 -0.5431 -0.2713
 2833TP3     H120318   0.339   2.478   8.665  0.4571  0.9510 -1.8774
 2833TP3     H220319   0.449   2.581   8.672  1.7460 -0.4811  1.1036
 2834TP3      O20320   1.729   3.786  10.301  0.1727  0.1763  0.5771
 2834TP3     H120321   1.673   3.775  10.377  0.0791 -0.1724  0.4615
 2834TP3     H220322   1.673   3.762  10.227  0.6011 -0.6146  0.4959
 2835TP3      O20323   4.458   0.807   2.159  0.1357  0.6636  0.0357
 2835TP3     H120324   4.471   0.854   2.076  0.5222  0.0759 -0.2445
 2835TP3     H220325   4.367   0.778   2.156  0.0274  0.9973  0.0045
 2836TP3      O20326   1.154   0.438   9.929 -0.0173 -0.4710  0.3218
 2836TP3     H120327   1.195   0.524   9.915 -1.3368  0.1159 -0.0477
 2836TP3     H220328   1.153   0.428  10.024 -3.2385  1.6871  0.6610
 2837TP3      O20329   3.425   3.760   9.502  0.1819  0.6398 -0.2277
 2837TP3     H120330   3.360   3.695   9.531 -0.3922  0.5286 -1.6951
 2837TP3     H220331   3.404   3.838   9.552  0.1467  0.0534  0.7099
 2838TP3      O20332   4.284   2.494   2.665 -0.6160  0.2919 -0.4743
 2838TP3     H120333   4.275   2.415   2.612  1.7799  0.0593 -0.6565
 2838TP3     H220334   4.296   2.461   2.755 -1.8813  0.5662 -0.1902
 2839TP3      O20335   0.059   3.325   2.547 -0.5433 -0.2576  0.0853
 2839TP3     H120336   0.149   3.356   2.537 -0.8412  0.3933 -0.7963
 2839TP3     H220337   0.045   3.268   2.471 -1.2472  0.6346 -0.4763
 2840TP3      O20338   3.923   0.004   2.843 -0.6472 -0.3946  0.5006
 2840TP3     H120339   3.876   0.014   2.926 -0.6007  0.4173  0.4347
 2840TP3     H220340   3.855   0.010   2.776 -0.5264  0.2796  0.4281
 2841TP3      O20341   2.918   1.311   2.440  0.2961 -0.2290 -0.0193
 2841TP3     H120342   3.005   1.307   2.480  0.8230  2.0857 -0.8087
 2841TP3     H220343   2.859   1.332   2.513  0.9418  1.7895 -0.0302
 2842TP3      O20344   0.685   2.711   7.504 -0.3957  0.2265 -0.3169
 2842TP3     H120345   0.740   2.643   7.464 -2.9840 -1.2841 -1.6077
 2842TP3     H220346   0.639   2.665   7.575  0.1503  1.5242  0.9258
 2843TP3      O20347   4.035   5.136   7.651 -0.4639 -0.0552  0.2231
 2843TP3     H120348   4.026   5.166   7.561 -1.0104  0.1142  0.3261
 2843TP3     H220349   4.011   5.044   7.649 -1.7656  0.2519  0.3956
 2844TP3      O20350   1.605   1.649   1.363 -0.1129  0.2340 -0.0616
 2844TP3     H120351   1.531   1.709   1.361  0.4090  1.3143 -6.0017
 2844TP3     H220352   1.681   1.704   1.344  1.4896 -1.5407  0.8104
 2845TP3      O20353   4.861   4.472   2.279  0.2754  0.6173  0.6894
 2845TP3     H120354   4.864   4.441   2.369 -0.5212 -0.6448  0.2993
 2845TP3     H220355   4.900   4.401   2.228  0.7939  1.3544  0.0327
 2846TP3      O20356   4.419   3.289   8.686  0.2641 -0.3297 -0.2321
 2846TP3     H120357   4.446   3.337   8.608  1.0253  1.1617  0.9057
 2846TP3     H220358   4.338   3.332   8.714  0.8336  0.1755  0.6733
 2847TP3      O20359   1.027   4.136   9.292 -0.0763 -0.3669  0.4209
 2847TP3     H120360   1.083   4.200   9.249  0.5733 -1.2647 -0.1001
 2847TP3     H220361   0.947   4.184   9.315 -0.7644 -0.0028 -2.4330
 2848TP3      O20362   2.441   4.447   1.096  0.9788  0.2894  0.2409
 2848TP3     H120363   2.445   4.500   1.176  0.6049  0.9497 -0.1655
 2848TP3     H220364   2.351   4.415   1.092  1.4478 -1.2259  0.9956
 2849TP3      O20365   0.999   4.806   3.586  0.4838  0.3255 -0.0614
 2849TP3     H120366   1.056   4.839   3.517 -0.0046 -0.8668 -1.0901
 2849TP3     H220367   0.917   4.855   3.576  0.4248  0.1765 -0.3323
 2850TP3      O20368   4.386   4.985   9.991  0.5503 -0.5186  0.5954
 2850TP3     H120369   4.447   5.026   9.930  1.0347  1.0932  2.0789
 2850TP3     H220370   4.304   4.977   9.941  0.7220  1.4355 -0.0860
 2851TP3      O20371   1.933   1.070   9.523  0.0768 -0.0867  0.4106
 2851TP3     H120372   1.909   1.159   9.549 -1.2360 -0.2839 -0.0385
 2851TP3     H220373   2.022   1.079   9.488 -0.3541  1.2218 -0.4352
 2852TP3      O20374   3.179   3.382   9.130 -0.2663 -0.5362 -0.0222
 2852TP3     H120375   3.240   3.315   9.160  0.0107 -0.8548 -1.2709
 2852TP3     H220376   3.224   3.465   9.148 -0.3263 -0.6895  0.8971
 2853TP3      O20377   2.275   5.001   7.601  0.1505 -0.1023 -0.0359
 2853TP3     H120378   2.360   5.044   7.611  0.1574  0.2019 -1.2759
 2853TP3     H220379   2.256   5.006   7.507 -0.2613 -2.0141 -0.1065
 2854TP3      O20380   3.014   2.076   0.729  0.0450  0.6105  0.3053
 2854TP3     H120381   3.078   2.034   0.672 -1.1322 -1.2568  0.2798
 2854TP3     H220382   3.064   2.104   0.805  1.5266  2.5551 -1.2865
 2855TP3      O20383   1.316   3.732   7.747  0.2983 -0.3832  0.2234
 2855TP3     H120384   1.235   3.685   7.768 -0.4464  1.1749  0.9404
 2855TP3     H220385   1.326   3.720   7.652 -1.8846  1.0491 -0.2617
 2856TP3      O20386   4.543   4.918   9.752 -0.0965  0.3337  0.7204
 2856TP3     H120387   4.613   4.853   9.756 -0.8162 -0.5323 -0.1114
 2856TP3     H220388   4.585   4.996   9.714  0.6817  0.2416  1.3656
 2857TP3      O20389   1.574   4.118   0.870  0.4833 -0.2552  0.3563
 2857TP3     H120390   1.648   4.067   0.837  1.2586  0.2167  1.3285
 2857TP3     H220391   1.498   4.060   0.856  1.0812 -0.9319 -0.2192
 2858TP3      O20392   4.651   5.207   7.536  0.4443 -0.3888 -0.1662
 2858TP3     H120393   4.652   5.219   7.441 -0.8968  1.4775  0.0078
 2858TP3     H220394   4.724   5.261   7.567  0.4447 -0.4515 -0.0573
 2859TP3      O20395   3.987   4.372  10.174 -0.0751  0.2405  0.0838
 2859TP3     H120396   4.034   4.453  10.195 -0.4971  0.6696 -0.5927
 2859TP3     H220397   4.053   4.303  10.184  0.9325  0.8931 -1.5742
 2860TP3      O20398   4.642   1.993  10.184  0.3247 -0.0574 -1.0099
 2860TP3     H120399   4.666   1.903  10.206  0.7399  0.2929  0.0434
 2860TP3     H220400   4.549   1.989  10.163  0.4957 -0.8454 -1.6655
 2861TP3      O20401   2.763   4.664   0.995 -0.9486  0.0073  0.2125
 2861TP3     H120402   2.837   4.690   0.940 -0.0657 -1.1495  0.8027
 2861TP3     H220403   2.731   4.747   1.032  0.2786  0.5026  0.2227
 2862TP3      O20404   1.990   0.098   3.697  0.5125 -0.2243 -0.8767
 2862TP3     H120405   1.919   0.040   3.727  0.1476  1.7703  2.5137
 2862TP3     H220406   2.070   0.052   3.721  0.3209 -0.7422 -1.1985
 2863TP3      O20407   4.405   4.936   8.341 -0.1988  0.0244  0.6929
 2863TP3     H120408   4.427   5.027   8.320 -1.0906  0.3220  1.0131
 2863TP3     H220409   4.468   4.885   8.291 -0.8191  0.7722 -0.9520
 2864TP3      O20410   4.046   0.184   9.391  0.1019  0.0192  0.1032
 2864TP3     H120411   4.020   0.138   9.311 -1.0323 -2.1504  1.6097
 2864TP3     H220412   4.141   0.191   9.384 -0.1296  2.2032 -2.5290
 2865TP3      O20413   3.102   5.036   0.976  0.3577 -0.6497 -0.1618
 2865TP3     H120414   3.139   5.124   0.990 -1.0755  0.3651 -2.2268
 2865TP3     H220415   3.063   5.014   1.060 -0.5968  1.4204  0.0183
 2866TP3      O20416   2.651   3.109   0.532 -0.6172 -0.1131  0.2745
 2866TP3     H120417   2.697   3.169   0.473  0.1052  1.6008  2.4503
 2866TP3     H220418   2.717   3.082   0.595 -1.4366 -1.6648  0.5013
 2867TP3      O20419   5.020   3.797   9.804  0.5245  0.5757 -0.5683
 2867TP3     H120420   4.981   3.761   9.884  1.2076 -0.0127 -0.4925
 2867TP3     H220421   4.952   3.854   9.768 -0.6165 -0.8097 -0.7141
 2868TP3      O20422   0.601   3.080   9.253  0.3686  0.4517  0.3190
 2868TP3     H120423   0.543   3.092   9.178 -1.1050  0.1175  1.3618
 2868TP3     H220424   0.575   3.149   9.314  2.4424  1.5634  0.0379
 2869TP3      O20425   3.201   2.594   8.796 -0.1392 -0.0988 -0.0963
 2869TP3     H120426   3.255   2.628   8.868  0.7452  0.6936 -1.1018
 2869TP3     H220427   3.250   2.521   8.761  0.0027  0.2521 -0.6390
 2870TP3      O20428   4.986   2.767   1.136 -0.2001 -0.0735 -0.3543
 2870TP3     H120429   4.901   2.754   1.177 -0.5049  0.0864 -0.9151
 2870TP3     H220430   4.985   2.859   1.108  0.6974  0.3251  0.8267
 2871TP3      O20431   2.872   3.455   8.150 -0.1069  0.4588  0.1479
 2871TP3     H120432   2.779   3.463   8.131  0.0648 -0.8157 -1.5026
 2871TP3     H220433   2.899   3.542   8.178 -1.4615  1.3010 -1.0403
 2872TP3      O20434   0.694   2.453   3.179 -0.4296 -0.9850 -0.1084
 2872TP3     H120435   0.666   2.440   3.088  0.2351 -0.7726 -0.3443
 2872TP3     H220436   0.619   2.495   3.221 -1.1394 -2.0048 -0.2988
 2873TP3      O20437   3.889   2.655   9.127  0.1002  0.6738 -0.6243
 2873TP3     H120438   3.803   2.693   9.107 -1.3607 -1.2264  1.5867
 2873TP3     H220439   3.873   2.598   9.201  2.6485 -2.2763 -2.1424
 2874TP3      O20440   2.204   4.843   8.501  0.0910  0.3657  0.5863
 2874TP3     H120441   2.242   4.778   8.559  1.1842  1.3597  1.0282
 2874TP3     H220442   2.126   4.801   8.465  0.4425 -0.9495  1.3116
 2875TP3      O20443   2.480   4.766   1.332 -0.4096  0.1522  0.6290
 2875TP3     H120444   2.541   4.761   1.405  1.0711  0.5774 -0.5254
 2875TP3     H220445   2.429   4.685   1.337  2.9761 -2.2771 -0.6644
 2876TP3      O20446   2.341   5.014   8.803 -0.1435 -0.3603  0.3250
 2876TP3     H120447   2.421   4.963   8.818  0.0304  0.1873  1.2942
 2876TP3     H220448   2.359   5.062   8.722  0.4246 -0.4186  0.4106
 2877TP3      O20449   0.425   2.202   8.722  0.2776  0.2675 -0.0921
 2877TP3     H120450   0.404   2.294   8.738 -1.8241 -0.3662  1.1325
 2877TP3     H220451   0.340   2.159   8.714  1.0643 -2.1519  2.8580
 2878TP3      O20452   5.029   2.357   9.572  0.3404 -0.0317 -0.0144
 2878TP3     H120453   5.005   2.412   9.647  0.1628 -0.7507  0.4621
 2878TP3     H220454   4.955   2.365   9.512  1.9031  3.3659 -1.7968
 2879TP3      O20455   2.070   2.581   2.318 -0.4021  0.0735 -0.0154
 2879TP3     H120456   2.013   2.597   2.393  0.9265 -0.8059  1.2386
 2879TP3     H220457   2.159   2.594   2.352  0.2772 -1.1396 -1.2084
 2880TP3      O20458   2.682   3.215   2.738 -0.0809  1.0896  0.5184
 2880TP3     H120459   2.636   3.298   2.750 -1.7801  0.5873 -1.8898
 2880TP3     H220460   2.676   3.172   2.823 -3.0729  1.5686  0.6417
 2881TP3      O20461   4.947   0.326   8.561 -0.7567 -0.2800 -0.6261
 2881TP3     H120462   4.989   0.397   8.511  0.0036 -0.6838 -0.5779
 2881TP3     H220463   4.881   0.291   8.502  1.3040 -1.9310 -2.1144
 2882TP3      O20464   1.190   2.130   6.576 -0.0519  0.0591  0.2032
 2882TP3     H120465   1.134   2.160   6.504 -0.5166  1.0842  0.9583
 2882TP3     H220466   1.137   2.066   6.623  0.7402 -1.6335 -1.0943
 2883TP3      O20467   3.859   1.615  10.384  0.4183  0.6932  0.3369
 2883TP3     H120468   3.830   1.545  10.326  0.9171  0.6031  0.1975
 2883TP3     H220469   3.815   1.597  10.467  2.2009 -1.0488  0.9765
 2884TP3      O20470   3.460   2.432   2.190 -0.1350 -0.2058  0.2069
 2884TP3     H120471   3.520   2.358   2.196 -1.0563 -1.0975 -1.1358
 2884TP3     H220472   3.429   2.445   2.280 -0.8665 -2.2516  0.3110
 2885TP3      O20473   0.111   3.531   2.173 -0.1853  0.5083  0.1230
 2885TP3     H120474   0.194   3.564   2.208 -1.0757  0.4699  2.4035
 2885TP3     H220475   0.109   3.439   2.198 -0.7116  0.3993 -0.3020
 2886TP3      O20476   0.543   0.206   3.050  0.2587  0.4750  0.1691
 2886TP3     H120477   0.482   0.152   3.101  1.4144  0.6855  1.8641
 2886TP3     H220478   0.589   0.143   2.995  0.0351  0.0087  0.5017
 2887TP3      O20479   4.250   2.198   3.455  0.3003 -0.0930 -0.1591
 2887TP3     H120480   4.164   2.242   3.458  1.2460  1.8162  0.3231
 2887TP3     H220481   4.251   2.156   3.368 -0.6898  0.7691 -0.6180
 2888TP3      O20482   4.549   0.723   1.357 -0.0653  0.1464  0.0293
 2888TP3     H120483   4.568   0.649   1.416 -1.7532 -0.5089 -0.1897
 2888TP3     H220484   4.559   0.800   1.412 -0.0249 -0.3552  0.7452
 2889TP3      O20485   0.026   0.117   0.926  0.3332  0.6652 -0.1825
 2889TP3     H120486   0.084   0.184   0.889  0.9972  1.5848  2.3098
 2889TP3     H220487   0.044   0.120   1.020 -1.3476 -1.4116  0.2690
 2890TP3      O20488   4.135   3.996   1.382 -0.2200 -0.5876 -0.2858
 2890TP3     H120489   4.121   3.955   1.296  0.6845 -0.6317 -0.4249
 2890TP3     H220490   4.215   3.955   1.414 -0.5452 -0.5553  0.5793
 2891TP3      O20491   2.960   4.290   9.533  0.4337 -0.7717 -0.0527
 2891TP3     H120492   2.966   4.238   9.453 -2.4006  0.5242 -1.2742
 2891TP3     H220493   2.931   4.228   9.600 -1.4320 -1.1562 -1.1278
 2892TP3      O20494   0.080   2.808   1.416 -0.5140  0.1357  0.0940
 2892TP3     H120495   0.078   2.740   1.349  1.7783  1.5683 -1.5640
 2892TP3     H220496   0.162   2.794   1.462 -0.9514  0.6290  1.0576
 2893TP3      O20497   2.420   1.506   7.783 -0.3029  0.3297  0.3774
 2893TP3     H120498   2.426   1.587   7.833 -0.7474  0.0034  0.9576
 2893TP3     H220499   2.411   1.535   7.692  3.0469  0.9531  0.1094
 2894TP3      O20500   2.023   3.254   2.896  0.3154 -0.2822  0.3338
 2894TP3     H120501   1.939   3.216   2.871 -0.7443  1.7162  0.6791
 2894TP3     H220502   2.016   3.267   2.990 -0.3014  2.7558 -0.0364
 2895TP3      O20503   3.138   4.669  10.415 -0.1755  0.3144 -0.2821
 2895TP3     H120504   3.070   4.693  10.478 -0.8097  0.7384 -1.1180
 2895TP3     H220505   3.217   4.711  10.449 -0.0127 -1.2342  1.4034
 2896TP3      O20506   0.211   3.356   8.691 -0.1929  0.7873  0.0906
 2896TP3     H120507   0.245   3.364   8.780  0.3205 -2.9713  0.3984
 2896TP3     H220508   0.234   3.439   8.649  2.6601  1.3621  2.4482
 2897TP3      O20509   3.299   0.524   2.700  0.2099  0.2314  0.3422
 2897TP3     H120510   3.307   0.617   2.676 -0.8935 -0.4757 -3.3433
 2897TP3     H220511   3.365   0.480   2.647  0.1521 -1.2374  1.4284
 2898TP3      O20512   2.397   2.152   7.554 -0.0414  0.2955 -0.1301
 2898TP3     H120513   2.469   2.207   7.522 -0.6313  1.4650  0.4720
 2898TP3     H220514   2.389   2.083   7.488  1.6899  0.0676 -0.1522
 2899TP3      O20515   1.066   2.232   7.505  0.0661 -0.4132  0.6174
 2899TP3     H120516   1.057   2.177   7.583 -0.4074  0.5789  1.2731
 2899TP3     H220517   0.976   2.256   7.482  0.2474 -0.1903  0.1226
 2900TP3      O20518   2.841   3.906   1.584  0.5337 -0.5993 -0.3066
 2900TP3     H120519   2.919   3.927   1.635 -0.4940 -1.9917  1.9715
 2900TP3     H220520   2.839   3.810   1.582 -0.4757 -0.5749 -1.3863
 2901TP3      O20521   4.369   4.686   9.810  0.9546  0.3208  0.1610
 2901TP3     H120522   4.274   4.689   9.801  1.1701  0.4763 -4.3906
 2901TP3     H220523   4.400   4.772   9.781  2.5334 -0.0778  0.5217
 2902TP3      O20524   4.811   2.443   1.875  0.1027 -0.3506 -0.0259
 2902TP3     H120525   4.768   2.502   1.937 -0.5122 -0.8189 -0.0016
 2902TP3     H220526   4.812   2.358   1.919 -0.3302 -0.6838 -0.6476
 2903TP3      O20527   3.926   0.296   2.356  0.1805 -0.3564  0.0542
 2903TP3     H120528   3.886   0.225   2.306 -0.1558 -0.6730  0.7529
 2903TP3     H220529   4.018   0.296   2.330 -0.1756  0.1517 -1.3182
 2904TP3      O20530   0.295   4.524   7.569  1.0578  0.0160 -0.0672
 2904TP3     H120531   0.289   4.574   7.488 -0.1079 -1.1245 -0.7139
 2904TP3     H220532   0.218   4.550   7.619  1.3495  0.1193  0.3335
 2905TP3      O20533   2.296   2.153   0.835  0.1313  0.2735  0.0130
 2905TP3     H120534   2.255   2.079   0.791 -2.2396  0.7245  1.3240
 2905TP3     H220535   2.277   2.140   0.928 -0.4286  2.5156  0.2851
 2906TP3      O20536   1.431   1.845   9.431 -0.3608 -0.6887 -0.1961
 2906TP3     H120537   1.473   1.834   9.346  1.7010 -0.9560  0.8090
 2906TP3     H220538   1.456   1.767   9.480 -2.8131 -1.3172  0.1940
 2907TP3      O20539   4.166   0.455   7.640 -0.0158  0.1433  0.2945
 2907TP3     H120540   4.119   0.373   7.628 -0.5449  0.6726 -1.4683
 2907TP3     H220541   4.097   0.521   7.648  0.4061  0.4767  1.3762
 2908TP3      O20542   3.682   2.366   2.708  0.0623  0.0337 -0.2345
 2908TP3     H120543   3.751   2.345   2.645 -1.5833  0.0235 -2.1600
 2908TP3     H220544   3.709   2.449   2.747  0.6771  0.5512 -1.6919
 2909TP3      O20545   0.006   1.002   2.335  0.0570  0.2097  0.0301
 2909TP3     H120546  -0.055   0.928   2.342  1.2990 -0.8837 -0.3023
 2909TP3     H220547   0.005   1.025   2.243 -0.8116  1.0673  0.2323
 2910TP3      O20548   1.187   0.222  10.226 -0.2730  0.3319 -0.1309
 2910TP3     H120549   1.169   0.312  10.199 -1.5404  0.0664 -0.2340
 2910TP3     H220550   1.239   0.230  10.305  2.2944  1.1322 -1.7856
 2911TP3      O20551   4.441   4.062   1.581  0.1239  0.0281 -0.1559
 2911TP3     H120552   4.402   4.148   1.593  0.8175  0.4610 -0.8963
 2911TP3     H220553   4.449   4.053   1.486  0.2829 -0.7526 -0.0745
 2912TP3      O20554   4.785   1.724   1.534  0.2505 -0.3553  0.0590
 2912TP3     H120555   4.746   1.746   1.450  1.7400  0.2285 -0.5116
 2912TP3     H220556   4.731   1.769   1.599 -0.3274 -0.0104 -0.6552
 2913TP3      O20557   3.367   2.995   2.491 -0.1507  0.4326  0.1757
 2913TP3     H120558   3.275   2.970   2.504 -0.3411  0.2302 -1.4552
 2913TP3     H220559   3.370   3.087   2.518 -0.7302  0.3243  0.6397
 2914TP3      O20560   3.170   4.504   2.616  0.3833  0.0061  0.3895
 2914TP3     H120561   3.093   4.560   2.625  1.0865  1.0893 -0.0878
 2914TP3     H220562   3.142   4.433   2.559 -0.1583  0.5945 -0.0823
 2915TP3      O20563   3.441   3.380   1.867  0.0887 -0.1742  0.1099
 2915TP3     H120564   3.502   3.432   1.919  0.1583  0.6608 -0.7860
 2915TP3     H220565   3.363   3.374   1.921  0.0422  0.9608  0.1931
 2916TP3      O20566   2.015   4.962   2.242 -0.1049  0.2609  0.2209
 2916TP3     H120567   2.046   4.983   2.154 -1.2836 -1.7835 -0.7527
 2916TP3     H220568   2.032   4.868   2.252 -1.2498  0.1620  1.6222
 2917TP3      O20569   3.984   1.817   9.667 -0.4218  0.2032 -0.4996
 2917TP3     H120570   3.918   1.798   9.733  0.2117  0.1232  0.1232
 2917TP3     H220571   4.055   1.858   9.716  0.3337 -0.4544 -1.0262
 2918TP3      O20572   3.814   0.563   2.357  0.3976 -0.1082  0.2607
 2918TP3     H120573   3.784   0.561   2.266  0.0281  0.1307  0.3732
 2918TP3     H220574   3.855   0.478   2.370  0.5865 -0.0879 -0.1742
 2919TP3      O20575   0.093   1.684   8.846  0.6146  0.1505 -0.2554
 2919TP3     H120576   0.117   1.757   8.904  0.1518 -0.8762  1.2923
 2919TP3     H220577   0.149   1.612   8.875 -1.1287 -0.9919  0.3967
 2920TP3      O20578   4.416   2.936   2.329 -0.0185 -1.1291 -0.4778
 2920TP3     H120579   4.413   2.915   2.236  0.3425 -2.1617 -0.2688
 2920TP3     H220580   4.387   2.856   2.373 -0.0290 -0.7089  0.3045
 2921TP3      O20581   3.363   2.165   9.706  0.3189  0.1299 -0.4975
 2921TP3     H120582   3.335   2.078   9.678 -0.4458  0.9645 -2.4790
 2921TP3     H220583   3.406   2.202   9.630  1.2260  1.2645  0.5246
 2922TP3      O20584   3.469   3.098   9.593 -0.5842  0.0820  0.0289
 2922TP3     H120585   3.423   3.060   9.669 -0.6741 -0.5879 -0.3543
 2922TP3     H220586   3.522   3.026   9.559  0.4969  0.7512  0.2539
 2923TP3      O20587   3.185   1.608   8.762 -0.0150 -0.8412  0.0948
 2923TP3     H120588   3.177   1.541   8.830 -2.3463 -0.3848  0.3526
 2923TP3     H220589   3.235   1.678   8.804 -0.3225 -1.0982  0.9129
 2924TP3      O20590   4.526   3.023   8.667 -0.2767  0.3853  0.4027
 2924TP3     H120591   4.444   2.974   8.676 -0.3160  0.5391  0.8701
 2924TP3     H220592   4.501   3.114   8.682  0.0557  0.3866  0.9435
 2925TP3      O20593   1.254   4.506   8.225 -0.5741  0.2246  0.1035
 2925TP3     H120594   1.180   4.566   8.232 -0.4789  0.4517 -0.6662
 2925TP3     H220595   1.276   4.483   8.315 -0.4130  1.6058  0.4424
 2926TP3      O20596   2.461   0.341   8.532  0.4762  1.0990 -0.2451
 2926TP3     H120597   2.512   0.395   8.471 -0.1814  1.4815 -0.4613
 2926TP3     H220598   2.526   0.285   8.573  0.9607  0.9634 -1.1648
 2927TP3      O20599   0.751   2.442   2.887 -0.3290 -0.2345  0.4219
 2927TP3     H120600   0.763   2.495   2.808  0.0071  1.2428  1.4254
 2927TP3     H220601   0.829   2.386   2.890  0.9392  1.4590  0.9718
 2928TP3      O20602   2.120   4.173   9.877  0.6296 -0.1880  0.4683
 2928TP3     H120603   2.113   4.214   9.963  0.8652 -0.6420  0.7017
 2928TP3     H220604   2.037   4.196   9.833  0.4686 -0.0382  0.8460
 2929TP3      O20605   1.538   0.312  10.036 -0.5204 -0.4677 -0.2154
 2929TP3     H120606   1.568   0.373  10.103  0.9267  0.4308 -1.6175
 2929TP3     H220607   1.526   0.229  10.083 -1.3406  0.5539  1.4801
 2930TP3      O20608   2.946   0.477   1.965 -0.2282 -0.3063 -0.4692
 2930TP3     H120609   2.886   0.529   1.912 -0.0590 -0.4785 -0.8354
 2930TP3     H220610   2.975   0.407   1.907  0.5448 -0.0661 -0.3854
 2931TP3      O20611   2.009   5.071   3.414  0.3189  0.3299  0.1557
 2931TP3     H120612   2.080   5.018   3.378  1.0286 -0.3752  2.4128
 2931TP3     H220613   2.041   5.161   3.409  1.1312  0.0743  0.5926
 2932TP3      O20614   4.900   0.333   0.168 -0.6090 -0.2032 -0.3679
 2932TP3     H120615   4.936   0.419   0.148 -1.0606  0.4180  1.2808
 2932TP3     H220616   4.805   0.345   0.160 -0.6195 -0.9481 -1.5147
 2933TP3      O20617   1.706   2.653   1.135 -0.1867  0.1541 -0.0710
 2933TP3     H120618   1.737   2.678   1.048 -0.4372  1.3097  0.1536
 2933TP3     H220619   1.676   2.735   1.174 -0.1970 -0.3682  1.0598
 2934TP3      O20620   3.532   3.335   8.245 -0.1910  0.0745  0.7755
 2934TP3     H120621   3.443   3.362   8.224  0.3256  1.0985 -0.1931
 2934TP3     H220622   3.522   3.268   8.312 -1.6688  0.5363  1.0429
 2935TP3      O20623   3.963   0.427   1.564 -0.7752  0.0887  0.0789
 2935TP3     H120624   4.040   0.371   1.573 -0.2585  0.6656 -0.5893
 2935TP3     H220625   3.968   0.460   1.474 -0.3664  2.2042  0.8110
 2936TP3      O20626   0.963   3.383   8.275 -0.5327  0.4069  0.3748
 2936TP3     H120627   0.908   3.357   8.201 -0.7071  1.4786  0.1096
 2936TP3     H220628   1.013   3.458   8.243 -2.7942  2.8918  2.1702
 2937TP3      O20629   3.831   0.449   3.400 -0.2514  0.8142 -0.0497
 2937TP3     H120630   3.765   0.464   3.468  0.1817 -1.2850  0.9234
 2937TP3     H220631   3.853   0.356   3.408 -0.2335  0.4338 -3.1437
 2938TP3      O20632   0.298   1.193   7.875  0.1986 -0.3201 -0.0647
 2938TP3     H120633   0.270   1.125   7.937  0.5706  0.7398  1.3408
 2938TP3     H220634   0.262   1.166   7.791  0.1372 -2.1170  0.4924
 2939TP3      O20635   1.350   2.363   0.237 -0.1735 -0.2132 -0.0937
 2939TP3     H120636   1.287   2.309   0.189 -1.3303 -0.5022  1.6239
 2939TP3     H220637   1.408   2.399   0.170 -1.4006 -0.9622 -1.6166
 2940TP3      O20638   1.678   1.001   9.274 -0.0920 -0.2393  0.0206
 2940TP3     H120639   1.618   0.966   9.208 -0.1253  2.1841 -1.3650
 2940TP3     H220640   1.751   0.939   9.275 -0.9655 -1.3199 -0.9268
 2941TP3      O20641   0.887   0.751   8.704 -0.3739 -0.6364  0.2052
 2941TP3     H120642   0.960   0.712   8.753  0.1291  1.7906  1.5236
 2941TP3     H220643   0.915   0.840   8.686 -1.5637 -0.7346 -2.5164
 2942TP3      O20644   0.519   3.263   1.436  0.1304 -0.4868 -0.0185
 2942TP3     H120645   0.508   3.303   1.350 -3.3558 -1.4518 -0.1970
 2942TP3     H220646   0.431   3.262   1.473  1.4589 -0.3196  3.5261
 2943TP3      O20647   2.678   1.701   8.598  0.0770 -0.8939  0.0582
 2943TP3     H120648   2.772   1.688   8.606  0.1543  0.3570  1.6866
 2943TP3     H220649   2.642   1.669   8.681 -0.4643  2.1589  1.1312
 2944TP3      O20650   5.113   2.088   9.608  0.1811  0.7347 -0.0227
 2944TP3     H120651   5.026   2.056   9.585  0.3189 -0.0373  0.4947
 2944TP3     H220652   5.103   2.183   9.617 -0.4569  0.7272 -0.6047
 2945TP3      O20653   2.738   4.779   2.679 -0.4333  0.5216 -0.5509
 2945TP3     H120654   2.646   4.785   2.707 -0.8167 -0.3772 -1.5479
 2945TP3     H220655   2.757   4.685   2.682  1.0552  0.8128  1.4556
 2946TP3      O20656   4.409   1.351   2.744  0.5223  0.5641 -0.2226
 2946TP3     H120657   4.406   1.446   2.732  0.6785  0.6263  0.2103
 2946TP3     H220658   4.502   1.329   2.735  0.1855 -0.0007 -3.5645
 2947TP3      O20659   1.442   3.521   7.921  0.0291 -0.1010 -0.0873
 2947TP3     H120660   1.426   3.433   7.885 -0.4142  0.9965 -2.7908
 2947TP3     H220661   1.428   3.580   7.847 -0.5530  2.3548  1.8598
 2948TP3      O20662   2.821   1.002   0.213 -0.5072  0.2365  0.1683
 2948TP3     H120663   2.751   1.056   0.251  0.1350  0.3677  1.2157
 2948TP3     H220664   2.894   1.063   0.202 -0.8993  0.3682 -2.0120
 2949TP3      O20665   0.150   3.011   8.432  0.1675  0.5905  0.2181
 2949TP3     H120666   0.243   2.989   8.422 -0.2060 -1.8862  1.5621
 2949TP3     H220667   0.105   2.949   8.375 -0.7809 -0.0825  1.6578
 2950TP3      O20668   2.183   4.201  10.358  0.4482 -0.0488 -0.2344
 2950TP3     H120669   2.216   4.290  10.351 -1.2120  0.6791  0.7094
 2950TP3     H220670   2.197   4.176  10.449 -0.9961  0.0577  0.0404
 2951TP3      O20671   2.340   1.855   2.802  0.3780  0.3058  0.3608
 2951TP3     H120672   2.359   1.856   2.895 -0.9874 -0.0850  0.6611
 2951TP3     H220673   2.273   1.788   2.791  0.8328  0.0318 -0.9666
 2952TP3      O20674   1.410   0.396   1.790 -0.1550  0.1913 -0.1002
 2952TP3     H120675   1.397   0.386   1.884 -0.5104 -0.9121 -0.2555
 2952TP3     H220676   1.466   0.473   1.782 -0.7460  0.7579  0.9692
 2953TP3      O20677   5.103   1.727   8.684  0.1496  0.3480 -0.2674
 2953TP3     H120678   5.187   1.718   8.729 -0.7912  0.2231  1.5413
 2953TP3     H220679   5.046   1.664   8.728 -1.3646  1.6657 -0.2936
 2954TP3      O20680   2.546   0.249   1.338 -0.3860  0.4799  0.4338
 2954TP3     H120681   2.600   0.286   1.269  0.1451  1.0447  1.1294
 2954TP3     H220682   2.463   0.295   1.331 -0.8681 -0.5354 -0.7701
 2955TP3      O20683   2.302   3.671   2.653  0.0083 -0.4852  0.0997
 2955TP3     H120684   2.207   3.682   2.657 -0.2479 -1.5709 -1.8870
 2955TP3     H220685   2.336   3.741   2.709 -1.8546  1.8558 -1.4710
 2956TP3      O20686   0.083   1.022   8.583  0.1221  0.0599  0.0929
 2956TP3     H120687   0.050   1.111   8.599  0.4143 -0.1462  2.2083
 2956TP3     H220688   0.175   1.025   8.611  0.2625 -0.8028 -0.2368
 2957TP3      O20689   2.243   3.336  10.269  0.2506 -0.5369  0.0596
 2957TP3     H120690   2.266   3.248  10.239  1.2338  0.0693 -1.0577
 2957TP3     H220691   2.153   3.349  10.238 -0.2227 -1.4520  0.9955
 2958TP3      O20692   1.479   1.623   9.565 -0.5330  0.4302 -0.3209
 2958TP3     H120693   1.541   1.580   9.507 -0.7085 -0.9343  0.4448
 2958TP3     H220694   1.509   1.600   9.653 -0.1037  2.6829  0.1854
 2959TP3      O20695   4.979   0.962   1.457 -0.1102  0.4686 -0.3031
 2959TP3     H120696   5.036   0.938   1.384 -0.1446  0.6668 -0.3955
 2959TP3     H220697   5.008   1.049   1.483 -1.4441  1.3017 -1.4405
 2960TP3      O20698   3.003   3.230   7.677  0.2733 -0.0522  0.3211
 2960TP3     H120699   2.912   3.242   7.705 -0.3267 -3.2925  0.2469
 2960TP3     H220700   3.011   3.285   7.599 -2.1693 -0.7612 -0.5425
 2961TP3      O20701   4.968   0.769   1.865  0.2826  0.3192  0.3402
 2961TP3     H120702   5.018   0.825   1.806 -2.2186  2.9503  0.4743
 2961TP3     H220703   4.931   0.702   1.807  1.1866  0.3743 -0.3290
 2962TP3      O20704   0.408   0.046   8.038  0.1197 -0.2713 -0.1503
 2962TP3     H120705   0.470   0.064   7.967 -0.5199  0.1461 -0.6159
 2962TP3     H220706   0.427   0.114   8.103 -0.1118  0.1131 -0.4749
 2963TP3      O20707   1.879   1.909   0.336  0.5426 -0.6608  0.1263
 2963TP3     H120708   1.857   1.880   0.248  1.2147  0.0069 -0.2668
 2963TP3     H220709   1.904   2.001   0.326 -0.7065 -0.1657  1.2148
 2964TP3      O20710   2.427   0.847   2.261 -0.1917  0.0660  0.4934
 2964TP3     H120711   2.483   0.910   2.306  0.3399 -1.0134  1.3926
 2964TP3     H220712   2.445   0.860   2.168 -0.9949  2.0509  0.5658
 2965TP3      O20713   1.678   4.634  10.064  0.2158  0.0667 -0.0973
 2965TP3     H120714   1.644   4.554  10.024  1.9040  0.1518 -1.8603
 2965TP3     H220715   1.686   4.613  10.157 -1.6937 -0.9279 -0.1077
 2966TP3      O20716   0.653   5.140   0.689 -0.5528 -0.6017  0.0490
 2966TP3     H120717   0.621   5.067   0.635 -0.5880 -0.0045 -0.7637
 2966TP3     H220718   0.748   5.139   0.677 -0.7125  0.7634 -1.6873
 2967TP3      O20719   0.510   2.649   1.223  0.0153 -0.2173 -0.0097
 2967TP3     H120720   0.495   2.604   1.306  1.5634 -0.2967  0.2432
 2967TP3     H220721   0.579   2.712   1.241 -0.5470  0.6902 -0.9261
 2968TP3      O20722   1.077   0.595   1.991  0.2296 -0.1108  0.1202
 2968TP3     H120723   1.041   0.537   2.058  0.2903  0.8180  0.9853
 2968TP3     H220724   1.017   0.588   1.918  0.6789 -1.8949 -0.1332
 2969TP3      O20725   0.339   3.628   0.734 -0.1348  0.2896 -0.2984
 2969TP3     H120726   0.263   3.646   0.789 -0.6748  2.0358 -1.5204
 2969TP3     H220727   0.305   3.630   0.645  1.0763 -0.4353 -0.8007
 2970TP3      O20728   3.663   1.721   9.563 -0.3212 -0.0897 -0.4823
 2970TP3     H120729   3.606   1.797   9.554  0.4735  0.4189 -1.5009
 2970TP3     H220730   3.646   1.688   9.651 -1.9692  0.1996 -0.6581
 2971TP3      O20731   3.625   0.927   1.071 -0.1314 -0.3924  0.2857
 2971TP3     H120732   3.567   1.000   1.095  0.4540  0.3182 -0.4226
 2971TP3     H220733   3.687   0.922   1.144  0.2032  0.2274  0.0514
 2972TP3      O20734   4.166   0.666   0.404  0.4752 -0.3340 -0.2893
 2972TP3     H120735   4.100   0.728   0.373  0.2799  0.2322  1.1570
 2972TP3     H220736   4.249   0.704   0.377  0.3628  0.6684  0.6966
 2973TP3      O20737   1.989   0.620   8.946 -0.1735  0.4716  0.1468
 2973TP3     H120738   1.946   0.635   9.030 -0.5178  1.3896 -0.1760
 2973TP3     H220739   2.047   0.696   8.935  0.4931 -0.0570 -0.0642
 2974TP3      O20740   4.154   2.724   8.529  0.2959  0.1274 -0.6323
 2974TP3     H120741   4.167   2.705   8.622 -0.4040  0.6221 -0.4232
 2974TP3     H220742   4.096   2.800   8.528  0.1276 -0.0010 -1.4772
 2975TP3      O20743   2.768   2.108   1.482  0.1914 -0.1253 -0.5622
 2975TP3     H120744   2.784   2.015   1.498  1.9084 -0.4344 -3.3673
 2975TP3     H220745   2.837   2.153   1.532 -0.1439 -0.3705  0.1440
 2976TP3      O20746   0.869   1.728   2.705  0.5323  0.2278 -0.3786
 2976TP3     H120747   0.950   1.743   2.754  0.4341 -1.4591  0.3712
 2976TP3     H220748   0.799   1.759   2.762  0.3999 -1.9495  0.7356
 2977TP3      O20749   4.134   0.251   1.651 -0.1217  0.1009  0.7461
 2977TP3     H120750   4.072   0.181   1.629  0.3245 -0.5077  1.3821
 2977TP3     H220751   4.118   0.269   1.744 -1.4776  2.1235  0.1700
 2978TP3      O20752   4.631   3.984   1.978  0.0138 -0.1155  0.1752
 2978TP3     H120753   4.571   4.041   2.026 -1.4361 -0.3113 -1.3289
 2978TP3     H220754   4.653   4.033   1.899 -1.5188 -1.6679 -1.3150
 2979TP3      O20755   1.527   2.656   1.456  0.5074 -0.9708  0.6582
 2979TP3     H120756   1.556   2.656   1.365  1.6206  0.8238  0.9872
 2979TP3     H220757   1.432   2.668   1.450  0.4509 -1.7041 -0.2581
 2980TP3      O20758   1.546   4.514   6.997  0.4040 -0.2138  0.4041
 2980TP3     H120759   1.500   4.430   7.000  0.3065 -0.1675  0.2214
 2980TP3     H220760   1.479   4.577   6.971  0.6741 -0.2184 -0.3153
 2981TP3      O20761   4.836   1.464   1.007 -0.1574 -0.7952  0.5102
 2981TP3     H120762   4.767   1.477   0.943 -0.0982  1.5535  0.8362
 2981TP3     H220763   4.816   1.379   1.047 -2.2342 -0.6693 -0.1373
 2982TP3      O20764   2.459   0.940   0.173  0.4213  0.0359  0.5961
 2982TP3     H120765   2.459   1.031   0.201 -0.8136  0.8667 -1.8038
 2982TP3     H220766   2.454   0.944   0.078  0.3381 -2.5505  0.4168
 2983TP3      O20767   3.090   2.522   0.138  0.2914  0.0022  0.4669
 2983TP3     H120768   3.108   2.518   0.232 -0.1407  0.1198  0.5545
 2983TP3     H220769   3.047   2.438   0.119 -0.2057  0.2429  0.5014
 2984TP3      O20770   2.980   4.870   7.514  0.0732  0.1958 -0.7027
 2984TP3     H120771   3.054   4.824   7.475 -1.3712 -2.1593 -0.8842
 2984TP3     H220772   2.906   4.848   7.457 -1.1396  0.7323  0.6126
 2985TP3      O20773   3.115   4.599   0.365 -0.1518 -0.1439 -0.1358
 2985TP3     H120774   3.196   4.605   0.315  1.2470  1.8670  2.0865
 2985TP3     H220775   3.073   4.685   0.353 -0.9407 -0.4556  0.2931
 2986TP3      O20776   1.102   4.557  10.003  0.2249  0.0188 -0.0268
 2986TP3     H120777   1.082   4.633  10.056  1.0746 -0.0317  0.3815
 2986TP3     H220778   1.016   4.525   9.974 -0.1435  1.0568 -0.1230
 2987TP3      O20779   4.020   4.506   0.377  0.3827  0.3318  0.0585
 2987TP3     H120780   3.996   4.472   0.291  0.5304 -2.9667  1.2019
 2987TP3     H220781   4.098   4.560   0.360  1.1681 -1.2567 -1.7571
 2988TP3      O20782   1.950   3.282   8.309 -0.2011 -0.4312 -0.3123
 2988TP3     H120783   1.875   3.224   8.314 -1.1247  0.6612 -1.0804
 2988TP3     H220784   1.921   3.355   8.254  0.9216  0.7499  0.5884
 2989TP3      O20785   3.756   0.408   0.604  0.1087 -0.1727  0.4766
 2989TP3     H120786   3.756   0.416   0.699  0.7829 -1.9348  0.6721
 2989TP3     H220787   3.843   0.375   0.583 -0.2954 -0.5610 -0.6751
 2990TP3      O20788   2.899   0.243  10.083  0.2857  0.0075  0.0274
 2990TP3     H120789   2.904   0.181  10.156  1.5491 -0.6578 -0.6076
 2990TP3     H220790   2.837   0.309  10.114  0.1913 -0.6661  1.3946
 2991TP3      O20791   2.180   3.907   1.000  0.2933  0.3155 -0.0741
 2991TP3     H120792   2.113   3.935   1.063 -0.7580  0.0818 -1.0754
 2991TP3     H220793   2.245   3.977   1.003  1.5506 -0.7720  3.0343
 2992TP3      O20794   1.414   3.288   7.788  0.5671  0.4120 -0.6091
 2992TP3     H120795   1.346   3.261   7.726 -0.9622 -1.6239  1.7675
 2992TP3     H220796   1.452   3.206   7.819  4.1877  1.4790 -1.7534
 2993TP3      O20797   0.091   0.429   8.137 -0.0173 -0.5506  0.1749
 2993TP3     H120798   0.004   0.467   8.122  0.0970 -0.6128 -0.6654
 2993TP3     H220799   0.096   0.421   8.232  0.2229  2.1429  0.4637
 2994TP3      O20800   1.121   3.864   1.186  0.2136  0.2653  0.7445
 2994TP3     H120801   1.202   3.816   1.204  1.0731  1.9121  1.5620
 2994TP3     H220802   1.100   3.906   1.269 -0.5580  1.1842  0.1049
 2995TP3      O20803   3.131   4.026   9.783 -0.2051  0.2607  0.5616
 2995TP3     H120804   3.046   4.068   9.799  0.2042  0.8553  1.2393
 2995TP3     H220805   3.141   3.964   9.855 -0.3371 -0.2615  0.1366
 2996TP3      O20806   2.707   3.684   7.852  0.0987  0.6411 -0.3034
 2996TP3     H120807   2.664   3.673   7.767  1.0081 -3.4292 -0.4111
 2996TP3     H220808   2.635   3.688   7.915 -0.6854 -3.1084 -0.7637
 2997TP3      O20809   0.793   3.366  10.125  0.6279  0.0589 -0.4742
 2997TP3     H120810   0.788   3.435  10.059  1.4502  0.6223  0.0296
 2997TP3     H220811   0.703   3.358  10.157  0.1011 -0.6332 -2.0390
 2998TP3      O20812   0.404   0.799   8.781  0.8344 -0.0686  0.0349
 2998TP3     H120813   0.416   0.745   8.860  0.2286 -0.7493 -0.3192
 2998TP3     H220814   0.314   0.831   8.788  1.2106  0.9708  0.2738
 2999TP3      O20815   2.105   4.565  10.227 -0.1188 -0.0518  0.5173
 2999TP3     H120816   2.118   4.652  10.266  0.2827 -0.0694  0.4255
 2999TP3     H220817   2.180   4.514  10.257 -0.0608 -0.2068  0.1212
 3000TP3      O20818   1.537   2.477   9.761 -0.0759  0.1588 -0.5066
 3000TP3     H120819   1.549   2.502   9.852 -0.3141 -0.1189 -0.3992
 3000TP3     H220820   1.444   2.490   9.744 -0.4228 -1.5641 -0.1644
 3001TP3      O20821   4.213   1.258   1.168 -0.2770  0.0853 -0.3323
 3001TP3     H120822   4.182   1.196   1.101 -2.0405  1.4983 -0.9086
 3001TP3     H220823   4.134   1.282   1.216  0.4471  1.4713  0.2214
 3002TP3      O20824   0.291   2.184  10.241  0.1568 -0.2763  0.4378
 3002TP3     H120825   0.385   2.184  10.222  0.0491  1.4467 -0.1884
 3002TP3     H220826   0.252   2.132  10.171  0.2211  2.5316 -1.8177
 3003TP3      O20827   3.807   0.121   1.295 -0.2866  0.1520 -1.1850
 3003TP3     H120828   3.757   0.077   1.226 -0.5146 -0.6667 -0.5158
 3003TP3     H220829   3.741   0.160   1.352 -0.3113 -2.3068  0.6121
 3004TP3      O20830   1.762   2.894   2.098 -0.0531  0.4913 -0.0044
 3004TP3     H120831   1.699   2.900   2.170 -2.9966  2.8281 -2.4789
 3004TP3     H220832   1.723   2.831   2.038  1.7862 -0.5726 -0.1276
 3005TP3      O20833   4.287   4.042   8.832  0.5199 -0.3527  0.1087
 3005TP3     H120834   4.195   4.022   8.815 -0.0628  1.4900  0.8723
 3005TP3     H220835   4.289   4.069   8.923  1.6765  0.4060 -0.1228
 3006TP3      O20836   0.080   3.535   8.968  0.6304  0.1138  0.0850
 3006TP3     H120837   0.010   3.503   9.025  0.4123  1.8927  0.9129
 3006TP3     H220838   0.154   3.476   8.985 -0.5012 -1.5338 -0.4758
 3007TP3      O20839   3.873   5.118   8.883  0.0890 -0.4736 -0.3937
 3007TP3     H120840   3.827   5.188   8.837 -0.5166 -2.0913 -2.3994
 3007TP3     H220841   3.959   5.114   8.842 -0.7358 -2.4734 -2.1469
 3008TP3      O20842   3.413   0.553   8.464  0.1786  0.5707 -0.1412
 3008TP3     H120843   3.422   0.537   8.370  1.8557  0.7981 -0.0566
 3008TP3     H220844   3.492   0.515   8.502 -0.3412  0.7352  1.1536
 3009TP3      O20845   3.270   2.918   0.926  0.5048 -0.5535 -0.1366
 3009TP3     H120846   3.293   2.827   0.911  2.7304 -0.0012 -0.4129
 3009TP3     H220847   3.342   2.952   0.980  1.3063  1.7723 -2.4934
 3010TP3      O20848   3.578   3.272   1.481 -0.3325 -0.5421 -0.4278
 3010TP3     H120849   3.584   3.176   1.477 -1.7326 -0.6408 -0.5509
 3010TP3     H220850   3.543   3.297   1.396 -1.8043 -0.1029  0.2794
 3011TP3      O20851   4.327   3.589   2.427  0.6025 -0.0994  0.9105
 3011TP3     H120852   4.332   3.684   2.423 -0.7265 -0.0326 -0.0654
 3011TP3     H220853   4.255   3.571   2.487  0.7275 -0.4801  0.9509
 3012TP3      O20854   4.186   0.801   2.116 -0.1491 -0.0222  0.0626
 3012TP3     H120855   4.143   0.829   2.035 -1.4320 -0.8570  0.4247
 3012TP3     H220856   4.162   0.868   2.180  1.1204  0.8045 -0.2927
 3013TP3      O20857   2.058   0.250   8.869 -0.2162 -0.1217  0.6904
 3013TP3     H120858   1.972   0.281   8.839 -0.6236 -0.9332  0.9813
 3013TP3     H220859   2.112   0.250   8.790 -0.5811  0.0637  0.4346
 3014TP3      O20860   1.205   4.689   9.411  0.0660  0.0556  0.1976
 3014TP3     H120861   1.252   4.773   9.415 -0.7552  0.5473 -0.2203
 3014TP3     H220862   1.268   4.625   9.445  0.7735  0.8086  0.3456
 3015TP3      O20863   4.325   1.791   2.007 -0.1057  0.4287  0.2197
 3015TP3     H120864   4.313   1.851   2.080 -3.2885 -1.2896  1.3099
 3015TP3     H220865   4.290   1.707   2.039  1.3538 -1.2393 -2.2132
 3016TP3      O20866   1.494   1.403   2.856 -0.0707  0.1073 -0.0905
 3016TP3     H120867   1.480   1.495   2.878  1.3267 -0.0064  1.5857
 3016TP3     H220868   1.540   1.368   2.932 -0.1206 -1.8620 -0.9135
 3017TP3      O20869   4.038   0.874   2.681  0.3258  0.2585 -0.1021
 3017TP3     H120870   4.115   0.900   2.631  1.5421 -0.2434  1.4541
 3017TP3     H220871   4.036   0.779   2.674 -0.9704  0.3372 -1.2510
 3018TP3      O20872   3.407   0.121   0.861  0.3345 -0.4319 -0.5327
 3018TP3     H120873   3.340   0.132   0.794 -0.3176 -1.1183 -0.0026
 3018TP3     H220874   3.488   0.105   0.812 -0.6193 -3.9370 -1.2251
 3019TP3      O20875   4.951   3.791   1.381 -0.5055  0.4141  0.4663
 3019TP3     H120876   4.960   3.851   1.307 -0.9252  0.0576  0.1271
 3019TP3     H220877   4.894   3.722   1.349  0.2375 -0.3408  0.7486
 3020TP3      O20878   4.141   0.216   6.686 -0.2575 -0.2621 -0.2488
 3020TP3     H120879   4.075   0.147   6.696 -0.0988 -0.2412  1.0484
 3020TP3     H220880   4.225   0.171   6.701 -0.0410 -0.0564 -0.7918
 3021TP3      O20881   4.281   3.868   2.179  1.1206 -1.0767 -0.0140
 3021TP3     H120882   4.368   3.866   2.220  1.2600 -0.6700 -0.2847
 3021TP3     H220883   4.222   3.839   2.249  1.3802 -0.5894  0.4228
 3022TP3      O20884   1.912   3.930  10.106 -0.0151 -0.3963  0.1101
 3022TP3     H120885   1.872   3.843  10.100 -1.8613  0.4389 -0.2244
 3022TP3     H220886   1.932   3.953  10.015  0.8536 -0.6179  0.2354
 3023TP3      O20887   4.185   1.833   9.440 -0.0499  0.1835 -0.2768
 3023TP3     H120888   4.226   1.746   9.438 -0.1406  0.0496  1.6612
 3023TP3     H220889   4.136   1.835   9.522  2.5837  3.1737  1.4778
 3024TP3      O20890   1.873   3.005   9.419  0.0227 -0.0710  0.1934
 3024TP3     H120891   1.904   2.976   9.505  0.1838  0.3211  0.2715
 3024TP3     H220892   1.780   2.983   9.419  0.1560 -0.6386  0.2247
 3025TP3      O20893   0.351   3.592   9.255  0.6032  0.0264  0.0079
 3025TP3     H120894   0.313   3.520   9.304  0.6435  0.0054  0.0078
 3025TP3     H220895   0.290   3.664   9.267  0.6523  0.0433  0.1501
 3026TP3      O20896   4.740   4.433   1.762 -0.5416 -0.0178 -0.2441
 3026TP3     H120897   4.796   4.509   1.778  0.6169 -1.1156  1.2324
 3026TP3     H220898   4.780   4.390   1.686 -0.8948  0.5505 -0.7613
 3027TP3      O20899   4.528   4.502   1.616  0.5095  0.4011 -0.1928
 3027TP3     H120900   4.593   4.468   1.678  0.0911  0.7298  0.4486
 3027TP3     H220901   4.537   4.447   1.539  2.0324  0.8672 -0.4007
 3028TP3      O20902   5.196   5.062   0.586  0.0852  0.0476  0.2666
 3028TP3     H120903   5.251   5.055   0.664  0.1297 -0.5318  0.1926
 3028TP3     H220904   5.184   4.971   0.558 -0.7142  0.1789  0.1502
 3029TP3      O20905   0.822   3.726   0.306 -0.4579  0.5637 -0.4488
 3029TP3     H120906   0.883   3.705   0.235 -0.7916  0.3935 -0.6878
 3029TP3     H220907   0.742   3.677   0.285 -0.3413  0.0073  0.3917
 3030TP3      O20908   0.234   3.368   9.831 -0.3015  0.1577 -0.2514
 3030TP3     H120909   0.234   3.451   9.784  1.3989  1.6489  2.1566
 3030TP3     H220910   0.143   3.354   9.855 -0.7566  0.7733 -1.5115
 3031TP3      O20911   3.114   3.076   1.609  0.0505  0.6766 -0.1250
 3031TP3     H120912   3.131   3.128   1.531 -0.7002  0.3219 -0.5327
 3031TP3     H220913   3.097   2.988   1.576  0.5894  0.3251  0.5037
 3032TP3      O20914   2.425   1.856   8.717 -0.5627 -0.0701 -0.2017
 3032TP3     H120915   2.408   1.762   8.720 -2.0323  0.1989  1.0914
 3032TP3     H220916   2.495   1.869   8.781 -1.8122 -0.0446  1.2041
 3033TP3      O20917   3.628   1.256   0.013 -0.7896  0.3227  0.5383
 3033TP3     H120918   3.595   1.339  -0.022  0.0533  0.5458  0.2722
 3033TP3     H220919   3.556   1.194  -0.003 -0.0886  0.1560 -2.5355
 3034TP3      O20920   0.010   2.998   1.073  0.3457 -0.4829 -0.2068
 3034TP3     H120921  -0.021   3.024   1.160  0.1045  1.1505 -0.7378
 3034TP3     H220922   0.101   3.026   1.071  0.2837 -0.2971 -0.5472
 3035TP3      O20923   1.556   3.312   9.485 -0.3553 -0.1261 -0.0750
 3035TP3     H120924   1.490   3.257   9.444 -0.3985 -1.0082  1.1256
 3035TP3     H220925   1.621   3.250   9.520  0.6931  0.6807 -0.5334
 3036TP3      O20926   2.758   5.076   7.865 -0.3454 -0.2120  0.2862
 3036TP3     H120927   2.751   4.983   7.888 -1.4682 -0.1847  0.1053
 3036TP3     H220928   2.672   5.098   7.829 -0.2852  1.0586  0.8802
 3037TP3      O20929   4.926   3.761   7.862 -0.2812  0.2772  0.4967
 3037TP3     H120930   4.996   3.799   7.915  0.5321 -0.2857 -0.1461
 3037TP3     H220931   4.970   3.697   7.806 -1.6243 -1.9820  1.8579
 3038TP3      O20932   1.016   1.121   2.465 -0.1079  0.6644  0.4219
 3038TP3     H120933   1.112   1.118   2.465 -0.1150 -1.1305  1.8178
 3038TP3     H220934   0.991   1.102   2.555 -1.7778 -1.5113 -0.3954
 3039TP3      O20935   4.670   2.370   2.517 -0.3526 -0.1216  0.2341
 3039TP3     H120936   4.706   2.327   2.595 -1.9350  0.5544  1.3718
 3039TP3     H220937   4.593   2.318   2.494  0.9617 -1.2833 -1.9159
 3040TP3      O20938   0.683   3.800   0.735  0.2677 -0.4839  0.1094
 3040TP3     H120939   0.713   3.890   0.729  0.7755 -0.6016  0.7842
 3040TP3     H220940   0.623   3.790   0.661 -0.7297  0.7538  0.7076
 3041TP3      O20941   1.242   2.314  10.289  0.1360  0.2257 -0.0548
 3041TP3     H120942   1.226   2.241  10.348 -0.9265 -1.2241 -2.0334
 3041TP3     H220943   1.335   2.308  10.268 -0.1883 -1.3772 -1.1718
 3042TP3      O20944   1.008   2.241   1.918  0.3381 -0.1332 -0.2327
 3042TP3     H120945   0.947   2.246   1.844  0.5055 -0.3269 -0.3803
 3042TP3     H220946   1.092   2.220   1.880  0.8161  1.5144 -0.1968
 3043TP3      O20947   1.650   5.167   9.085  0.6312  0.4781 -0.0797
 3043TP3     H120948   1.656   5.075   9.057 -0.2825  1.0919 -2.5318
 3043TP3     H220949   1.733   5.206   9.059  0.2619  0.7664 -0.8644
 3044TP3      O20950   3.371   4.464   2.787 -0.1349  0.0662 -0.0650
 3044TP3     H120951   3.436   4.497   2.725 -0.0781 -1.8273 -1.0888
 3044TP3     H220952   3.288   4.467   2.739 -0.3319 -0.1304  0.2585
 3045TP3      O20953   3.887   0.433   6.794 -0.0728 -0.0547 -0.3451
 3045TP3     H120954   3.793   0.414   6.800 -0.0500  0.1929  1.5547
 3045TP3     H220955   3.916   0.438   6.886  1.8108 -0.1852 -0.8947
 3046TP3      O20956   3.751   4.236   9.023 -0.0322 -0.0821  0.4472
 3046TP3     H120957   3.716   4.320   9.052 -1.5812 -0.9325  1.2030
 3046TP3     H220958   3.677   4.175   9.031  1.1516 -1.6158  0.3485
 3047TP3      O20959   2.079   5.206   0.656  0.1007  0.0589  0.0967
 3047TP3     H120960   2.049   5.269   0.722  1.4233 -1.4239  2.2417
 3047TP3     H220961   2.124   5.138   0.706  1.5292 -0.9782 -2.4010
 3048TP3      O20962   2.620   4.102   2.584 -0.2552  0.2346 -0.0644
 3048TP3     H120963   2.556   4.167   2.552  2.3045  2.3566 -1.3261
 3048TP3     H220964   2.659   4.066   2.504  0.4135 -0.7109  0.6615
 3049TP3      O20965   0.811   0.947   9.792 -0.2487 -0.0073 -0.6236
 3049TP3     H120966   0.755   0.919   9.864 -0.5878 -0.1465 -0.9346
 3049TP3     H220967   0.884   0.886   9.793  0.1063  0.4189  0.0338
 3050TP3      O20968   3.477   0.470   8.215 -0.0039  0.4630  0.2220
 3050TP3     H120969   3.514   0.396   8.168  1.8694  0.5031  1.4989
 3050TP3     H220970   3.518   0.547   8.176 -1.3089  0.7977 -0.5448
 3051TP3      O20971   2.525   2.367   0.057  0.3018  0.2673  0.4497
 3051TP3     H120972   2.431   2.380   0.059 -0.1268 -1.7089 -1.9378
 3051TP3     H220973   2.542   2.304   0.127 -0.3372 -0.1495  0.2414
 3052TP3      O20974   4.797   5.103   1.980  0.0171  0.1861  0.7877
 3052TP3     H120975   4.749   5.153   2.045  0.3847  0.3713  0.9164
 3052TP3     H220976   4.843   5.035   2.030  1.1748  0.9948  0.8629
 3053TP3      O20977   2.028   2.608   9.284 -0.7654 -0.8129 -0.5409
 3053TP3     H120978   2.059   2.523   9.316 -1.6001 -0.4956  1.2105
 3053TP3     H220979   1.933   2.599   9.281 -1.1250  0.8699  2.3628
 3054TP3      O20980   0.423   2.837   2.101  0.7307 -0.1049  0.4825
 3054TP3     H120981   0.354   2.899   2.125 -0.3469 -1.3292  0.6340
 3054TP3     H220982   0.419   2.769   2.169  0.1491 -1.6672 -1.0551
 3055TP3      O20983   1.924   3.554   8.159  0.0128  0.2313  0.2702
 3055TP3     H120984   1.906   3.639   8.200 -1.3268 -0.4693  1.1665
 3055TP3     H220985   1.857   3.545   8.091  0.1139 -0.1418  0.2168
 3056TP3      O20986   2.510   3.713   9.241 -0.1759 -0.2086  0.2211
 3056TP3     H120987   2.444   3.782   9.254 -0.6000 -0.6384  0.3633
 3056TP3     H220988   2.485   3.672   9.158  0.4429  0.2133 -0.1763
 3057TP3      O20989   4.708   2.733   1.215 -0.2429  0.0720  0.1089
 3057TP3     H120990   4.703   2.643   1.247  1.1295  0.3381  1.1633
 3057TP3     H220991   4.674   2.728   1.126  0.2406 -1.5900 -0.0268
 3058TP3      O20992   0.790   2.065   6.902 -0.0458  0.3278  0.0825
 3058TP3     H120993   0.850   2.124   6.948  0.1726 -0.8269  1.3498
 3058TP3     H220994   0.719   2.050   6.964 -0.5815  0.0197 -0.5940
 3059TP3      O20995   3.882   0.675   1.367  0.5447  0.0096  0.1793
 3059TP3     H120996   3.948   0.719   1.314  0.7345 -0.3445  0.1141
 3059TP3     H220997   3.861   0.596   1.317 -1.0417  0.8463 -0.5669
 3060TP3      O20998   2.823   0.694   7.825  0.6644  0.2907 -0.3734
 3060TP3     H120999   2.904   0.673   7.778  0.3304 -0.0320 -0.8037
 3060TP3     H221000   2.771   0.743   7.762  0.5040  0.4595 -0.1098
 3061TP3      O21001   0.780   5.075   7.970  0.1691 -0.0677 -0.0507
 3061TP3     H121002   0.757   5.126   7.892  0.2548 -0.3800 -0.2828
 3061TP3     H221003   0.730   4.994   7.962  2.1064 -1.2464 -1.1278
 3062TP3      O21004   0.105   1.247   2.413 -0.1576 -0.2900  0.0016
 3062TP3     H121005   0.055   1.166   2.402  0.6107 -0.6293 -1.1291
 3062TP3     H221006   0.110   1.284   2.325 -2.7037  2.3667  0.8351
 3063TP3      O21007   1.295   2.130   2.205 -0.5689 -0.2885 -0.1688
 3063TP3     H121008   1.306   2.083   2.288  0.6118 -1.0801 -0.7377
 3063TP3     H221009   1.288   2.222   2.230 -0.3540 -0.5235  0.8184
 3064TP3      O21010   1.556   0.947  10.328 -0.4756  0.2356  0.0028
 3064TP3     H121011   1.629   0.994  10.289  1.5314 -2.3948  0.2732
 3064TP3     H221012   1.540   0.992  10.411  1.0071  0.7583  0.0381
 3065TP3      O21013   2.451   4.001  10.140  0.2113  0.0687 -0.3512
 3065TP3     H121014   2.515   4.036  10.078  0.6561  1.8926  1.0602
 3065TP3     H221015   2.407   4.078  10.176 -0.6008 -0.9808  1.0162
 3066TP3      O21016   1.736   0.503   0.841  0.2427  0.4305 -0.0775
 3066TP3     H121017   1.644   0.486   0.821  0.3479  1.4613 -1.6188
 3066TP3     H221018   1.743   0.493   0.936 -0.7881 -2.6168 -0.2278
 3067TP3      O21019   1.077   3.154   1.044  0.2337 -0.0104 -0.1021
 3067TP3     H121020   1.048   3.064   1.031  0.2365  0.1373 -1.1963
 3067TP3     H221021   0.999   3.207   1.028  0.5573  0.2546 -0.8825
 3068TP3      O21022   1.240   0.868   3.612 -0.1182  0.0369  0.0078
 3068TP3     H121023   1.335   0.860   3.624  0.0252  2.0753  0.5514
 3068TP3     H221024   1.212   0.780   3.587  1.9146 -0.6031 -0.2103
 3069TP3      O21025   1.707   2.491   9.262  0.0102 -0.3336 -1.0851
 3069TP3     H121026   1.724   2.401   9.235 -0.7295 -0.6548 -0.5177
 3069TP3     H221027   1.662   2.483   9.346  0.0126  0.5711 -0.9856
 3070TP3      O21028   1.377   1.367  10.186 -0.6854 -0.5030  0.0406
 3070TP3     H121029   1.287   1.385  10.158 -0.3619  1.0875 -0.0793
 3070TP3     H221030   1.422   1.338  10.107 -0.9256 -0.6481 -0.0431
 3071TP3      O21031   3.475   3.283   9.102 -0.4831  0.1620  0.0646
 3071TP3     H121032   3.442   3.246   9.020 -1.3744  0.3827  0.3069
 3071TP3     H221033   3.524   3.211   9.142  0.0047  0.0717 -0.6829
 3072TP3      O21034   3.129   2.318   7.604 -0.0875  0.1731  0.2726
 3072TP3     H121035   3.217   2.317   7.642  0.5323 -0.2865 -1.1252
 3072TP3     H221036   3.108   2.412   7.595 -0.3556  0.2971  1.9218
 3073TP3      O21037   1.833   0.240   0.765 -0.0671 -0.5754  0.2041
 3073TP3     H121038   1.804   0.331   0.769  0.7341 -0.2981 -0.1532
 3073TP3     H221039   1.911   0.237   0.821 -0.5672 -1.2326  0.8863
 3074TP3      O21040   3.177   1.947   0.551 -0.2344 -0.3530 -0.3039
 3074TP3     H121041   3.202   1.857   0.570 -0.4952 -0.6645 -1.3554
 3074TP3     H221042   3.189   1.955   0.456 -0.0731  0.7651 -0.1987
 3075TP3      O21043   0.350   3.333   0.629  0.2313 -0.3932  0.4460
 3075TP3     H121044   0.365   3.422   0.660 -0.8326 -0.7881  2.2096
 3075TP3     H221045   0.258   3.332   0.601  0.0314 -1.0999  1.0945
 3076TP3      O21046   1.515   2.998   1.521 -0.7081 -0.4493 -0.3926
 3076TP3     H121047   1.423   2.981   1.540 -0.8260 -0.1270 -0.6469
 3076TP3     H221048   1.545   3.054   1.593 -1.0595  0.4858 -0.9494
 3077TP3      O21049   3.114   0.924   9.616  0.0560  0.1732  0.1520
 3077TP3     H121050   3.143   0.975   9.691  0.0881  0.4034 -0.0184
 3077TP3     H221051   3.187   0.927   9.554  1.1144 -2.1744  1.1602
 3078TP3      O21052   1.784   4.775   1.165 -0.3952  0.0943  0.1470
 3078TP3     H121053   1.860   4.727   1.134 -0.5959 -0.4767  0.5217
 3078TP3     H221054   1.716   4.709   1.175 -0.0008 -0.0108  2.9893
 3079TP3      O21055   1.450   2.607   0.571  0.2581  0.1379  0.4338
 3079TP3     H121056   1.526   2.557   0.540 -0.7769 -1.4673  0.3490
 3079TP3     H221057   1.435   2.575   0.660 -0.8876 -0.2979  0.0998
 3080TP3      O21058   1.659   3.499   0.492 -0.1353 -0.3446 -0.2075
 3080TP3     H121059   1.580   3.460   0.454 -1.1118  0.1852  1.1810
 3080TP3     H221060   1.700   3.546   0.420 -0.6356 -1.2970 -1.1535
 3081TP3      O21061   3.320   2.406   8.641  0.3873  0.5170 -0.0512
 3081TP3     H121062   3.261   2.392   8.567  1.5348  1.5866 -1.2207
 3081TP3     H221063   3.315   2.325   8.691 -0.8755 -0.0036 -0.9732
 3082TP3      O21064   1.071   3.950   3.066 -0.0305  0.2761  0.0822
 3082TP3     H121065   1.146   3.984   3.114 -0.4596  0.6404  0.5051
 3082TP3     H221066   1.001   3.946   3.130 -1.0781  2.3362 -0.8427
 3083TP3      O21067   2.510   4.605   9.377 -0.4039  0.1080 -0.3451
 3083TP3     H121068   2.449   4.679   9.368 -0.7286  0.2141  2.0763
 3083TP3     H221069   2.594   4.646   9.397 -0.0927 -0.1267 -1.1481
 3084TP3      O21070   3.820   0.153   3.426 -0.0525 -0.0319 -0.2489
 3084TP3     H121071   3.849   0.063   3.437 -1.6409 -0.2218  4.2837
 3084TP3     H221072   3.727   0.145   3.402 -0.0710  0.4373 -0.3513
 3085TP3      O21073   3.074   4.437   9.941  0.5684  0.7545  0.1617
 3085TP3     H121074   3.160   4.396   9.927  0.1379 -0.2017  0.2569
 3085TP3     H221075   3.012   4.365   9.933 -0.2076  1.3956  0.3633
 3086TP3      O21076   3.141   2.867   8.714 -0.3904  0.1139 -0.2975
 3086TP3     H121077   3.070   2.895   8.771  2.0063  1.1807  2.3901
 3086TP3     H221078   3.134   2.772   8.711 -2.3866  0.2468 -0.8191
 3087TP3      O21079   4.256   4.962   8.620  0.4621  0.3872  0.3791
 3087TP3     H121080   4.249   4.867   8.634 -1.9194  0.0985 -2.1574
 3087TP3     H221081   4.172   4.997   8.649  0.7843  1.5607 -0.0629
 3088TP3      O21082   1.948   4.004   7.795 -0.4858  0.0598  0.6389
 3088TP3     H121083   1.889   4.029   7.866 -0.2738  1.4705  0.3655
 3088TP3     H221084   1.931   4.069   7.726  0.5829 -0.1776  0.1191
 3089TP3      O21085   4.735   0.219   9.777 -0.4296  0.3779 -0.3880
 3089TP3     H121086   4.803   0.182   9.833 -0.5621  0.5027 -0.1371
 3089TP3     H221087   4.731   0.312   9.803 -2.4198 -0.1143  1.4484
 3090TP3      O21088   0.533   5.128   2.445  0.5914  0.3931 -0.0100
 3090TP3     H121089   0.441   5.147   2.462  0.3880 -1.0551  0.6026
 3090TP3     H221090   0.545   5.149   2.352 -0.5799 -0.2212 -0.3161
 3091TP3      O21091   2.857   3.544   1.229 -0.3895  0.1950 -0.4934
 3091TP3     H121092   2.787   3.533   1.293  0.2385 -1.8074 -0.0881
 3091TP3     H221093   2.872   3.639   1.226 -2.5719  0.6194 -0.0514
 3092TP3      O21094   3.657   3.254   7.481 -0.0828 -0.4267 -0.0464
 3092TP3     H121095   3.721   3.300   7.535  1.3565  0.0708 -2.0824
 3092TP3     H221096   3.707   3.186   7.436 -1.1596 -0.6037 -1.0233
 3093TP3      O21097   4.896   0.646   9.865  0.1671 -0.2542  0.1110
 3093TP3     H121098   4.900   0.646   9.770  1.0712 -0.1315  0.1419
 3093TP3     H221099   4.912   0.555   9.890  0.1937 -0.2374  0.1551
 3094TP3      O21100   3.746   1.156   6.594  0.3358  0.2127 -0.3195
 3094TP3     H121101   3.782   1.077   6.554  2.0659 -0.0987  1.6953
 3094TP3     H221102   3.664   1.127   6.635  0.9072 -0.5179  0.3189
 3095TP3      O21103   4.793   1.581   0.701  0.1222 -0.3271  0.2456
 3095TP3     H121104   4.706   1.567   0.738 -0.0219 -0.0252  0.0215
 3095TP3     H221105   4.824   1.493   0.680  0.7767 -0.6656  2.3572
 3096TP3      O21106   1.763   0.863   7.683 -0.0549  0.0192  0.3828
 3096TP3     H121107   1.792   0.776   7.655 -1.0370 -0.1848 -0.0240
 3096TP3     H221108   1.823   0.886   7.755  1.6360 -0.0287 -0.9455
 3097TP3      O21109   1.604   0.684   2.847 -0.3023  0.6229 -0.1847
 3097TP3     H121110   1.683   0.663   2.798 -0.0364  0.7313  0.1888
 3097TP3     H221111   1.548   0.730   2.785 -0.8149 -1.0004 -0.9694
 3098TP3      O21112   0.991   3.605   0.527  0.2566  0.1915  0.4438
 3098TP3     H121113   0.934   3.632   0.600  0.7678  2.9980 -0.0717
 3098TP3     H221114   0.944   3.633   0.449  0.9708 -0.2605 -0.1586
 3099TP3      O21115   1.180   3.721   1.892 -0.6156 -0.1354  0.4503
 3099TP3     H121116   1.107   3.680   1.846 -0.1290 -0.8598  0.3099
 3099TP3     H221117   1.162   3.814   1.887 -0.8774 -0.2373 -0.6846
 3100TP3      O21118   4.695   4.898   8.682 -0.6164 -0.1970 -0.2146
 3100TP3     H121119   4.687   4.861   8.594 -1.1632 -0.0901 -0.2143
 3100TP3     H221120   4.712   4.991   8.667 -3.1563  0.3364 -0.2377
 3101TP3      O21121   3.942   3.317   2.757 -0.0143  0.0213  0.4559
 3101TP3     H121122   3.899   3.293   2.675  0.1196 -0.3558  0.4971
 3101TP3     H221123   3.878   3.372   2.802  0.0394  0.5031 -0.0489
 3102TP3      O21124   4.793   1.570   3.158 -0.4809  0.6049  0.5302
 3102TP3     H121125   4.700   1.562   3.136 -0.6154  0.4235  1.1595
 3102TP3     H221126   4.795   1.584   3.252  0.1139  1.0925  0.4534
 3103TP3      O21127   1.755   3.633   2.563  0.4128 -0.1593 -0.1705
 3103TP3     H121128   1.740   3.714   2.611  1.7182  0.8585 -1.4197
 3103TP3     H221129   1.759   3.565   2.631 -1.5520  0.6468  0.8329
 3104TP3      O21130   3.607   1.825   7.531 -0.0873  0.2575  0.2618
 3104TP3     H121131   3.625   1.768   7.457  0.8338 -0.0407  0.6953
 3104TP3     H221132   3.556   1.897   7.494 -0.2025 -0.2129 -0.5255
 3105TP3      O21133   0.631   3.560   9.380 -0.4672 -0.1447  0.0723
 3105TP3     H121134   0.705   3.570   9.320  0.4411 -0.3664  1.1187
 3105TP3     H221135   0.555   3.588   9.330  0.3453  0.1927 -0.9964
 3106TP3      O21136   2.569   4.180   7.883  0.7609  0.3068 -0.0420
 3106TP3     H121137   2.536   4.265   7.913  0.4838 -0.3777  1.6685
 3106TP3     H221138   2.496   4.120   7.897  1.3155 -0.4258 -0.2548
 3107TP3      O21139   2.088   2.060   9.148  0.2977  0.1958 -0.0868
 3107TP3     H121140   2.134   2.032   9.069  1.1459 -0.7882  0.7240
 3107TP3     H221141   2.048   1.979   9.182 -1.1914  0.8480 -0.2186
 3108TP3      O21142   2.690   0.835   2.554  0.6181 -0.4523 -0.2818
 3108TP3     H121143   2.695   0.795   2.468  0.0468 -1.1070 -0.0192
 3108TP3     H221144   2.613   0.891   2.551 -1.1627 -2.6953  0.6730
 3109TP3      O21145   0.026   2.723   0.980 -0.3702  0.1012  0.2152
 3109TP3     H121146   0.025   2.815   1.006  0.5260  0.1727  0.0498
 3109TP3     H221147  -0.038   2.681   1.037  0.0127  0.6314  1.0610
 3110TP3      O21148   0.717   3.859   8.132 -0.2899  0.1106 -0.4101
 3110TP3     H121149   0.637   3.903   8.102  1.3314  2.3242 -1.8261
 3110TP3     H221150   0.725   3.885   8.224 -1.6703 -0.9819  0.0620
 3111TP3      O21151   4.466   3.526   1.891 -0.2766 -0.0293  0.2524
 3111TP3     H121152   4.498   3.589   1.827 -2.6630 -0.4977 -1.5395
 3111TP3     H221153   4.395   3.572   1.936  0.3549 -0.2534  1.5452
 3112TP3      O21154   1.225   4.276   9.889  0.5065  0.4051 -0.2797
 3112TP3     H121155   1.151   4.320   9.931  1.2320  0.3248  1.1600
 3112TP3     H221156   1.278   4.347   9.852 -0.1952  0.4699 -1.2023
 3113TP3      O21157   3.930   1.859   0.352  0.4352 -0.1741 -0.6132
 3113TP3     H121158   3.851   1.854   0.297 -1.1079  0.2848  1.4514
 3113TP3     H221159   3.914   1.798   0.423  0.3606  2.3630  1.6987
 3114TP3      O21160   2.975   0.944   2.164 -0.5612  0.1090 -0.2523
 3114TP3     H121161   2.966   0.849   2.164  0.2503  0.0265 -0.6271
 3114TP3     H221162   3.022   0.964   2.083  0.3580  0.7180  0.4131
 3115TP3      O21163   2.171   4.988   0.205  0.0356  0.2310  0.0230
 3115TP3     H121164   2.110   4.921   0.176 -0.6561  0.4173  0.9939
 3115TP3     H221165   2.132   5.024   0.285  0.4168  1.7461 -0.4355
 3116TP3      O21166   4.159   5.029   1.809 -0.6727  0.1732  0.0087
 3116TP3     H121167   4.156   5.076   1.725  1.2722  2.1211  0.9190
 3116TP3     H221168   4.247   4.992   1.812 -0.7266  0.1190  1.1895
 3117TP3      O21169   1.381   5.211   1.459 -0.4592  0.1571 -0.3791
 3117TP3     H121170   1.298   5.183   1.420 -0.7077 -0.0623  0.2790
 3117TP3     H221171   1.355   5.270   1.530  0.0022  0.9534 -0.8541
 3118TP3      O21172   2.540   0.945   1.831 -0.0652  0.0161 -0.1968
 3118TP3     H121173   2.479   0.930   1.759  1.2025 -2.3084 -0.9169
 3118TP3     H221174   2.523   0.873   1.891  1.4395 -0.2778 -0.0796
 3119TP3      O21175   3.127   2.178   9.330 -0.2542 -0.4491  0.5137
 3119TP3     H121176   3.102   2.100   9.380 -1.4199 -0.6474 -0.3494
 3119TP3     H221177   3.174   2.143   9.254  0.1967 -0.2350  0.6887
 3120TP3      O21178   2.440   1.423   9.938  0.1006  0.1371 -0.2915
 3120TP3     H121179   2.467   1.449  10.026  0.7537  0.4506 -0.5751
 3120TP3     H221180   2.522   1.403   9.893 -0.0936  1.4264 -1.2782
 3121TP3      O21181   5.107   2.921   9.129  0.2734  0.3930  0.0266
 3121TP3     H121182   5.184   2.865   9.130  0.0596  0.0972  0.5478
 3121TP3     H221183   5.035   2.862   9.107  0.0400  0.4481  0.6205
 3122TP3      O21184   2.940   2.320   1.635 -0.2581  0.3028 -0.1363
 3122TP3     H121185   3.004   2.325   1.706 -0.7717  2.2657  0.2313
 3122TP3     H221186   2.984   2.359   1.560  0.0218 -1.1103 -0.7364
 3123TP3      O21187   4.567   3.362   7.489  0.0468  0.5681  0.1676
 3123TP3     H121188   4.616   3.424   7.435 -0.0455  0.2495 -0.2825
 3123TP3     H221189   4.500   3.327   7.430 -0.2838  0.4888  0.5895
 3124TP3      O21190   2.464   1.886   9.206 -0.5375  0.2773 -0.0568
 3124TP3     H121191   2.511   1.812   9.168 -0.1771  0.2310  0.4628
 3124TP3     H221192   2.534   1.944   9.238 -0.7897  1.2131 -1.1237
 3125TP3      O21193   1.477   3.022   7.864  0.0358 -0.4033  0.2693
 3125TP3     H121194   1.457   2.932   7.838 -2.5186  0.1656 -0.0583
 3125TP3     H221195   1.455   3.025   7.957  1.4481 -0.4226  0.6265
 3126TP3      O21196   4.365   0.228   1.506 -0.4675 -0.2976  0.6001
 3126TP3     H121197   4.286   0.227   1.561  0.1953  1.3691  1.6897
 3126TP3     H221198   4.437   0.211   1.567  0.1197 -0.4667 -0.1278
 3127TP3      O21199   0.610   1.393  10.018  0.8899 -0.3272  0.0451
 3127TP3     H121200   0.636   1.452   9.947 -0.2782  1.6754  1.1825
 3127TP3     H221201   0.541   1.441  10.065  1.3277 -1.7187  2.2845
 3128TP3      O21202   0.100   0.308   7.904 -0.4225 -0.2183 -0.1942
 3128TP3     H121203   0.188   0.333   7.874 -1.0044  0.7408 -1.1706
 3128TP3     H221204   0.087   0.359   7.984 -0.8829  1.2718 -1.1829
 3129TP3      O21205   3.941   2.036  10.105  0.1243  0.3247  0.4725
 3129TP3     H121206   3.873   2.067  10.046  0.1710  1.3860  0.9486
 3129TP3     H221207   3.910   1.951  10.136 -1.5200  1.2484  1.5027
 3130TP3      O21208   4.560   5.081   9.366 -0.4662 -0.4120 -0.1953
 3130TP3     H121209   4.465   5.082   9.352 -0.6129  0.1995  0.7893
 3130TP3     H221210   4.572   5.101   9.459  0.6315 -0.5020 -0.2961
 3131TP3      O21211   3.093   2.338   2.089  0.5011  0.2998  0.0713
 3131TP3     H121212   3.044   2.314   2.168  0.1693 -0.7589 -0.4409
 3131TP3     H221213   3.074   2.431   2.077  0.4489  0.4465  1.1530
 3132TP3      O21214   4.361   1.083   8.644  0.0953 -0.5221  0.0634
 3132TP3     H121215   4.359   1.052   8.553  0.4560  1.8097 -0.8255
 3132TP3     H221216   4.272   1.116   8.659  0.8936  2.3185 -0.7712
 3133TP3      O21217   4.441   2.436   8.350  0.2823  0.2577 -0.3798
 3133TP3     H121218   4.370   2.397   8.299 -1.1675 -1.1561  2.4610
 3133TP3     H221219   4.417   2.528   8.358 -0.2049  0.1980 -1.0417
 3134TP3      O21220   4.171   2.626   1.331  0.1357  0.1236  0.3306
 3134TP3     H121221   4.234   2.671   1.387  0.7964  0.7674 -0.8713
 3134TP3     H221222   4.177   2.534   1.356  0.6074  0.3631  1.1137
 3135TP3      O21223   4.897   2.577   8.832 -0.0878 -0.2100  0.1807
 3135TP3     H121224   4.858   2.598   8.747  0.0170  0.3113  0.2632
 3135TP3     H221225   4.897   2.481   8.835 -0.8673 -0.2231 -0.0473
 3136TP3      O21226   0.900   3.918   0.529  0.1256  0.1873  0.4909
 3136TP3     H121227   0.881   3.849   0.465  0.7252  0.7184 -0.2765
 3136TP3     H221228   0.842   3.990   0.504  1.3522  0.9230 -0.3717
 3137TP3      O21229   0.075   2.944   9.402 -0.8980  0.1467 -0.1164
 3137TP3     H121230   0.118   2.858   9.401  0.7547  0.8427  2.4801
 3137TP3     H221231  -0.015   2.926   9.375 -1.0785 -2.7166  2.0324
 3138TP3      O21232   2.006   2.950   2.224  0.5474  0.1954 -0.4571
 3138TP3     H121233   1.936   2.903   2.179  1.7772  0.2821 -2.5553
 3138TP3     H221234   2.069   2.882   2.248  0.7329  0.3727 -0.4376
 3139TP3      O21235   0.250   4.756   1.935  0.0863 -0.1140  0.5913
 3139TP3     H121236   0.155   4.751   1.942  0.0603  0.2196  0.4736
 3139TP3     H221237   0.282   4.699   2.005 -0.1945  0.1233  0.9105
 3140TP3      O21238   4.343   0.231   2.126  0.4156 -0.0049 -0.2359
 3140TP3     H121239   4.324   0.221   2.219  1.1578 -1.3538 -0.2025
 3140TP3     H221240   4.402   0.306   2.121  1.0899 -0.4813  0.4897
 3141TP3      O21241   0.355   3.914   0.989  0.1322  0.4533 -0.0767
 3141TP3     H121242   0.356   3.996   1.039  1.3170  0.9682 -0.8972
 3141TP3     H221243   0.407   3.853   1.042  1.4645  1.0250 -0.6774
 3142TP3      O21244   4.442   4.222   0.001 -0.5023 -0.2124  0.5954
 3142TP3     H121245   4.381   4.249   0.069 -0.3573 -2.4084  1.6826
 3142TP3     H221246   4.395   4.237  -0.081 -1.9044 -0.3852  1.3317
 3143TP3      O21247   2.463   5.133   9.421 -0.8681  0.4270 -1.3203
 3143TP3     H121248   2.404   5.208   9.428 -1.3108 -0.0666  0.7450
 3143TP3     H221249   2.405   5.056   9.426 -0.0837 -0.0962  2.1043
 3144TP3      O21250   4.631   1.035   1.247 -0.3545 -0.9293  0.6997
 3144TP3     H121251   4.671   1.079   1.322  0.3736  0.0669 -0.2494
 3144TP3     H221252   4.541   1.018   1.274  0.4170 -2.4468  2.5662
 3145TP3      O21253   1.517   1.239   9.733  0.1954  0.3319 -0.4010
 3145TP3     H121254   1.580   1.185   9.686 -0.0012  1.2762 -1.8314
 3145TP3     H221255   1.456   1.268   9.665 -0.3451  1.4213  0.5209
 3146TP3      O21256   0.601   1.383   9.008 -0.5215  0.3388  0.2590
 3146TP3     H121257   0.544   1.423   9.074 -0.8579 -1.0863  0.8915
 3146TP3     H221258   0.649   1.315   9.057  0.8768  0.7348 -0.5116
 3147TP3      O21259   0.043   1.836   0.571 -0.4278  0.2353 -0.4927
 3147TP3     H121260  -0.034   1.784   0.595 -0.2127  0.3993  0.5814
 3147TP3     H221261   0.085   1.857   0.654  0.7709  0.1762 -1.0585
 3148TP3      O21262   5.030   2.466   8.241 -0.0171 -0.9249 -0.5172
 3148TP3     H121263   5.010   2.544   8.293  0.2804 -0.1628 -1.5351
 3148TP3     H221264   4.945   2.439   8.205  0.0547 -0.4102 -1.0760
 3149TP3      O21265   1.140   3.415   0.275  0.4020  0.1495  0.1255
 3149TP3     H121266   1.053   3.418   0.236 -0.8607 -1.6549  2.4977
 3149TP3     H221267   1.134   3.474   0.350  1.6948  1.0620 -0.4676
 3150TP3      O21268   5.172   0.652   9.720 -0.1200  0.0505  0.3799
 3150TP3     H121269   5.177   0.744   9.694  0.4572 -0.7571 -2.8845
 3150TP3     H221270   5.086   0.623   9.689  0.4439 -0.9189 -0.3542
 3151TP3      O21271   0.477   1.021   0.365  0.3213  0.3872  0.2660
 3151TP3     H121272   0.493   0.939   0.411  0.7193  0.8780  1.0084
 3151TP3     H221273   0.471   1.087   0.433 -3.5032  0.5214  0.0099
 3152TP3      O21274   3.255   4.359   8.522 -0.2891 -0.8967 -0.5090
 3152TP3     H121275   3.176   4.307   8.533 -0.0212 -1.2480 -0.2183
 3152TP3     H221276   3.235   4.442   8.567 -0.8358 -0.6155 -1.2596
 3153TP3      O21277   1.985   3.860   7.433 -0.0818 -0.1748 -0.3740
 3153TP3     H121278   2.035   3.918   7.375  1.1103 -0.1400  0.6478
 3153TP3     H221279   2.045   3.788   7.451 -1.2376 -1.3188 -0.9316
 3154TP3      O21280   2.660   3.684   8.307  0.4404  0.5958 -0.3423
 3154TP3     H121281   2.750   3.663   8.333  0.5697 -0.1935 -1.3163
 3154TP3     H221282   2.667   3.770   8.265  0.6920  0.6787 -0.1331
 3155TP3      O21283   3.392   3.790   8.222 -0.5457 -0.0471  0.7473
 3155TP3     H121284   3.385   3.808   8.129 -1.8106  0.7146  0.9755
 3155TP3     H221285   3.462   3.724   8.228 -1.1170 -0.8459 -0.8208
 3156TP3      O21286   3.913   1.474   7.377 -0.0373  0.2768  0.2203
 3156TP3     H121287   3.916   1.423   7.458 -0.0804  1.0681  0.7312
 3156TP3     H221288   3.962   1.421   7.314  1.4840  0.4241  1.2173
 3157TP3      O21289   5.015   5.167   8.443  0.0065 -0.0333 -0.7339
 3157TP3     H121290   5.051   5.256   8.445 -0.8824  0.3291 -0.4584
 3157TP3     H221291   4.923   5.177   8.468 -0.1358 -1.0196 -0.8013
 3158TP3      O21292   3.399   4.236   9.115  0.1876  0.0430 -0.4029
 3158TP3     H121293   3.342   4.175   9.069  0.6582  0.0455 -1.0075
 3158TP3     H221294   3.473   4.182   9.145  1.1530  0.4816 -1.8857
 3159TP3      O21295   2.234   0.183   1.182  0.3492  0.2070 -0.0545
 3159TP3     H121296   2.216   0.147   1.269  1.4930  2.2104  1.1037
 3159TP3     H221297   2.306   0.130   1.149  0.9195  0.3584  0.8993
 3160TP3      O21298   2.477   3.697   8.007  0.1305 -0.7988 -0.7620
 3160TP3     H121299   2.429   3.730   7.932 -0.1618 -1.1803 -0.7469
 3160TP3     H221300   2.422   3.717   8.083  0.2869 -0.6756 -0.6802
 3161TP3      O21301   2.840   4.752   1.395  0.4325  0.6027  0.0817
 3161TP3     H121302   2.858   4.674   1.343  0.4236 -0.4408  1.5660
 3161TP3     H221303   2.897   4.819   1.359  1.6820 -0.5585 -0.1693
 3162TP3      O21304   0.845   4.704   9.335 -0.4701  0.0806  0.4326
 3162TP3     H121305   0.887   4.638   9.280  1.9763  0.0519  2.1593
 3162TP3     H221306   0.833   4.661   9.420  1.1257  1.7430  1.5889
 3163TP3      O21307   4.663   2.344   7.185  0.4544  0.4903 -1.1650
 3163TP3     H121308   4.753   2.375   7.177  0.9625 -0.9551 -1.4483
 3163TP3     H221309   4.672   2.255   7.220 -0.9804  1.0286  0.7104
 3164TP3      O21310   2.717   1.638   2.563 -0.5890  0.7922 -0.1948
 3164TP3     H121311   2.724   1.627   2.468  0.6391  1.7463 -0.2361
 3164TP3     H221312   2.807   1.631   2.594 -1.0469 -0.1897  1.0068
 3165TP3      O21313   2.104   3.529   9.652  0.7544 -0.3629 -0.2242
 3165TP3     H121314   2.084   3.436   9.668  2.3976 -1.0625 -1.7689
 3165TP3     H221315   2.019   3.568   9.629 -0.1653 -1.1765  1.6081
 3166TP3      O21316   3.587   3.986   9.056 -0.0083  0.0475 -0.2300
 3166TP3     H121317   3.571   3.918   8.991 -1.9233 -0.6536  0.8950
 3166TP3     H221318   3.664   3.956   9.104  1.0847  0.2999 -1.7627
 3167TP3      O21319   4.221   3.152   3.108 -0.3829  0.2999  0.4463
 3167TP3     H121320   4.207   3.150   3.203 -1.0930  1.9792  0.4115
 3167TP3     H221321   4.310   3.186   3.098 -0.4220  0.4188  0.5020
 3168TP3      O21322   3.434   4.528  10.421 -0.0822 -0.4728 -0.3542
 3168TP3     H121323   3.362   4.533  10.485  0.0113  0.9748 -0.3287
 3168TP3     H221324   3.456   4.435  10.417 -2.4084 -1.0605 -0.8769
 3169TP3      O21325   4.935   1.282   9.608 -0.0983 -0.3934 -0.1720
 3169TP3     H121326   4.886   1.201   9.622 -3.3739  1.1615 -1.6002
 3169TP3     H221327   4.997   1.260   9.538 -3.8372 -0.8296 -3.7344
 3170TP3      O21328   2.060   4.455   8.451  0.0651  0.0127 -0.6333
 3170TP3     H121329   2.069   4.538   8.403 -1.1314  0.2312 -0.4912
 3170TP3     H221330   2.131   4.458   8.516  0.2493  0.7673 -0.8514
 3171TP3      O21331   2.079   3.934  10.332  0.0945 -0.4833 -0.0607
 3171TP3     H121332   2.103   4.025  10.317  0.8186 -0.5780  0.4858
 3171TP3     H221333   2.054   3.901  10.246 -1.9771  0.7277  0.0142
 3172TP3      O21334   4.118   0.998   2.308  0.4141 -0.2275 -0.2848
 3172TP3     H121335   4.184   0.996   2.376  1.0200  0.6632 -0.8216
 3172TP3     H221336   4.037   0.972   2.352  0.7122  0.7130  0.8647
 3173TP3      O21337   4.763   3.793   9.240  0.4190 -0.2916 -0.1043
 3173TP3     H121338   4.801   3.739   9.310  0.6493  1.1318  0.9009
 3173TP3     H221339   4.837   3.811   9.182  0.4708 -0.5689 -0.1270
 3174TP3      O21340   3.519   1.947   0.500 -0.0825 -0.0555  0.1610
 3174TP3     H121341   3.534   2.007   0.427 -1.7647 -0.1857 -0.3452
 3174TP3     H221342   3.574   1.980   0.570  1.0126  0.5126 -0.9265
 3175TP3      O21343   2.266   3.743   1.229 -0.4547 -0.1581 -0.0811
 3175TP3     H121344   2.255   3.662   1.279  0.6304 -0.9531 -1.0880
 3175TP3     H221345   2.331   3.793   1.278 -0.0332 -0.5550 -0.2300
 3176TP3      O21346   2.882   1.494   1.594 -0.0188 -0.2410  0.4456
 3176TP3     H121347   2.978   1.502   1.591 -0.1632  1.6332 -1.6784
 3176TP3     H221348   2.851   1.557   1.529 -2.7291 -0.6594  1.2333
 3177TP3      O21349   0.514   3.961   1.884 -0.2965 -0.2426 -0.4416
 3177TP3     H121350   0.500   4.015   1.805  0.2844 -1.4267 -1.3877
 3177TP3     H221351   0.609   3.948   1.886 -0.1118  1.0374  1.3518
 3178TP3      O21352   1.417   3.099   0.175 -0.3186 -0.0037  0.1476
 3178TP3     H121353   1.424   3.144   0.091  0.2011 -1.5121 -0.6482
 3178TP3     H221354   1.435   3.007   0.155  0.9375 -0.2363  2.1022
 3179TP3      O21355   1.956   4.267   9.209  0.3070 -0.0869  0.3966
 3179TP3     H121356   1.865   4.297   9.212  0.7568  1.7522 -2.1401
 3179TP3     H221357   1.952   4.183   9.163 -0.0035  0.5468 -0.7477
 3180TP3      O21358   3.262   0.063  10.281 -1.2787  0.1254  0.3705
 3180TP3     H121359   3.218   0.027  10.204  0.6340  0.3481 -0.8903
 3180TP3     H221360   3.239   0.155  10.282 -0.3014  0.4038 -0.7191
 3181TP3      O21361   4.704   3.045   2.951 -0.1571  0.4261 -0.0414
 3181TP3     H121362   4.644   3.117   2.970  2.3454  2.3983  1.1081
 3181TP3     H221363   4.686   3.023   2.859 -1.5824  1.9464 -0.1909
 3182TP3      O21364   1.568   4.859   7.529  0.7412  0.1512  0.0519
 3182TP3     H121365   1.604   4.778   7.565  2.7024  0.7313 -0.5256
 3182TP3     H221366   1.475   4.855   7.553  1.0384 -1.6376  1.1605
 3183TP3      O21367   3.080   2.975   7.842  0.5172 -0.5846  0.2596
 3183TP3     H121368   3.053   2.985   7.933  0.2226  2.6777 -0.0493
 3183TP3     H221369   3.069   3.063   7.804  2.8879 -1.2467 -2.3077
 3184TP3      O21370   1.325   2.251   8.765 -0.1232  0.2984 -0.7273
 3184TP3     H121371   1.301   2.276   8.675  0.3192  1.0794 -0.6393
 3184TP3     H221372   1.242   2.257   8.813 -0.7509 -1.9201 -1.4348
 3185TP3      O21373   3.238   0.662   1.019  0.4283  0.7509 -0.3469
 3185TP3     H121374   3.165   0.708   1.061 -2.1714 -1.6191 -1.9242
 3185TP3     H221375   3.267   0.721   0.950  1.0910  2.3551  1.2170
 3186TP3      O21376   2.395   2.917   2.908  0.0442 -0.1118 -0.0638
 3186TP3     H121377   2.300   2.909   2.912  0.1233 -1.4322 -0.4826
 3186TP3     H221378   2.425   2.831   2.879  1.4976 -0.3293  1.8868
 3187TP3      O21379   1.302   3.632  10.076 -0.2801  0.2775  0.7738
 3187TP3     H121380   1.304   3.562  10.141  0.6788 -1.9281 -1.4464
 3187TP3     H221381   1.225   3.612  10.022  1.1086 -0.3535 -1.0979
 3188TP3      O21382   0.885   2.635  10.033  0.1537 -0.0398 -0.3339
 3188TP3     H121383   0.925   2.563  10.081  1.1739  0.3752 -0.5551
 3188TP3     H221384   0.832   2.680  10.099 -0.0762 -0.6712 -0.0749
 3189TP3      O21385   0.729   2.919   7.179 -0.1843  0.3953 -0.2332
 3189TP3     H121386   0.730   2.951   7.089  0.3534  1.1677  0.0368
 3189TP3     H221387   0.766   2.991   7.230 -0.8109  0.1023  0.6522
 3190TP3      O21388   3.271   2.649   0.882  0.0894  0.2617 -0.4012
 3190TP3     H121389   3.319   2.679   0.804 -0.1600  0.6644 -0.4027
 3190TP3     H221390   3.187   2.620   0.849 -0.9206  2.5516 -0.0577
 3191TP3      O21391   5.072   2.086   1.937  0.3441  0.2570  0.5295
 3191TP3     H121392   5.150   2.059   1.889  0.8519 -2.3594  2.5746
 3191TP3     H221393   5.103   2.156   1.995  1.1935 -0.6473  1.2109
 3192TP3      O21394   2.111   1.670   1.655  0.2553 -0.1412  0.5799
 3192TP3     H121395   2.047   1.599   1.654  0.0100  0.0764  0.9270
 3192TP3     H221396   2.187   1.632   1.700 -0.5175  0.3693  2.3617
 3193TP3      O21397   4.320   1.276   2.995 -0.4220  0.7654  0.0128
 3193TP3     H121398   4.343   1.305   2.906 -1.7221 -0.2492 -0.6920
 3193TP3     H221399   4.382   1.204   3.013 -0.2277  0.8983 -0.1167
 3194TP3      O21400   1.627   5.185   1.313  0.1456 -0.6655 -0.0294
 3194TP3     H121401   1.571   5.227   1.378 -0.7127 -2.9754  0.7835
 3194TP3     H221402   1.628   5.247   1.240 -0.6686  0.9733  1.2726
 3195TP3      O21403   4.283   0.550   2.468 -0.8604  0.2279 -0.4133
 3195TP3     H121404   4.245   0.545   2.381 -2.8404 -0.7787  0.4326
 3195TP3     H221405   4.290   0.459   2.497 -0.2592  0.5432  0.4947
 3196TP3      O21406   3.050   3.958   9.514  0.3641 -0.1004 -0.0201
 3196TP3     H121407   3.111   3.977   9.585  1.5468 -0.5483 -0.8901
 3196TP3     H221408   3.001   3.882   9.544 -1.8265  1.8861  1.8975
 3197TP3      O21409   0.695   4.197   8.627  0.7043  0.2998 -0.1049
 3197TP3     H121410   0.664   4.231   8.711  1.7193 -1.0776  0.8851
 3197TP3     H221411   0.693   4.102   8.637  0.7931  0.0983 -1.6788
 3198TP3      O21412   0.317   1.082   0.008 -0.0736  0.4312 -0.0012
 3198TP3     H121413   0.358   1.089  -0.078 -0.8787  0.1738 -0.4073
 3198TP3     H221414   0.373   1.135   0.065  1.2667 -0.5138 -0.3800
 3199TP3      O21415   1.516   4.702   1.517  0.1633  0.3082  0.2254
 3199TP3     H121416   1.499   4.772   1.455  1.1792  1.0968  0.7990
 3199TP3     H221417   1.605   4.720   1.549  0.2457 -0.9535  0.7581
 3200TP3      O21418   0.869   4.838   0.999  0.6746 -0.4237  0.3411
 3200TP3     H121419   0.954   4.882   0.992  0.3081  0.4522  1.1181
 3200TP3     H221420   0.815   4.899   1.050 -0.6363 -0.6241 -0.7487
 3201TP3      O21421   4.944   3.709   0.481 -0.4132  0.5947 -0.9971
 3201TP3     H121422   5.031   3.708   0.442 -0.2631 -0.5915 -0.6695
 3201TP3     H221423   4.928   3.618   0.506 -1.9672  0.6944 -1.5373
 3202TP3      O21424   3.461   4.775   1.878  0.2148 -0.4361  0.3158
 3202TP3     H121425   3.504   4.754   1.795  0.0728 -1.0055  0.3824
 3202TP3     H221426   3.406   4.851   1.858  0.4316 -0.3718 -0.0322
 3203TP3      O21427   2.403   0.557   8.184  0.2353  0.4681 -0.3855
 3203TP3     H121428   2.409   0.551   8.279 -0.3756 -0.5978 -0.3878
 3203TP3     H221429   2.492   0.539   8.153  0.2230 -0.2331 -0.0395
 3204TP3      O21430   1.546   2.485   0.064  0.0232 -0.7064  0.1195
 3204TP3     H121431   1.489   2.520  -0.004 -0.4197 -0.9667  0.3556
 3204TP3     H221432   1.587   2.563   0.103 -1.8844 -0.3068  1.4769
 3205TP3      O21433   0.109   2.506   0.128  0.4972 -0.4292 -0.1682
 3205TP3     H121434   0.185   2.451   0.107  0.7805  0.1271 -0.6602
 3205TP3     H221435   0.103   2.566   0.053 -0.0926 -0.1080  0.1347
 3206TP3      O21436   4.060   2.779   2.319 -0.9045  0.1990  0.3865
 3206TP3     H121437   4.004   2.773   2.241  0.6781 -1.0723 -0.7075
 3206TP3     H221438   4.148   2.786   2.284 -0.1640 -0.2030  2.0971
 3207TP3      O21439   4.640   0.442   0.143 -0.6055  0.3277 -0.2740
 3207TP3     H121440   4.665   0.517   0.198 -0.4834 -0.4932  0.8179
 3207TP3     H221441   4.545   0.448   0.136 -0.7239 -0.1048  0.8533
 3208TP3      O21442   0.907   4.948   2.724  0.5849 -0.1777  0.4316
 3208TP3     H121443   0.970   5.012   2.757  0.3928 -0.1671  0.7851
 3208TP3     H221444   0.844   5.000   2.675  1.0154 -0.2229 -0.1831
 3209TP3      O21445   0.712   0.905   2.705 -0.0458 -0.7820 -0.3512
 3209TP3     H121446   0.644   0.938   2.647 -1.0411 -0.2033  1.0793
 3209TP3     H221447   0.670   0.898   2.791  1.7046 -0.3561  0.6081
 3210TP3      O21448   2.798   1.798   1.080 -0.4010 -0.5236 -0.0807
 3210TP3     H121449   2.791   1.877   1.134  0.7890  0.3287 -1.1136
 3210TP3     H221450   2.892   1.782   1.073 -0.6133 -2.1635  0.2330
 3211TP3      O21451   1.137   3.643   0.899 -0.0545 -0.1326 -0.0221
 3211TP3     H121452   1.108   3.578   0.835  0.9487 -0.5259 -0.0873
 3211TP3     H221453   1.060   3.699   0.911 -0.4357 -0.3637 -1.1718
 3212TP3      O21454   0.012   2.621   8.519 -0.0372  0.5535 -0.2769
 3212TP3     H121455  -0.049   2.688   8.487 -1.2502  0.4992  1.7481
 3212TP3     H221456  -0.033   2.538   8.505 -0.4323  0.5055  1.1460
 3213TP3      O21457   3.089   0.012   9.036 -0.2148  0.3645  0.1036
 3213TP3     H121458   2.997   0.010   9.011 -0.5830 -0.2488  1.4085
 3213TP3     H221459   3.103  -0.069   9.084  0.6278  1.0857  1.1416
 3214TP3      O21460   0.271   0.231   3.301 -0.3448  0.4471 -0.8050
 3214TP3     H121461   0.278   0.319   3.264 -0.3128  1.2765  1.0474
 3214TP3     H221462   0.350   0.222   3.354 -1.4069  0.2321  0.8159
 3215TP3      O21463   4.851   1.325   0.559 -0.1950  0.0808  0.6618
 3215TP3     H121464   4.795   1.283   0.625 -1.5956  0.7242 -0.0587
 3215TP3     H221465   4.915   1.258   0.536 -1.2522 -1.0479  0.8587
 3216TP3      O21466   2.193   4.664   0.465  0.0088 -0.1896  0.3980
 3216TP3     H121467   2.227   4.748   0.495  3.2015 -1.2198 -0.0164
 3216TP3     H221468   2.240   4.599   0.516  0.2958 -1.8014 -1.7861
 3217TP3      O21469   3.327   4.773   2.563 -0.2131 -0.4604 -0.9117
 3217TP3     H121470   3.288   4.686   2.564  2.2241 -1.6380 -0.8687
 3217TP3     H221471   3.400   4.766   2.501  0.8232  1.1563  0.0434
 3218TP3      O21472   4.363   2.118   0.034 -0.3085  0.1576  0.0700
 3218TP3     H121473   4.444   2.127  -0.016 -1.6668  2.0249 -1.9927
 3218TP3     H221474   4.345   2.024   0.033  0.4991 -0.0252 -1.7590
 3219TP3      O21475   4.195   2.064   8.439  0.3305 -0.2110  0.3802
 3219TP3     H121476   4.253   2.121   8.489  1.7993 -1.6342  0.3586
 3219TP3     H221477   4.139   2.022   8.505  0.2165  0.1690  0.5252
 3220TP3      O21478   0.573   2.998   2.536 -0.0128 -0.1399  0.2779
 3220TP3     H121479   0.667   3.003   2.550  0.0863 -0.1026 -0.3682
 3220TP3     H221480   0.550   3.081   2.494 -0.3049 -0.2149  0.2850
 3221TP3      O21481   4.527   1.109   0.099  0.1111  0.3726  0.3300
 3221TP3     H121482   4.507   1.167   0.173  1.4189  0.4570  0.6366
 3221TP3     H221483   4.444   1.100   0.053 -1.1822 -1.1009  2.7776
 3222TP3      O21484   0.328   3.893   2.679 -0.0639 -0.3361  0.4332
 3222TP3     H121485   0.293   3.817   2.632 -1.7378  1.4508 -1.4176
 3222TP3     H221486   0.298   3.881   2.769 -0.5112 -1.7394  0.1185
 3223TP3      O21487   2.013   0.409   3.711  0.3158 -0.0267 -0.1618
 3223TP3     H121488   2.061   0.471   3.656  1.0590 -0.0424  0.4572
 3223TP3     H221489   2.035   0.323   3.676  0.9047 -0.0444  0.2441
 3224TP3      O21490   4.714   3.019  10.344 -0.1747 -0.8875 -0.1084
 3224TP3     H121491   4.626   3.052  10.324 -0.4572 -2.3126 -1.4022
 3224TP3     H221492   4.702   2.964  10.421 -0.5445 -1.5132 -0.5998
 3225TP3      O21493   4.721   1.250   1.387 -0.7539 -0.1577  0.1933
 3225TP3     H121494   4.764   1.314   1.443 -3.7226  0.3650  2.1048
 3225TP3     H221495   4.688   1.301   1.313 -0.6483 -0.0270  0.2358
 3226TP3      O21496   0.275   3.032   1.026 -0.0534  0.5221 -0.2392
 3226TP3     H121497   0.277   3.026   0.931 -0.1166  0.0746 -0.2111
 3226TP3     H221498   0.287   2.942   1.057  1.5141  0.8488  0.1989
 3227TP3      O21499   4.019   2.904   9.285 -0.3434 -0.3569 -0.5350
 3227TP3     H121500   4.098   2.889   9.233  0.4308  2.1619 -0.2559
 3227TP3     H221501   3.948   2.899   9.222  0.3817  0.4969 -1.4736
 3228TP3      O21502   2.539   4.209  10.406  0.1502  0.0131  0.0475
 3228TP3     H121503   2.483   4.229  10.481  0.4670 -1.7024  0.7775
 3228TP3     H221504   2.541   4.113  10.402  0.7076  0.0591 -1.7314
 3229TP3      O21505   3.276   1.373   7.377  0.2750  0.1686  0.4689
 3229TP3     H121506   3.369   1.366   7.354  0.4439  0.3409  1.0838
 3229TP3     H221507   3.233   1.308   7.320  0.4042  1.8933 -1.7313
 3230TP3      O21508   1.148   4.466   6.852 -0.2088 -0.0598  0.5318
 3230TP3     H121509   1.067   4.463   6.902 -1.4526  1.8794 -1.1905
 3230TP3     H221510   1.171   4.374   6.837 -2.5041 -0.6660  0.4513
 3231TP3      O21511   2.172   0.398   2.299 -0.0328  0.0120  0.3325
 3231TP3     H121512   2.268   0.391   2.306  0.2038  0.9862 -1.2651
 3231TP3     H221513   2.139   0.345   2.371  1.7359  2.2524  3.0522
 3232TP3      O21514   0.886   3.307   0.847  0.5017  0.3249 -0.1530
 3232TP3     H121515   0.853   3.375   0.905  0.4560 -0.2388  0.4869
 3232TP3     H221516   0.818   3.239   0.848  1.2757 -0.4658  0.5084
 3233TP3      O21517   1.298   2.852   9.226 -0.0300 -0.0387  0.3676
 3233TP3     H121518   1.257   2.860   9.140  2.6091 -1.2856 -1.1330
 3233TP3     H221519   1.231   2.812   9.281 -0.6405 -2.8915 -2.1848
 3234TP3      O21520   0.219   0.178   2.586  0.1030 -0.2836 -0.0888
 3234TP3     H121521   0.231   0.154   2.494 -0.9740 -0.7382 -0.1288
 3234TP3     H221522   0.158   0.113   2.620  1.3746 -0.8007  1.2672
 3235TP3      O21523   0.582   2.588   9.010  0.5963 -0.8586  0.5176
 3235TP3     H121524   0.580   2.673   9.055  3.6812  0.6191 -1.7151
 3235TP3     H221525   0.660   2.544   9.045  1.3245 -0.9557 -1.1348
 3236TP3      O21526   1.015   1.206   7.759  0.2610 -0.5544 -0.3983
 3236TP3     H121527   1.091   1.151   7.741  0.7555 -0.1563  0.3942
 3236TP3     H221528   1.026   1.231   7.851 -0.6789 -0.2531 -0.3592
 3237TP3      O21529   0.476   4.770   8.485  0.3250  0.9034 -0.0121
 3237TP3     H121530   0.397   4.811   8.522 -2.1502 -0.9961 -2.7097
 3237TP3     H221531   0.494   4.697   8.545 -0.9132  0.4960 -0.0959
 3238TP3      O21532   3.697   2.100   1.729  0.1514 -0.7277  0.2435
 3238TP3     H121533   3.729   2.058   1.650 -0.8300  2.1088 -1.8407
 3238TP3     H221534   3.775   2.113   1.783  1.1315 -1.2987 -0.9932
 3239TP3      O21535   2.715   0.306   1.606  0.0853 -0.2274 -0.2599
 3239TP3     H121536   2.716   0.237   1.540  3.5416 -1.2776  0.7008
 3239TP3     H221537   2.668   0.379   1.565 -0.2426 -1.7777 -2.7787
 3240TP3      O21538   1.031   3.559   2.554  0.4193  0.2450 -0.4022
 3240TP3     H121539   0.956   3.575   2.497  1.8325 -0.0379 -2.4456
 3240TP3     H221540   1.073   3.480   2.518  0.4492 -0.9776  2.0738
 3241TP3      O21541   2.233   3.557   8.359 -0.0123  0.4739  0.3865
 3241TP3     H121542   2.185   3.489   8.406  0.7654 -0.4512 -0.1291
 3241TP3     H221543   2.319   3.559   8.401 -0.2729  1.7221  0.9310
 3242TP3      O21544   3.276   4.539   1.643  0.1268  0.0123 -0.1908
 3242TP3     H121545   3.344   4.568   1.582  1.4492  0.8207  1.5924
 3242TP3     H221546   3.194   4.555   1.596  1.1085 -2.0728 -2.8647
 3243TP3      O21547   1.823   4.843  10.341  0.4217 -0.2900  0.6597
 3243TP3     H121548   1.851   4.770  10.397 -0.0093 -0.4544  0.6659
 3243TP3     H221549   1.890   4.910  10.354  1.8239 -1.3469 -0.7282
 3244TP3      O21550   2.916   0.496   8.192  0.0202  0.2252 -0.0675
 3244TP3     H121551   2.919   0.539   8.277  1.0613 -1.0863  0.5944
 3244TP3     H221552   3.008   0.493   8.163  0.4429 -3.6215  1.0725
 3245TP3      O21553   4.603   1.734   1.037  0.6134 -0.1981 -0.1148
 3245TP3     H121554   4.619   1.772   1.123 -2.1173  0.3390  0.2385
 3245TP3     H221555   4.629   1.802   0.975 -1.2060  1.0983  0.4438
 3246TP3      O21556   1.686   0.685   7.941  0.0538  0.4236 -0.3641
 3246TP3     H121557   1.716   0.609   7.891  1.6299 -0.5363  1.9062
 3246TP3     H221558   1.760   0.746   7.938  0.7934 -0.2666  1.9130
 3247TP3      O21559   0.629   4.361   8.431 -0.1546 -0.9546  0.0061
 3247TP3     H121560   0.621   4.430   8.497 -0.2824 -0.5276 -0.4439
 3247TP3     H221561   0.638   4.280   8.481 -0.7254 -0.6925  0.5478
 3248TP3      O21562   3.738   3.392   1.670  0.2075  0.6370  0.2639
 3248TP3     H121563   3.699   3.354   1.590  0.9307 -1.0291  0.6558
 3248TP3     H221564   3.667   3.389   1.734  0.5611 -1.2587  0.6296
 3249TP3      O21565   4.341   2.768   1.486 -0.5704  0.0848  1.0857
 3249TP3     H121566   4.415   2.826   1.465 -1.2097  0.8821  0.9643
 3249TP3     H221567   4.308   2.802   1.569 -1.4473  0.4137  0.6134
 3250TP3      O21568   1.868   1.758   8.943  0.2721  0.1417  0.2999
 3250TP3     H121569   1.845   1.844   8.907  1.0663 -0.2063 -1.1342
 3250TP3     H221570   1.921   1.778   9.020  2.3665  1.0281 -1.2488
 3251TP3      O21571   1.343   3.995   0.746 -0.5813 -0.0670  0.4602
 3251TP3     H121572   1.331   3.953   0.831  0.1681  1.9128  1.6113
 3251TP3     H221573   1.299   3.936   0.684 -0.1681 -2.1435  2.0230
 3252TP3      O21574   3.548   1.960   9.855  0.9557  0.1936  0.8517
 3252TP3     H121575   3.474   1.988   9.909  1.0347  0.0072  1.0567
 3252TP3     H221576   3.509   1.938   9.771  0.4307 -2.0496  1.6153
 3253TP3      O21577   5.080   3.196   1.963 -1.1647  0.0947 -0.5115
 3253TP3     H121578   5.125   3.167   2.042 -0.0541  1.5320 -0.5719
 3253TP3     H221579   5.094   3.126   1.900  0.2397  0.1156 -0.2459
 3254TP3      O21580   1.904   2.307   8.931  0.1029  0.0144  0.1473
 3254TP3     H121581   1.944   2.293   9.016  3.7365  0.0627 -1.3419
 3254TP3     H221582   1.874   2.221   8.903  0.9942 -0.4429  0.5701
 3255TP3      O21583   3.601   0.949   0.574  0.0987  0.0581 -0.2723
 3255TP3     H121584   3.556   0.869   0.546  1.6235 -0.3345 -1.8063
 3255TP3     H221585   3.636   0.927   0.661  0.6234 -1.0247 -0.7382
 3256TP3      O21586   2.912   2.981   2.736  0.0606  0.1510  0.5541
 3256TP3     H121587   2.863   3.057   2.704  0.9833  1.2157  1.5848
 3256TP3     H221588   2.945   3.008   2.821 -0.9260 -1.9982  1.6979
 3257TP3      O21589   2.753   4.740   1.797  0.1112  0.1675  0.6337
 3257TP3     H121590   2.730   4.649   1.816 -4.1237  1.2723  1.8847
 3257TP3     H221591   2.750   4.784   1.882  0.4125  1.7741 -0.1471
 3258TP3      O21592   3.465   0.742   0.272  0.5039 -1.1379  0.3846
 3258TP3     H121593   3.559   0.734   0.285  0.4557 -1.6995  0.4058
 3258TP3     H221594   3.449   0.698   0.188  0.4179 -0.0507 -0.1809
 3259TP3      O21595   0.574   2.057   1.009  0.5055  0.2706  0.6960
 3259TP3     H121596   0.654   2.015   1.040  0.5687  1.0291  1.6195
 3259TP3     H221597   0.509   1.987   1.005  0.8879 -0.1148  1.1718
 3260TP3      O21598   0.688   4.483   7.990 -0.0678 -0.4584  0.1448
 3260TP3     H121599   0.682   4.396   7.951 -1.2148 -0.2282 -0.2283
 3260TP3     H221600   0.608   4.528   7.961  1.4425  1.4266 -1.3926
 3261TP3      O21601   2.611   5.141   9.167 -0.4630  0.5167 -0.5153
 3261TP3     H121602   2.530   5.132   9.116 -0.7300 -1.7649  0.1856
 3261TP3     H221603   2.583   5.136   9.258  0.1193  3.5813 -0.0673
 3262TP3      O21604   0.969   1.426   8.395  0.1575 -0.3908  0.3909
 3262TP3     H121605   0.908   1.499   8.382 -0.3335 -0.6261  1.2867
 3262TP3     H221606   1.047   1.451   8.344  0.4186  1.2726  1.5236
 3263TP3      O21607   0.622   3.033   0.405  0.2172  0.1837 -0.0816
 3263TP3     H121608   0.716   3.033   0.424  0.2200  0.6549 -0.0900
 3263TP3     H221609   0.599   2.940   0.400  0.5047  0.0556  0.7924
 3264TP3      O21610   4.869   2.708   1.530  0.2734 -0.5058  0.4113
 3264TP3     H121611   4.869   2.798   1.496 -0.1867 -0.7358 -0.2146
 3264TP3     H221612   4.959   2.695   1.561  1.0761 -0.6489 -1.7654
 3265TP3      O21613   2.070   3.701   9.184 -0.3752 -0.2038  0.3035
 3265TP3     H121614   2.089   3.607   9.189 -0.8870 -0.2683  1.1671
 3265TP3     H221615   2.013   3.718   9.258 -1.2454  0.5743 -0.5149
 3266TP3      O21616   2.935   2.296   8.559  0.1557 -0.6357 -0.6362
 3266TP3     H121617   2.889   2.274   8.641 -1.4445 -1.0141 -1.5901
 3266TP3     H221618   3.025   2.269   8.574 -0.0824 -0.5975  1.0396
 3267TP3      O21619   3.876   4.818   9.403  0.0658 -0.1207 -0.0142
 3267TP3     H121620   3.928   4.744   9.437 -0.5897 -0.2086  0.8491
 3267TP3     H221621   3.855   4.793   9.314  1.2315 -0.2267 -0.2804
 3268TP3      O21622   5.013   2.894   9.401 -0.1552 -0.0205 -0.2774
 3268TP3     H121623   4.947   2.929   9.461 -0.1289 -0.1440 -0.1732
 3268TP3     H221624   4.978   2.909   9.314 -1.1831 -1.7175 -0.2050
 3269TP3      O21625   0.193   1.315   3.080 -0.1187  0.4806 -0.0960
 3269TP3     H121626   0.285   1.308   3.104  0.2460  0.9735 -1.2546
 3269TP3     H221627   0.147   1.255   3.139  0.9552  0.1577  0.4232
 3270TP3      O21628   2.539   4.623  10.352 -0.1205 -0.1677  0.1029
 3270TP3     H121629   2.620   4.607  10.303 -0.2001  0.2429 -0.1737
 3270TP3     H221630   2.512   4.711  10.324 -0.6930 -0.3285  0.1439
 3271TP3      O21631   3.405   2.577   8.428  0.7151  0.2123  1.0478
 3271TP3     H121632   3.340   2.644   8.450 -1.0481 -0.3567 -1.8642
 3271TP3     H221633   3.391   2.508   8.494  0.6308  1.4788  2.3994
 3272TP3      O21634   0.888   3.602   0.805 -0.3080  0.3479  0.0067
 3272TP3     H121635   0.825   3.672   0.786 -0.4511 -0.0219 -0.9185
 3272TP3     H221636   0.907   3.612   0.898 -3.4364 -0.8910  0.9150
 3273TP3      O21637   1.449   4.060   1.470  0.1673 -0.2360  0.0750
 3273TP3     H121638   1.492   3.976   1.480  0.6234  0.0285  0.3648
 3273TP3     H221639   1.449   4.076   1.376 -1.5523 -1.3960 -0.1609
 3274TP3      O21640   2.686   3.967   9.699  0.2380  0.0530 -0.1320
 3274TP3     H121641   2.613   4.022   9.727 -0.6310 -1.7588  1.4132
 3274TP3     H221642   2.649   3.912   9.629  0.2921 -0.4235  0.2076
 3275TP3      O21643   2.353   0.426   1.274  0.0898  1.1190  0.3061
 3275TP3     H121644   2.301   0.356   1.235 -2.1471  2.3988  0.7895
 3275TP3     H221645   2.378   0.482   1.201  0.8943  0.4306  0.0534
 3276TP3      O21646   2.806   2.425  10.228 -0.0376  0.1707 -0.6621
 3276TP3     H121647   2.718   2.455  10.206 -0.9288 -0.8221  1.2772
 3276TP3     H221648   2.861   2.456  10.156 -2.0680  0.2519 -2.2704
 3277TP3      O21649   3.301   2.075   7.925 -0.2250 -0.0291  0.4206
 3277TP3     H121650   3.382   2.039   7.889 -0.9274 -1.3620  0.0723
 3277TP3     H221651   3.235   2.056   7.858 -0.6765  1.8330  0.3050
 3278TP3      O21652   3.600   0.980   9.668 -0.5832 -0.0448  0.0502
 3278TP3     H121653   3.609   0.895   9.711  0.2549 -1.0986 -2.0319
 3278TP3     H221654   3.558   0.959   9.584 -1.2392  1.7523 -0.1066
 3279TP3      O21655   3.213   5.178   2.372 -0.3434 -0.2629 -0.7002
 3279TP3     H121656   3.127   5.206   2.340 -0.8639  2.2926  2.3975
 3279TP3     H221657   3.200   5.088   2.402 -1.6066 -0.3176 -1.3557
 3280TP3      O21658   2.959   3.055   6.929 -0.1168  0.6267 -0.6250
 3280TP3     H121659   2.945   2.961   6.921 -1.3377  0.5040  1.8863
 3280TP3     H221660   3.054   3.066   6.924  0.1147 -0.8628  0.0120
 3281TP3      O21661   2.965   0.234   7.282 -0.2250 -0.0761 -0.6438
 3281TP3     H121662   2.878   0.257   7.251 -0.2270 -0.2649 -0.7755
 3281TP3     H221663   2.970   0.272   7.370 -0.2699  0.3324 -0.8156
 3282TP3      O21664   3.764   0.858   8.252 -0.1452  0.0525 -0.1095
 3282TP3     H121665   3.840   0.916   8.257 -1.4591  1.7663  0.9957
 3282TP3     H221666   3.752   0.843   8.158  0.2017  1.6455 -0.4426
 3283TP3      O21667   3.536   4.404   2.089  0.1444  0.1900  0.2479
 3283TP3     H121668   3.463   4.466   2.096  0.5622  0.6071  1.1159
 3283TP3     H221669   3.585   4.432   2.012 -0.6746 -0.1754 -0.4219
 3284TP3      O21670   0.820   1.064   3.149 -0.0700  0.6846  0.3074
 3284TP3     H121671   0.809   0.999   3.219 -1.3665  2.2587  1.6348
 3284TP3     H221672   0.732   1.081   3.117  0.5672 -0.7780 -2.5592
 3285TP3      O21673   0.021   2.548   2.117  0.5925  0.3385  0.0776
 3285TP3     H121674  -0.042   2.553   2.045  1.8209 -2.4446 -1.3318
 3285TP3     H221675   0.006   2.628   2.167 -2.6125  0.7853 -1.3424
 3286TP3      O21676   2.592   1.465   2.760  0.0250  0.0813 -0.0898
 3286TP3     H121677   2.608   1.529   2.691 -1.0257 -0.1485 -0.5591
 3286TP3     H221678   2.576   1.383   2.714  2.3701 -0.8221  0.5225
 3287TP3      O21679   4.550   0.366   2.793  0.3470 -0.1317 -0.0004
 3287TP3     H121680   4.467   0.325   2.768 -0.5030  1.0082  0.8361
 3287TP3     H221681   4.550   0.363   2.888  0.8202  0.7233  0.0360
 3288TP3      O21682   4.144   2.202   0.154 -0.5812 -0.1171  0.2221
 3288TP3     H121683   4.143   2.157   0.239  2.3197  0.6633  0.7708
 3288TP3     H221684   4.230   2.183   0.117 -1.1215  1.0120 -1.7671
 3289TP3      O21685   1.870   1.520   9.786  0.2926 -0.1202  0.3470
 3289TP3     H121686   1.903   1.607   9.765  1.0299 -0.8415 -1.7857
 3289TP3     H221687   1.914   1.496   9.868  0.5138  1.2471  0.6477
 3290TP3      O21688   4.459   1.686   1.803 -0.2986  0.3494  0.4354
 3290TP3     H121689   4.402   1.614   1.774 -2.0369  1.8093  0.0707
 3290TP3     H221690   4.414   1.723   1.879  1.0906  0.4393  1.2326
 3291TP3      O21691   5.058   0.498   8.996 -0.3077 -0.0841 -0.1380
 3291TP3     H121692   5.110   0.496   9.076 -0.9877 -2.2036  0.2956
 3291TP3     H221693   4.967   0.498   9.026 -0.5979 -2.1386 -0.8395
 3292TP3      O21694   2.710   4.401   9.831 -0.3029 -0.4560 -0.7418
 3292TP3     H121695   2.652   4.400   9.755 -0.8705  0.3187 -0.3297
 3292TP3     H221696   2.705   4.491   9.864  0.3454 -0.6480 -0.0980
 3293TP3      O21697   3.336   0.931   2.277  0.2647 -0.2681 -0.3169
 3293TP3     H121698   3.296   0.845   2.287 -0.2520  0.0730  0.7460
 3293TP3     H221699   3.270   0.992   2.310 -0.0190  0.7084 -2.5272
 3294TP3      O21700   2.471   3.479   1.200  0.0996  0.4004 -0.1012
 3294TP3     H121701   2.471   3.545   1.131  1.8609  0.2444 -0.2965
 3294TP3     H221702   2.382   3.480   1.234 -0.4939  1.3149 -1.5787
 3295TP3      O21703   3.999   4.708   1.576 -0.8776 -0.0398  0.6395
 3295TP3     H121704   3.995   4.743   1.487 -1.9032 -0.5752  0.4642
 3295TP3     H221705   4.083   4.663   1.580 -0.3048  0.9659  0.3253
 3296TP3      O21706   4.040   3.720   3.263  0.0311 -0.0577  0.4761
 3296TP3     H121707   4.059   3.755   3.176  0.1109 -0.7108  0.2276
 3296TP3     H221708   4.123   3.726   3.310  0.8417 -2.5246 -0.4775
 3297TP3      O21709   0.843   2.435   0.027 -0.6677  0.0885  0.1094
 3297TP3     H121710   0.752   2.464   0.015 -0.9788 -0.5910  0.7671
 3297TP3     H221711   0.839   2.340   0.018  0.0633  0.0886 -0.2923
 3298TP3      O21712   0.176   3.458   7.158  0.4548 -0.1242  0.8997
 3298TP3     H121713   0.139   3.375   7.127  0.2165 -0.7507  2.7364
 3298TP3     H221714   0.196   3.507   7.078 -2.0628 -0.7567 -0.2080
 3299TP3      O21715   5.044   0.241   1.730 -0.3776 -0.1123 -0.0669
 3299TP3     H121716   5.022   0.278   1.644 -0.3791 -0.8318 -0.3847
 3299TP3     H221717   4.970   0.183   1.751 -1.0473  1.0936  1.0659
 3300TP3      O21718   4.697   0.367   0.908  0.3960  0.7341  0.7559
 3300TP3     H121719   4.633   0.316   0.959 -0.4473 -0.0507 -1.0021
 3300TP3     H221720   4.766   0.305   0.888 -0.1182  0.5310 -0.4878
 3301TP3      O21721   3.099   2.702  10.128  0.5580 -0.1076  0.2981
 3301TP3     H121722   3.072   2.610  10.118 -1.4027  0.4751 -0.0282
 3301TP3     H221723   3.093   2.739  10.040 -1.2028  0.9700  0.8279
 3302TP3      O21724   0.577   1.426   8.300 -0.1563 -0.4070  0.0512
 3302TP3     H121725   0.624   1.509   8.288 -0.0694 -0.6262 -1.3588
 3302TP3     H221726   0.609   1.370   8.229  0.1213 -1.8206  1.2437
 3303TP3      O21727   5.107   4.157   7.189 -0.1430  0.5682  0.0020
 3303TP3     H121728   5.074   4.247   7.192 -1.5590  0.2367 -2.7708
 3303TP3     H221729   5.166   4.155   7.114 -1.2780 -1.1122 -0.9153
 3304TP3      O21730   0.929   0.375   1.565 -0.0677 -0.6382 -0.3661
 3304TP3     H121731   0.966   0.385   1.477 -0.5165 -1.6623 -0.6818
 3304TP3     H221732   0.990   0.422   1.622  0.2537 -0.0046 -1.2110
 3305TP3      O21733   2.258   1.399   1.062 -0.7321 -0.1138  0.2576
 3305TP3     H121734   2.181   1.347   1.084 -1.6468 -0.8764 -3.9711
 3305TP3     H221735   2.226   1.489   1.056 -0.7067 -0.0629  0.7902
 3306TP3      O21736   4.830   1.451   2.060  0.4158 -0.2257  0.3567
 3306TP3     H121737   4.924   1.448   2.072  0.7665  0.4189 -1.7514
 3306TP3     H221738   4.808   1.544   2.065  0.5546  0.1010 -2.7698
 3307TP3      O21739   3.829   1.344   7.652  0.3506  0.1989  0.0240
 3307TP3     H121740   3.745   1.389   7.653  0.1703 -0.1262  1.1613
 3307TP3     H221741   3.813   1.265   7.600 -0.3299 -0.3431  1.0161
 3308TP3      O21742   1.454   0.078   1.069 -0.0967  0.2510 -0.1858
 3308TP3     H121743   1.463   0.000   1.014 -0.7118 -1.1485  1.5838
 3308TP3     H221744   1.405   0.140   1.015  0.1439 -0.7009 -1.5442
 3309TP3      O21745   3.381   2.122   8.318  0.4449 -0.1776 -0.3563
 3309TP3     H121746   3.466   2.166   8.320 -0.2274  1.2266  2.4469
 3309TP3     H221747   3.395   2.040   8.366  0.1538  0.2430  0.4616
 3310TP3      O21748   0.176   2.187   0.565  0.2786  0.4768 -0.6229
 3310TP3     H121749   0.154   2.253   0.631 -0.5209  1.3200 -1.7139
 3310TP3     H221750   0.229   2.123   0.613  0.0916  1.2972  0.7319
 3311TP3      O21751   1.050   4.680   8.009  0.1094 -0.3734  0.0944
 3311TP3     H121752   0.976   4.623   7.990 -1.3825  1.1216  1.1346
 3311TP3     H221753   1.127   4.626   7.992 -1.2027 -2.7314  1.1570
 3312TP3      O21754   4.490   3.395   0.808  0.2524 -0.2153  0.6175
 3312TP3     H121755   4.553   3.457   0.845 -0.4552  1.6403 -1.0895
 3312TP3     H221756   4.424   3.450   0.766 -0.7144 -2.1306 -0.5192
 3313TP3      O21757   4.796   4.884   9.045  0.4609 -0.1814 -0.2494
 3313TP3     H121758   4.774   4.832   8.967 -0.2596  0.2950 -0.3623
 3313TP3     H221759   4.830   4.966   9.011 -1.3792  0.6851 -0.0810
 3314TP3      O21760   1.451   2.691   6.982 -0.0621 -0.3423 -0.0211
 3314TP3     H121761   1.449   2.752   6.907 -0.4532  0.8814  0.9578
 3314TP3     H221762   1.543   2.690   7.008  0.0500 -0.6559 -0.4112
 3315TP3      O21763   3.651   4.388   3.090  0.3592 -0.8975  0.3104
 3315TP3     H121764   3.630   4.357   3.002 -0.9438 -4.5585  1.7304
 3315TP3     H221765   3.739   4.425   3.082 -0.3280  0.4262 -2.7510
 3316TP3      O21766   4.463   3.878   7.732 -0.3950 -0.1052 -0.6209
 3316TP3     H121767   4.538   3.837   7.689 -1.1232  2.1031 -4.4092
 3316TP3     H221768   4.489   3.969   7.746 -2.1743  0.6035 -1.6374
 3317TP3      O21769   1.795   0.167   2.772  0.3357 -0.1311 -0.2000
 3317TP3     H121770   1.786   0.074   2.749  1.3851  0.2381 -2.4258
 3317TP3     H221771   1.729   0.211   2.718 -0.5568  0.4008  1.2800
 3318TP3      O21772   4.043   2.176   0.891 -0.2658 -0.8608 -0.2055
 3318TP3     H121773   4.088   2.120   0.954  2.0736  1.4151  0.3390
 3318TP3     H221774   3.952   2.178   0.921  0.2031 -2.0674  1.4157
 3319TP3      O21775   2.696   0.478   1.229 -0.7828  0.0219 -0.6165
 3319TP3     H121776   2.729   0.430   1.154 -1.9605 -0.1537 -1.0376
 3319TP3     H221777   2.626   0.532   1.194  0.0258  1.5166 -0.0137
 3320TP3      O21778   4.151   5.216  10.308  0.3497 -0.0235 -0.5293
 3320TP3     H121779   4.117   5.129  10.290  0.1399 -0.3289  1.2161
 3320TP3     H221780   4.245   5.204  10.315  0.3647 -0.0224 -0.7173
 3321TP3      O21781   2.474   1.101   9.842  0.1274 -0.6070 -0.0275
 3321TP3     H121782   2.478   1.153   9.761  1.4080  0.3234  0.6039
 3321TP3     H221783   2.536   1.029   9.827  1.0362  0.0552  0.4260
 3322TP3      O21784   2.117   2.755   0.969  0.8239 -0.2458  0.3975
 3322TP3     H121785   2.161   2.786   0.889 -1.1147  0.8984 -0.2765
 3322TP3     H221786   2.178   2.777   1.039  1.2968  1.4396 -0.4870
 3323TP3      O21787   4.911   3.485   0.202 -0.2229 -0.0285 -0.4271
 3323TP3     H121788   4.974   3.418   0.177  0.6718  0.5693  0.1707
 3323TP3     H221789   4.942   3.564   0.158  0.6198  0.7349  1.4319
 3324TP3      O21790   2.787   4.658  10.234 -0.2660  0.0381  0.1157
 3324TP3     H121791   2.857   4.595  10.251  0.2135 -0.5749 -3.4477
 3324TP3     H221792   2.825   4.742  10.260  1.3009 -0.4591 -0.3967
 3325TP3      O21793   2.334   1.571   2.604 -0.0795  0.3061  0.8406
 3325TP3     H121794   2.269   1.564   2.674 -0.4400 -0.1700  0.4722
 3325TP3     H221795   2.381   1.487   2.606 -0.5079  0.0381  0.1249
 3326TP3      O21796   0.735   0.552   2.205  0.1459  0.0734 -0.4026
 3326TP3     H121797   0.668   0.592   2.262 -0.7838 -1.1070 -0.6194
 3326TP3     H221798   0.786   0.626   2.173 -0.2549  0.9036  0.7782
 3327TP3      O21799   0.711   1.036   8.951 -0.0196  0.4759 -0.2333
 3327TP3     H121800   0.667   1.081   9.023  1.0586  0.7557  0.2674
 3327TP3     H221801   0.659   1.058   8.874 -0.9405  0.5296  0.3846
 3328TP3      O21802   1.989   0.364   7.362  0.3656 -0.3193  0.3182
 3328TP3     H121803   1.926   0.350   7.292  0.2549 -0.4687  0.4448
 3328TP3     H221804   2.028   0.449   7.344 -0.1460 -0.0534  0.4514
 3329TP3      O21805   0.809   1.472   2.407  0.1078  0.3913 -0.1591
 3329TP3     H121806   0.725   1.434   2.432  0.0151  2.1535  2.5983
 3329TP3     H221807   0.844   1.412   2.342 -2.4803 -1.3449 -0.0707
 3330TP3      O21808   3.873   0.073   7.997 -0.3080 -0.1685 -0.1381
 3330TP3     H121809   3.919   0.148   7.959  0.7053 -0.9764 -0.5683
 3330TP3     H221810   3.928   0.048   8.072 -1.3726  0.3450  0.8568
 3331TP3      O21811   3.769   1.867   2.430  0.1725 -0.5257 -0.0365
 3331TP3     H121812   3.730   1.818   2.359  1.1992  0.8179 -1.5960
 3331TP3     H221813   3.839   1.811   2.463 -1.2793 -1.8039  1.0015
 3332TP3      O21814   3.535   0.761   8.149 -0.2471 -0.5103  0.0755
 3332TP3     H121815   3.609   0.787   8.204  0.5929 -0.5233 -1.0213
 3332TP3     H221816   3.570   0.762   8.060 -1.3332 -1.3721 -0.3776
 3333TP3      O21817   1.005   4.509   3.482 -0.1846  0.4375  0.2410
 3333TP3     H121818   1.060   4.543   3.553 -0.1666  0.1515  0.3667
 3333TP3     H221819   0.926   4.479   3.526 -0.7616  1.5193 -0.0264
 3334TP3      O21820   4.822   5.047   1.502  0.2650  0.2922  0.0614
 3334TP3     H121821   4.790   5.012   1.418  2.1961  1.6193 -1.2917
 3334TP3     H221822   4.915   5.062   1.488  0.1590  2.9178  1.6256
 3335TP3      O21823   0.356   1.936   0.212  0.4085  0.1632  0.1595
 3335TP3     H121824   0.368   1.909   0.121 -1.1858 -2.5977  0.6174
 3335TP3     H221825   0.286   2.001   0.209  1.4844  1.3152 -0.6868
 3336TP3      O21826   0.020   2.597   0.366  0.4711 -0.2040 -0.2492
 3336TP3     H121827  -0.051   2.660   0.353  1.2234  0.9078  0.8298
 3336TP3     H221828   0.041   2.566   0.278 -2.3211 -1.7281 -0.5190
 3337TP3      O21829   2.370   3.087   9.606  0.3090 -0.3534  0.2466
 3337TP3     H121830   2.315   3.089   9.527  1.0876  2.2555 -0.3165
 3337TP3     H221831   2.383   2.994   9.623 -3.0956 -1.0899 -0.3816
 3338TP3      O21832   4.361   3.059   9.728 -0.0265 -0.1923  0.1077
 3338TP3     H121833   4.390   2.982   9.778  0.5295 -1.0379 -1.4723
 3338TP3     H221834   4.301   3.105   9.788  1.2474 -0.6956  1.8762
 3339TP3      O21835   5.211   4.172  10.156  0.2584  0.5952 -0.0188
 3339TP3     H121836   5.186   4.130  10.074  1.8021  0.3604 -0.4008
 3339TP3     H221837   5.170   4.258  10.153 -3.0247 -0.7904  0.8057
 3340TP3      O21838   1.663   3.685   2.069 -0.8997 -0.6632 -0.2779
 3340TP3     H121839   1.639   3.740   2.144  0.2313 -0.9692  0.3373
 3340TP3     H221840   1.647   3.595   2.099 -2.1147 -0.7152 -1.0450
 3341TP3      O21841   3.963   4.889   1.049  0.8580 -0.4274  0.4144
 3341TP3     H121842   3.955   4.826   0.977 -0.5119 -1.2311  1.2386
 3341TP3     H221843   3.969   4.835   1.128  2.1422  0.4456  0.9590
 3342TP3      O21844   1.457   2.036   0.542  0.7230  0.2202  0.3312
 3342TP3     H121845   1.369   2.059   0.510  0.5724  1.7404  1.7088
 3342TP3     H221846   1.482   1.960   0.489 -0.7021  0.7999 -1.3027
 3343TP3      O21847   2.858   0.707   9.897 -0.4848 -0.3461  0.4166
 3343TP3     H121848   2.907   0.739   9.973 -0.5045 -0.7359  0.5930
 3343TP3     H221849   2.920   0.713   9.824 -1.1931  2.3897 -0.0689
 3344TP3      O21850   4.693   2.566   0.516  0.3192 -0.3389  0.4330
 3344TP3     H121851   4.650   2.565   0.431  2.0448 -1.5499 -0.4965
 3344TP3     H221852   4.735   2.652   0.521 -1.4466  0.5334  1.0027
 3345TP3      O21853   5.178   0.203   2.769 -0.0636  0.2173 -0.0875
 3345TP3     H121854   5.181   0.153   2.850  0.8788 -0.9806 -0.8223
 3345TP3     H221855   5.093   0.182   2.731 -0.5754  0.9070  0.6387
 3346TP3      O21856   0.588   4.865   1.398 -0.3007 -0.1068  0.0461
 3346TP3     H121857   0.566   4.949   1.438 -2.8462 -0.6690 -0.0466
 3346TP3     H221858   0.682   4.854   1.417 -0.1076  2.2959  0.8405
 3347TP3      O21859   1.728   1.243   1.928 -0.2657 -0.5052 -0.2320
 3347TP3     H121860   1.793   1.284   1.985 -1.6411  1.7970 -0.1851
 3347TP3     H221861   1.656   1.306   1.925 -2.1073 -2.5376 -1.0160
 3348TP3      O21862   1.794   1.562   1.647 -0.3831 -0.0210  0.2362
 3348TP3     H121863   1.752   1.544   1.562 -0.2806  0.2805  0.1216
 3348TP3     H221864   1.850   1.485   1.662  2.7327  1.5958 -1.9104
 3349TP3      O21865   2.714   0.444   0.039  0.0282 -0.3993 -0.2556
 3349TP3     H121866   2.626   0.449   0.002 -0.1995 -1.4940  0.1272
 3349TP3     H221867   2.732   0.534   0.068 -0.5366  0.0620 -1.2870
 3350TP3      O21868   3.950   3.409   9.174  0.0473 -0.0132  0.2829
 3350TP3     H121869   4.007   3.482   9.151 -1.5518  1.3019  0.2604
 3350TP3     H221870   3.991   3.333   9.134  2.3549  0.6564  1.2341
 3351TP3      O21871   4.838   4.416   8.738  0.2560  0.0295  0.4642
 3351TP3     H121872   4.867   4.506   8.749  0.6514 -0.0850  0.3789
 3351TP3     H221873   4.744   4.419   8.754  0.1762  0.5483 -0.0711
 3352TP3      O21874   1.225   3.404   8.961 -0.5419 -0.4776  0.1340
 3352TP3     H121875   1.265   3.400   9.048 -0.8942  1.4494  0.4314
 3352TP3     H221876   1.278   3.467   8.913 -0.6262 -1.1885 -0.9293
 3353TP3      O21877   3.037   1.187   0.150  0.4289  0.6281  0.3346
 3353TP3     H121878   3.129   1.204   0.169  0.4950  3.4633 -1.8588
 3353TP3     H221879   2.989   1.241   0.213  0.2812  0.1353  0.6510
 3354TP3      O21880   0.465   0.720   1.643  0.5445 -0.5982  0.0405
 3354TP3     H121881   0.378   0.759   1.629  0.4210 -0.8529  0.0878
 3354TP3     H221882   0.449   0.649   1.706  0.1655 -2.9105 -2.4920
 3355TP3      O21883   3.664   2.805   0.541 -0.5694 -0.3428  0.2190
 3355TP3     H121884   3.701   2.798   0.629 -0.6760 -1.0592  0.2122
 3355TP3     H221885   3.604   2.880   0.546 -1.4562 -1.0945  1.0737
 3356TP3      O21886   2.667   3.748   0.507 -0.1631 -0.4226 -0.0704
 3356TP3     H121887   2.660   3.690   0.583  0.9204  0.3439  0.6623
 3356TP3     H221888   2.721   3.821   0.539 -0.0804  0.1427 -1.4521
 3357TP3      O21889   2.610   0.780   0.335 -0.5698  0.0077 -0.3996
 3357TP3     H121890   2.548   0.835   0.287  0.7819  1.1857 -0.9100
 3357TP3     H221891   2.681   0.765   0.272  1.2533  1.5889  1.1651
 3358TP3      O21892   0.148   1.184   1.263 -0.2803  0.7444 -0.6260
 3358TP3     H121893   0.228   1.197   1.212 -1.0184  1.6782 -1.5960
 3358TP3     H221894   0.092   1.257   1.238 -2.2537 -0.9892 -1.5601
 3359TP3      O21895   1.615   3.140   1.727  0.2530 -0.0796  0.2053
 3359TP3     H121896   1.685   3.097   1.775  1.7738 -0.5818 -2.2661
 3359TP3     H221897   1.577   3.202   1.790  1.8553 -0.9155  2.0971
 3360TP3      O21898   4.094   0.486   1.066 -0.2540 -0.3386 -0.0410
 3360TP3     H121899   4.169   0.438   1.102 -0.7350 -1.1251 -0.0633
 3360TP3     H221900   4.110   0.577   1.091  0.5113 -0.5530  0.2898
 3361TP3      O21901   1.875   0.863   0.517  0.4109 -0.7304  0.4151
 3361TP3     H121902   1.833   0.779   0.534  0.9587 -1.2399 -0.6502
 3361TP3     H221903   1.957   0.841   0.474  1.0733  0.3097  1.0841
 3362TP3      O21904   0.105   5.138   2.806  0.3186  0.6107 -0.0323
 3362TP3     H121905   0.135   5.217   2.852  3.1276  1.1834 -2.4955
 3362TP3     H221906   0.184   5.084   2.797 -1.5581 -2.7906  1.8257
 3363TP3      O21907   0.795   2.122   9.435  0.2223 -0.0902 -0.3628
 3363TP3     H121908   0.714   2.156   9.397 -0.0504 -1.0892 -0.7334
 3363TP3     H221909   0.799   2.032   9.402  1.4638 -0.0606 -0.3162
 3364TP3      O21910   0.531   1.901   7.420  0.1369 -0.2178  0.2616
 3364TP3     H121911   0.486   1.980   7.451  0.7216  1.0805 -1.9237
 3364TP3     H221912   0.475   1.869   7.349 -0.0933 -1.8001  1.1319
 3365TP3      O21913   1.771   3.354   1.028 -0.5609  0.3466  0.4936
 3365TP3     H121914   1.839   3.337   0.963 -0.8205  1.9812 -0.2774
 3365TP3     H221915   1.692   3.315   0.991 -0.7271  1.3447 -0.2632
 3366TP3      O21916   2.119   3.213   9.663 -0.4445  0.0409 -0.1736
 3366TP3     H121917   2.214   3.208   9.651 -0.1803  1.1682  1.1761
 3366TP3     H221918   2.101   3.148   9.731 -0.4182  0.8074  0.5778
 3367TP3      O21919   3.339   2.708   1.529 -0.2812 -0.4778 -0.2275
 3367TP3     H121920   3.311   2.671   1.612  0.6758 -0.2184  0.2177
 3367TP3     H221921   3.357   2.800   1.547 -1.9925  0.0818 -1.1797
 3368TP3      O21922   4.859   4.330   3.713  0.2616  0.0671  0.0322
 3368TP3     H121923   4.777   4.321   3.762  0.0718 -0.2623 -0.3350
 3368TP3     H221924   4.855   4.419   3.676 -0.3381 -0.2488 -0.6928
 3369TP3      O21925   1.784   1.409   2.169  0.1796 -0.0253  0.2197
 3369TP3     H121926   1.756   1.482   2.224 -0.7132  0.1233 -0.4089
 3369TP3     H221927   1.747   1.331   2.211 -2.5036  0.2815 -1.3343
 3370TP3      O21928   3.470   2.843   9.487 -0.4020  0.0806  0.2073
 3370TP3     H121929   3.526   2.804   9.554 -2.0080 -0.7738  1.1260
 3370TP3     H221930   3.387   2.796   9.495 -1.6031  1.9910 -0.3772
 3371TP3      O21931   2.792   2.241   9.564  0.4687  0.1358  0.2286
 3371TP3     H121932   2.816   2.252   9.656 -0.2373  0.4344  0.3784
 3371TP3     H221933   2.747   2.322   9.541  0.3204 -0.0873 -0.2791
 3372TP3      O21934   2.036   4.152   8.863 -0.4641  0.2392  0.2792
 3372TP3     H121935   1.961   4.205   8.836 -0.6389 -0.5692 -0.9116
 3372TP3     H221936   2.012   4.063   8.839  1.4171  0.1108 -1.3964
 3373TP3      O21937   5.209   2.459   1.562  0.3763 -0.3202 -0.2857
 3373TP3     H121938   5.235   2.474   1.472  0.1778  1.5810 -0.0643
 3373TP3     H221939   5.141   2.392   1.556  1.2560 -1.1475 -1.3995
 3374TP3      O21940   0.822   4.462   2.803  0.2618  0.5777 -0.3162
 3374TP3     H121941   0.779   4.541   2.769  0.8995  0.0461 -2.5667
 3374TP3     H221942   0.915   4.479   2.793  0.6385  1.0483  2.9555
 3375TP3      O21943   4.217   2.606   9.454 -0.3580  0.5634  0.4134
 3375TP3     H121944   4.203   2.665   9.380  0.7546 -0.7388 -0.9175
 3375TP3     H221945   4.240   2.663   9.527  1.6233  1.7569 -1.0567
 3376TP3      O21946   2.630   5.042   8.765  0.4373 -0.0911  0.1349
 3376TP3     H121947   2.719   5.009   8.752  0.4310 -0.2526  0.4865
 3376TP3     H221948   2.641   5.124   8.813  0.4131  0.0225 -0.0566
 3377TP3      O21949   0.622   3.058   8.224  0.0260 -0.0072 -0.0877
 3377TP3     H121950   0.698   3.070   8.281  0.2959  0.5458 -0.5539
 3377TP3     H221951   0.601   3.146   8.193  0.1793 -0.3478 -1.2032
 3378TP3      O21952   3.014   0.083   1.656 -0.2855  0.1087 -0.3644
 3378TP3     H121953   3.086   0.022   1.671  1.5059  1.5600 -2.3549
 3378TP3     H221954   2.944   0.029   1.618  0.5442 -1.0040 -0.3565
 3379TP3      O21955   2.933   1.270   0.690  0.3136  0.2683  0.1733
 3379TP3     H121956   2.889   1.355   0.682 -0.3002  0.0163  0.8359
 3379TP3     H221957   2.890   1.214   0.626  0.9363  0.5291 -0.4969
 3380TP3      O21958   4.179   3.114   9.907  0.3607  0.0603 -0.1642
 3380TP3     H121959   4.114   3.046   9.891  0.7393 -0.5792  0.8754
 3380TP3     H221960   4.202   3.104  10.000  0.3084  1.7252  0.0601
 3381TP3      O21961   1.730   2.451   1.904  0.2003 -0.5675 -0.0441
 3381TP3     H121962   1.658   2.502   1.868 -1.4125 -1.4901  1.7023
 3381TP3     H221963   1.742   2.379   1.842 -1.3056 -1.1231  0.2656
 3382TP3      O21964   5.211   4.654   1.549  0.1306 -0.5499  0.2708
 3382TP3     H121965   5.287   4.689   1.595  0.6665 -1.3623  0.0222
 3382TP3     H221966   5.136   4.675   1.606  0.6727 -0.7594  1.0782
 3383TP3      O21967   2.733   0.385   9.845 -0.3209 -0.0293  0.1405
 3383TP3     H121968   2.781   0.457   9.804  2.2697 -1.2183  0.8449
 3383TP3     H221969   2.748   0.398   9.939 -1.7487 -0.2456  0.4122
 3384TP3      O21970   1.041   4.712   8.269 -0.3007  0.3229  0.1155
 3384TP3     H121971   1.058   4.709   8.175 -0.0471  1.1796  0.1322
 3384TP3     H221972   1.061   4.802   8.295  0.8780 -0.2247  1.2217
 3385TP3      O21973   4.058   2.570   7.007 -0.7062  0.4610  0.2483
 3385TP3     H121974   4.049   2.654   7.052 -1.4622 -0.1569  1.2779
 3385TP3     H221975   4.117   2.519   7.062 -2.6192 -0.7527  1.2706
 3386TP3      O21976   4.581   4.493   9.815 -0.0642  0.0800  0.4728
 3386TP3     H121977   4.541   4.580   9.811  1.5152  0.8810  1.0343
 3386TP3     H221978   4.551   4.449   9.735 -1.7269  0.7360  0.7061
 3387TP3      O21979   3.623   4.483   2.356  0.6129 -0.4452  0.0887
 3387TP3     H121980   3.587   4.434   2.282 -1.5271  2.4193 -0.9642
 3387TP3     H221981   3.711   4.508   2.327  0.7147 -1.4127 -0.4656
 3388TP3      O21982   1.130   2.240   0.115  0.0527 -0.4585  0.3503
 3388TP3     H121983   1.135   2.158   0.066 -1.7782 -0.3079 -0.1702
 3388TP3     H221984   1.038   2.267   0.106  0.7059  1.8680  0.1709
 3389TP3      O21985   0.490   1.720   0.965  0.2802 -0.1022  0.0756
 3389TP3     H121986   0.434   1.790   0.998  1.3862  0.8275  0.0169
 3389TP3     H221987   0.508   1.667   1.043  2.4859  1.8135  0.9753
 3390TP3      O21988   2.081   2.027   1.927 -0.4107  0.0313  0.5234
 3390TP3     H121989   2.167   2.023   1.884  0.0093  1.7881  1.0942
 3390TP3     H221990   2.021   2.056   1.859 -0.0839  1.0836  0.6681
 3391TP3      O21991   3.746   0.925   1.326  0.0590 -0.4048  0.1115
 3391TP3     H121992   3.712   0.947   1.412  2.3187  0.8575  0.7437
 3391TP3     H221993   3.775   0.834   1.334  0.6669 -0.1548  0.8456
 3392TP3      O21994   1.767   0.732   2.068 -0.1779  0.2900 -0.2780
 3392TP3     H121995   1.792   0.824   2.079 -1.2483  0.3654  2.1359
 3392TP3     H221996   1.675   0.734   2.042 -0.6980 -0.0771  1.4327
 3393TP3      O21997   2.094   2.916   7.188  0.1110 -0.5910 -0.4308
 3393TP3     H121998   2.170   2.862   7.213  1.2075  0.3663 -1.5155
 3393TP3     H221999   2.023   2.853   7.178  0.1290 -1.2830  2.7422
 3394TP3      O22000   3.940   0.809   0.353  0.9701  0.6918  0.3220
 3394TP3     H122001   3.879   0.816   0.280  0.3427 -0.5639  0.6988
 3394TP3     H222002   3.964   0.900   0.372  0.6188  1.0830 -0.9871
 3395TP3      O22003   1.012   2.419   2.141  0.2378 -0.3910 -0.1286
 3395TP3     H122004   1.014   2.365   2.220 -2.1196  0.4446  0.6010
 3395TP3     H222005   0.979   2.359   2.073  0.8751 -0.7362 -0.1385
 3396TP3      O22006   0.551   3.075   1.821  0.2599  0.2165  0.5379
 3396TP3     H122007   0.611   3.020   1.871  1.0450 -0.0903 -0.7092
 3396TP3     H222008   0.606   3.117   1.756 -0.5569  1.4650  0.6149
 3397TP3      O22009   4.387   4.286   3.997 -0.3121  0.2121  0.2520
 3397TP3     H122010   4.352   4.203   3.966 -0.7973  0.4015  0.2848
 3397TP3     H222011   4.314   4.348   3.988  0.0496  0.6397  0.2012
 3398TP3      O22012   2.739   2.598   9.187 -0.3675 -0.0343  0.3425
 3398TP3     H122013   2.668   2.534   9.176  0.3234 -1.2510  2.3385
 3398TP3     H222014   2.773   2.610   9.099 -0.8515 -2.0806 -0.1906
 3399TP3      O22015   4.693   1.966   8.185  0.2143  0.6705 -0.1244
 3399TP3     H122016   4.739   1.987   8.266 -0.2872  0.8450  0.1140
 3399TP3     H222017   4.706   2.043   8.129  0.4272  0.6132 -0.1570
 3400TP3      O22018   2.885   2.290   8.850 -0.1355 -0.0448 -0.1291
 3400TP3     H122019   2.871   2.385   8.856  0.5206 -0.0138  1.1657
 3400TP3     H222020   2.808   2.252   8.892 -1.0338 -0.1494 -1.7899
 3401TP3      O22021   2.760   1.687   8.300  0.1734 -0.1738  0.1611
 3401TP3     H122022   2.764   1.652   8.389  1.4872 -1.3651 -0.3257
 3401TP3     H222023   2.844   1.731   8.287  0.5205 -1.0914 -0.8902
 3402TP3      O22024   4.949   1.618   2.891 -0.8080  0.6072 -0.9117
 3402TP3     H122025   5.000   1.692   2.860 -0.9692  0.9529 -0.3577
 3402TP3     H222026   4.974   1.608   2.983 -1.6595  0.7187 -0.6643
 3403TP3      O22027   1.740   3.977   2.945  0.1968  0.1899 -0.5983
 3403TP3     H122028   1.737   3.909   3.012 -0.3253  0.5984 -0.1989
 3403TP3     H222029   1.758   4.058   2.994 -1.6190  0.7235 -0.7509
 3404TP3      O22030   2.445   3.998   1.898  0.7433  0.0704  0.1983
 3404TP3     H122031   2.356   4.020   1.871  0.1045 -2.0563  0.3257
 3404TP3     H222032   2.436   3.969   1.989  1.6887  0.4715  0.4331
 3405TP3      O22033   4.466   2.990   7.597 -0.0426 -0.2927 -0.1341
 3405TP3     H122034   4.443   2.899   7.611  0.3321 -0.3069  0.4244
 3405TP3     H222035   4.435   3.010   7.509 -1.6893 -0.4584  0.3729
 3406TP3      O22036   1.264   2.982   8.955  0.0731  0.5179  0.0385
 3406TP3     H122037   1.293   2.919   8.889  0.8164  0.2288  0.6090
 3406TP3     H222038   1.346   3.017   8.991 -0.3187  0.9041  0.5707
 3407TP3      O22039   1.476   2.440   3.412 -0.0343 -0.0007 -0.2749
 3407TP3     H122040   1.391   2.422   3.371  0.4456  0.3838 -1.5088
 3407TP3     H222041   1.518   2.355   3.418 -0.0605 -0.0512 -0.7374
 3408TP3      O22042   4.019   4.268   1.628 -0.1975  0.6519 -0.4122
 3408TP3     H122043   3.987   4.229   1.709 -0.7055  0.9387 -0.4675
 3408TP3     H222044   3.961   4.235   1.560 -0.8921  1.7965 -0.4028
 3409TP3      O22045   2.595   0.332   0.994  0.2431 -0.2252  0.4509
 3409TP3     H122046   2.551   0.397   0.940 -2.7248 -1.6019  1.0399
 3409TP3     H222047   2.678   0.317   0.949  0.0660  2.2749 -0.9142
 3410TP3      O22048   0.276   1.604   2.696  0.2449  0.3464 -0.4373
 3410TP3     H122049   0.361   1.592   2.738 -0.4984 -1.7897  0.6456
 3410TP3     H222050   0.244   1.515   2.681 -2.9816  0.9402  1.7581
 3411TP3      O22051   3.370   0.220   0.201 -0.1405 -0.1152  0.0305
 3411TP3     H122052   3.445   0.279   0.211 -0.9061  0.6360  1.6897
 3411TP3     H222053   3.372   0.195   0.109  1.4539  0.8293 -0.2323
 3412TP3      O22054   4.620   0.694   3.589 -0.1076 -0.1075  0.2209
 3412TP3     H122055   4.594   0.660   3.675 -0.2687  0.2324  0.3044
 3412TP3     H222056   4.547   0.670   3.531  0.7060 -1.7970 -0.1873
 3413TP3      O22057   0.754   4.231   9.542  0.3305  0.0389 -0.2319
 3413TP3     H122058   0.730   4.321   9.520  0.8407 -0.0282 -1.1096
 3413TP3     H222059   0.745   4.226   9.637  1.8046  1.4792  0.0347
 3414TP3      O22060   3.894   4.964   8.302  0.4133  0.5673  0.3041
 3414TP3     H122061   3.821   4.934   8.357  0.4098 -1.2012 -0.5572
 3414TP3     H222062   3.970   4.916   8.335  0.1555 -1.7125 -1.9847
 3415TP3      O22063   2.860   0.015   3.372 -0.4036  0.3634 -0.4603
 3415TP3     H122064   2.774  -0.002   3.411  0.4534  0.4036  1.5926
 3415TP3     H222065   2.871   0.110   3.381  0.2753  0.2282  0.3175
 3416TP3      O22066   1.050   0.568   0.862  0.6115  0.2158  0.0741
 3416TP3     H122067   1.054   0.664   0.856  0.9919  0.1838 -0.1906
 3416TP3     H222068   0.997   0.542   0.787  1.2643  0.1591 -0.3749
 3417TP3      O22069   4.688   0.587   9.493 -0.4523  0.3598 -0.1293
 3417TP3     H122070   4.633   0.629   9.559  0.5418  0.7543  0.4571
 3417TP3     H222071   4.657   0.496   9.491  1.6033 -0.5789  3.2880
 3418TP3      O22072   0.624   3.585   7.655 -0.0248  0.3576  0.0589
 3418TP3     H122073   0.547   3.628   7.617  0.3940 -0.6722 -2.1401
 3418TP3     H222074   0.649   3.520   7.589  1.0248 -1.3251  2.0061
 3419TP3      O22075   2.866   2.218   8.303  0.7691  0.2011  0.1470
 3419TP3     H122076   2.903   2.142   8.258  1.6766  0.8858 -0.3087
 3419TP3     H222077   2.921   2.230   8.380 -0.2530 -0.4480  0.9984
 3420TP3      O22078   4.933   2.754   9.962  0.1252 -0.3536  0.0835
 3420TP3     H122079   4.932   2.817  10.034  1.0625 -0.4778  0.2235
 3420TP3     H222080   4.964   2.804   9.886  0.5206 -0.5484  0.1095
 3421TP3      O22081   1.917   2.414   8.474 -0.3814 -0.1166 -0.0682
 3421TP3     H122082   1.844   2.466   8.441 -0.0557  0.3718 -0.0331
 3421TP3     H222083   1.979   2.412   8.402 -0.8207 -1.3221 -0.4325
 3422TP3      O22084   3.302   5.174   0.374 -0.1161 -0.1660 -0.9688
 3422TP3     H122085   3.366   5.113   0.337 -1.4469 -1.1735 -1.6913
 3422TP3     H222086   3.343   5.260   0.364  1.4257 -0.8249 -0.7437
 3423TP3      O22087   4.905   3.255   2.307  0.4291  0.0431  0.3111
 3423TP3     H122088   5.000   3.249   2.300  0.3315 -1.8744  0.0069
 3423TP3     H222089   4.875   3.164   2.301 -1.2788  0.3536  2.8169
 3424TP3      O22090   0.999   4.420   7.901  0.7671  0.0660 -0.1321
 3424TP3     H122091   0.942   4.394   7.829  0.3475  0.7924 -0.0658
 3424TP3     H222092   1.061   4.347   7.910 -0.8063 -1.2614  0.5225
 3425TP3      O22093   1.131   1.315   0.575 -0.0566  0.4307 -0.2979
 3425TP3     H122094   1.112   1.369   0.652 -0.2013  0.6426 -0.4816
 3425TP3     H222095   1.144   1.378   0.505 -2.1515  0.1872 -0.9617
 3426TP3      O22096   2.773   5.096   2.208 -0.4108 -0.1713  0.5759
 3426TP3     H122097   2.780   5.023   2.270  1.1409 -1.0084 -0.5248
 3426TP3     H222098   2.754   5.055   2.124  1.4582  0.5470 -0.2634
 3427TP3      O22099   4.101   0.483   6.633 -0.0875 -0.1234 -0.1322
 3427TP3     H122100   4.012   0.475   6.667 -0.1862 -2.2118 -0.7214
 3427TP3     H222101   4.134   0.393   6.631  2.7611  0.7563  1.8559
 3428TP3      O22102   0.258   0.612   0.500  0.4584 -0.0985 -0.4898
 3428TP3     H122103   0.223   0.693   0.537  0.3349 -0.6314  0.5844
 3428TP3     H222104   0.212   0.542   0.546  0.2201 -0.7974 -1.7280
 3429TP3      O22105   0.080   3.580   7.425 -0.4164  0.3003 -0.4833
 3429TP3     H122106   0.075   3.675   7.410  0.0294  0.2542 -0.9725
 3429TP3     H222107   0.136   3.548   7.354 -1.6294 -0.5178 -1.1061
 3430TP3      O22108   3.041   1.947   2.127 -0.0259 -0.3960 -0.1248
 3430TP3     H122109   2.987   1.991   2.060 -0.3093 -0.0398  0.3345
 3430TP3     H222110   3.128   1.941   2.087  0.0941  0.8391 -0.0985
 3431TP3      O22111   3.343   1.585   1.137 -0.2173 -0.1481 -0.8765
 3431TP3     H122112   3.267   1.597   1.193  0.1927  0.9766 -0.5188
 3431TP3     H222113   3.413   1.556   1.196  0.0533  0.4291 -0.9038
 3432TP3      O22114   0.018   5.095   9.654  0.0293  0.0333  0.5750
 3432TP3     H122115   0.052   5.028   9.595  1.8600  0.1097  1.4547
 3432TP3     H222116   0.097   5.141   9.684 -1.0827  1.8248  0.8855
 3433TP3      O22117   4.104   0.329   0.831  0.4327  0.1404  0.3114
 3433TP3     H122118   4.135   0.405   0.881  0.6767 -0.0762  0.4911
 3433TP3     H222119   4.050   0.280   0.894  0.2927  0.1555  0.2021
 3434TP3      O22120   1.610   0.636   8.588  0.3984 -0.7790 -1.0015
 3434TP3     H122121   1.552   0.682   8.648  0.5486 -0.9575 -0.7204
 3434TP3     H222122   1.585   0.544   8.594  1.9637 -1.1609  0.5793
 3435TP3      O22123   4.812   4.975   0.942  0.2412  0.8290 -0.6322
 3435TP3     H122124   4.855   4.889   0.939  1.9682  1.6816 -1.6390
 3435TP3     H222125   4.723   4.956   0.971  1.1706 -1.0564  1.2252
 3436TP3      O22126   3.555   0.317   1.090 -0.3912 -0.0224  0.0115
 3436TP3     H122127   3.570   0.296   1.182  2.1141  1.6392  0.0741
 3436TP3     H222128   3.534   0.233   1.049  0.1693 -1.0746  1.7918
 3437TP3      O22129   4.626   0.726   8.763 -0.1743  0.1752  0.1553
 3437TP3     H122130   4.546   0.692   8.804  0.4075  0.1846  1.3131
 3437TP3     H222131   4.618   0.821   8.770 -0.0501  0.1759  0.2673
 3438TP3      O22132   5.001   2.077   0.813 -0.1995 -0.3688 -0.2173
 3438TP3     H122133   5.046   2.004   0.770  0.0393  0.3761 -1.2634
 3438TP3     H222134   4.952   2.120   0.743 -0.8333  0.1086  0.5100
 3439TP3      O22135   3.077   1.256   7.958  0.1548  0.1304  0.1724
 3439TP3     H122136   3.034   1.335   7.991 -0.1173  0.3544 -0.7001
 3439TP3     H222137   3.022   1.184   7.987 -0.0044  0.3126  0.3210
 3440TP3      O22138   0.313   2.801   1.165 -0.0892  0.3529 -0.1709
 3440TP3     H122139   0.390   2.747   1.178 -1.0278 -0.3997  3.1816
 3440TP3     H222140   0.308   2.856   1.243 -1.0519  2.9465 -1.9131
 3441TP3      O22141   4.814   1.492   8.118 -0.4994 -0.1802  0.4659
 3441TP3     H122142   4.814   1.578   8.076 -0.1086 -0.5690 -0.3623
 3441TP3     H222143   4.862   1.506   8.200 -0.0905  0.3116  0.1556
 3442TP3      O22144   1.696   4.943   1.843 -0.8712 -0.4470  0.3656
 3442TP3     H122145   1.703   4.852   1.815 -0.3683  0.1401 -1.5763
 3442TP3     H222146   1.642   4.984   1.775  0.0977  1.0012  0.4382
 3443TP3      O22147   3.441   3.086   7.292 -0.1552  0.3435  0.0247
 3443TP3     H122148   3.404   3.149   7.230 -0.1624  0.3980  0.0834
 3443TP3     H222149   3.430   3.001   7.250 -1.3041  0.2424  0.4948
 3444TP3      O22150   4.276   4.922   2.123 -0.4928  0.3788 -0.6221
 3444TP3     H122151   4.216   4.848   2.134 -1.9576  1.5537 -0.3105
 3444TP3     H222152   4.335   4.895   2.053  0.7059 -2.0991  1.1588
 3445TP3      O22153   3.831   4.434   0.095 -0.0879 -0.4821  0.0896
 3445TP3     H122154   3.831   4.374   0.020 -1.0342 -0.2849 -0.0852
 3445TP3     H222155   3.840   4.521   0.057  1.3605 -0.4933  0.3498
 3446TP3      O22156   1.381   4.277   0.663  0.6100  0.1508  0.5233
 3446TP3     H122157   1.364   4.199   0.714 -0.1651  0.0503  0.1335
 3446TP3     H222158   1.447   4.251   0.599 -1.8574 -1.1415 -1.6806
 3447TP3      O22159   1.752   2.211  10.111  0.0367  0.2205 -0.0766
 3447TP3     H122160   1.752   2.303  10.083 -0.3129  0.3199  0.2509
 3447TP3     H222161   1.844   2.193  10.133  0.1218  0.4617 -0.2272
 3448TP3      O22162   1.922   2.738   8.627  0.4456 -0.5904  0.0803
 3448TP3     H122163   1.950   2.654   8.661  0.4596 -0.1481  1.2134
 3448TP3     H222164   1.922   2.796   8.703 -0.8209  0.1132 -0.4139
 3449TP3      O22165   3.631   1.139   2.031 -0.0888 -0.1760 -0.1485
 3449TP3     H122166   3.691   1.080   1.986 -0.2129 -1.1297  0.8879
 3449TP3     H222167   3.546   1.095   2.026 -0.2023 -0.0571  0.5577
 3450TP3      O22168   2.417   0.125   1.900  0.0830 -0.1707 -0.4776
 3450TP3     H122169   2.461   0.096   1.821  1.6083 -0.6265  0.4950
 3450TP3     H222170   2.429   0.220   1.901 -0.0713 -0.1455 -0.8645
 3451TP3      O22171   1.849   0.097   7.991  0.0133  0.1672 -0.4897
 3451TP3     H122172   1.799   0.018   7.972  1.4070 -0.3649 -2.3011
 3451TP3     H222173   1.783   0.164   8.008 -1.2370 -0.9790 -0.6936
 3452TP3      O22174   4.715   2.195   8.053 -0.2089  0.5517  0.1154
 3452TP3     H122175   4.710   2.263   8.120 -0.9861  0.2920  0.3349
 3452TP3     H222176   4.719   2.243   7.970  0.5255  0.8703  0.3261
 3453TP3      O22177   4.778   4.409  10.284 -0.0368 -0.2209  0.0111
 3453TP3     H122178   4.765   4.489  10.336  0.4516  0.2860 -0.6212
 3453TP3     H222179   4.776   4.338  10.348  1.1707  0.4370  0.8236
 3454TP3      O22180   2.049   0.634   8.188 -0.0855 -0.2142  0.3839
 3454TP3     H122181   2.125   0.670   8.234  0.3616  2.3265 -2.0481
 3454TP3     H222182   1.974   0.671   8.235  0.3507  1.9974 -0.5345
 3455TP3      O22183   3.711   4.192   2.190 -0.2076  0.4554  0.0521
 3455TP3     H122184   3.723   4.130   2.118  1.3770 -1.1625  1.6066
 3455TP3     H222185   3.644   4.253   2.159 -2.9787 -2.8385 -1.0694
 3456TP3      O22186   1.541   3.054   7.236 -0.0470 -0.1842  0.1635
 3456TP3     H122187   1.629   3.092   7.233  0.0311 -0.4326 -1.4373
 3456TP3     H222188   1.497   3.101   7.307  0.5109  1.8921 -0.8096
 3457TP3      O22189   0.194   3.008   1.795 -0.2671 -0.0276 -0.4520
 3457TP3     H122190   0.244   2.926   1.801  1.1527  0.8630  0.3263
 3457TP3     H222191   0.104   2.982   1.816  0.1878 -1.3543 -0.0028
 3458TP3      O22192   4.999   3.245   1.081 -0.5202  0.5001 -0.1885
 3458TP3     H122193   5.054   3.264   1.158 -0.4683 -1.1509  0.2192
 3458TP3     H222194   5.054   3.268   1.006  0.7470 -1.0124  0.2127
 3459TP3      O22195   3.782   2.902   0.786 -0.4134 -0.4615 -0.1028
 3459TP3     H122196   3.773   2.985   0.832  0.3572 -0.5345  0.1970
 3459TP3     H222197   3.869   2.907   0.745  1.0642 -2.3111  2.4638
 3460TP3      O22198   1.126   4.888   6.358  0.0837  0.5127 -0.5226
 3460TP3     H122199   1.075   4.900   6.278  1.9567 -0.9335 -2.0624
 3460TP3     H222200   1.065   4.850   6.421 -1.7207  2.6893 -0.8367
 3461TP3      O22201   4.471   1.633   2.301  0.0207 -0.1851  0.3017
 3461TP3     H122202   4.417   1.613   2.225  1.5203  1.7972 -1.3928
 3461TP3     H222203   4.471   1.552   2.352  0.8932 -2.4908 -3.0410
 3462TP3      O22204   3.844   1.311   0.164 -0.3499  0.3163 -0.5885
 3462TP3     H122205   3.763   1.280   0.125  0.0765 -0.8706 -0.5672
 3462TP3     H222206   3.842   1.406   0.151 -1.7613  0.3193 -0.5301
 3463TP3      O22207   0.480   1.061  10.208  0.3152 -0.0491 -0.2048
 3463TP3     H122208   0.547   1.125  10.186  0.0705  0.1669 -0.3197
 3463TP3     H222209   0.524   0.976  10.199  1.0205  0.1425  1.2396
 3464TP3      O22210   1.965   3.537   1.109  0.4290 -0.4091  0.0115
 3464TP3     H122211   1.884   3.516   1.061 -0.1663  1.3884  0.1431
 3464TP3     H222212   1.976   3.464   1.170 -0.8384 -0.9270 -0.3420
 3465TP3      O22213   1.536   0.795   1.118 -0.2775  0.5066 -0.2110
 3465TP3     H122214   1.479   0.725   1.151 -0.0158  0.9088  1.1948
 3465TP3     H222215   1.477   0.860   1.081 -0.6354  0.2840 -0.0340
 3466TP3      O22216   3.446   3.046   7.895  0.2781  0.7752 -0.4035
 3466TP3     H122217   3.452   3.140   7.910  0.9716  0.5934  0.5925
 3466TP3     H222218   3.461   3.007   7.981 -0.9750 -0.2293 -0.6058
 3467TP3      O22219   3.909   0.644   1.725  0.4484 -0.1638 -0.4739
 3467TP3     H122220   4.001   0.639   1.753 -0.0338 -0.4694  1.1125
 3467TP3     H222221   3.907   0.592   1.644  1.7974  0.3871 -0.8960
 3468TP3      O22222   3.434   4.886   1.165  0.0870 -0.3034  0.5741
 3468TP3     H122223   3.342   4.876   1.191 -0.1625  0.3709 -0.0148
 3468TP3     H222224   3.438   4.849   1.077 -0.2874  2.1860 -0.5873
 3469TP3      O22225   2.026   0.802   1.591  0.8146 -0.5279  0.6029
 3469TP3     H122226   1.942   0.823   1.633  0.3269  1.5888 -1.2604
 3469TP3     H222227   2.048   0.715   1.625 -3.1931 -2.1627 -0.3973
 3470TP3      O22228   0.432   0.365   9.609  0.2076 -0.0512 -0.3964
 3470TP3     H122229   0.523   0.335   9.611  0.1333 -0.2776 -0.4104
 3470TP3     H222230   0.438   0.460   9.601  0.4490  0.0306  0.6064
 3471TP3      O22231   4.145   4.265   0.964  0.3868 -0.2315 -0.1703
 3471TP3     H122232   4.140   4.250   1.059  1.7800  0.3771  0.0220
 3471TP3     H222233   4.055   4.257   0.934 -0.1554  0.0825  1.2884
 3472TP3      O22234   4.340   2.051   9.297  0.0525 -0.0655 -0.1692
 3472TP3     H122235   4.274   1.988   9.326  0.8270 -0.6244  0.4362
 3472TP3     H222236   4.374   2.014   9.216 -0.9250  0.6329 -0.9161
 3473TP3      O22237   0.417   1.683   8.751 -0.1028 -0.6364  0.2558
 3473TP3     H122238   0.419   1.587   8.751  0.4546 -0.6351  1.0120
 3473TP3     H222239   0.479   1.708   8.819 -0.8075  0.2576  0.5901
 3474TP3      O22240   1.188   0.003   2.145 -0.6228 -0.5547 -0.2501
 3474TP3     H122241   1.115   0.059   2.172 -0.7229  1.0098 -3.3052
 3474TP3     H222242   1.170  -0.082   2.185 -4.9074 -0.6357 -1.9098
 3475TP3      O22243   0.478   1.224   0.168  0.3302 -0.3729  0.6005
 3475TP3     H122244   0.413   1.275   0.215  0.1120 -0.2687  0.1918
 3475TP3     H222245   0.498   1.151   0.226 -1.0481 -1.0721  0.2344
 3476TP3      O22246   2.771   0.539   3.346  0.0429 -0.5716  0.2886
 3476TP3     H122247   2.849   0.577   3.387 -0.8096 -0.0082  1.4624
 3476TP3     H222248   2.700   0.596   3.374 -0.6622 -0.3617 -1.7370
 3477TP3      O22249   1.877   4.126   8.098  0.1272 -0.3104 -0.2937
 3477TP3     H122250   1.832   4.168   8.024  1.1489  0.1477 -0.6823
 3477TP3     H222251   1.868   4.189   8.170  2.7530  1.2775 -1.2208
 3478TP3      O22252   1.240   2.098   3.021 -0.4755  0.8450 -0.0738
 3478TP3     H122253   1.188   2.042   3.078 -1.4765  2.6045  0.8260
 3478TP3     H222254   1.305   2.138   3.078  1.0769 -0.3251 -0.9489
 3479TP3      O22255   3.181   3.230   1.416 -0.1593 -0.4787  0.3242
 3479TP3     H122256   3.223   3.280   1.487 -1.2182 -1.0251  1.3770
 3479TP3     H222257   3.124   3.294   1.374 -0.5084 -0.4548  0.8177
 3480TP3      O22258   3.490   3.798   9.916  0.2720 -0.1562  0.1910
 3480TP3     H122259   3.556   3.764   9.977  0.7038 -2.2560 -1.3332
 3480TP3     H222260   3.428   3.844   9.972  2.0376  0.3266  1.8972
 3481TP3      O22261   0.441   4.785   7.623  0.4230  0.2148 -0.1446
 3481TP3     H122262   0.351   4.790   7.658  0.9280 -0.7191  1.3865
 3481TP3     H222263   0.430   4.758   7.532 -0.8379 -0.4713  0.1852
 3482TP3      O22264   0.337   0.730   2.861  0.1375  0.1011  0.3042
 3482TP3     H122265   0.411   0.791   2.851  0.1484  0.4578  2.1631
 3482TP3     H222266   0.323   0.725   2.956 -2.3140  0.1308  0.0097
 3483TP3      O22267   2.613   3.477   8.742  0.1276  0.1230  0.4632
 3483TP3     H122268   2.649   3.388   8.740  0.3225  0.2025  0.3825
 3483TP3     H222269   2.617   3.506   8.651  0.4745  0.3751  0.5593
 3484TP3      O22270   0.659   5.198   0.083 -0.3703 -0.0341 -0.1372
 3484TP3     H122271   0.750   5.224   0.072 -0.1681 -1.0195 -1.0117
 3484TP3     H222272   0.658   5.144   0.161 -0.7351  2.2171  1.5009
 3485TP3      O22273   0.924   0.611   3.087 -0.6532  0.3956  0.1486
 3485TP3     H122274   0.850   0.670   3.073  0.0671  1.2924  0.0128
 3485TP3     H222275   1.000   0.669   3.091 -0.1742 -0.3011  2.4240
 3486TP3      O22276   1.562   2.371   2.902  0.0749 -0.2455  0.3667
 3486TP3     H122277   1.570   2.466   2.894 -1.0062 -0.1402  0.3207
 3486TP3     H222278   1.606   2.337   2.824 -0.5443  0.2801 -0.2299
 3487TP3      O22279   3.978   3.372   2.366  0.2108 -0.0582 -0.6417
 3487TP3     H122280   3.902   3.410   2.323  0.0471  0.3409 -0.0135
 3487TP3     H222281   4.034   3.342   2.294  0.3601  1.3877 -1.1552
 3488TP3      O22282   2.768   2.616   1.005  0.2404  0.0152  0.0381
 3488TP3     H122283   2.809   2.596   1.089  0.2714  0.4745  0.1376
 3488TP3     H222284   2.795   2.544   0.947 -0.5298 -0.7867  0.6546
 3489TP3      O22285   5.087   0.348   0.832 -0.0167 -0.1898  0.3893
 3489TP3     H122286   5.067   0.254   0.827  2.3880 -0.7315 -0.4914
 3489TP3     H222287   5.182   0.351   0.844  0.1839  2.1476 -1.2439
 3490TP3      O22288   2.894   0.553   8.463  0.5424  0.0527 -0.4194
 3490TP3     H122289   2.854   0.638   8.484  0.7337  0.1868 -0.5886
 3490TP3     H222290   2.948   0.532   8.539 -0.6443 -0.6289  0.2712
 3491TP3      O22291   2.758   0.327   7.837  0.2705  0.0108  0.2550
 3491TP3     H122292   2.832   0.379   7.868 -0.1043  1.2220 -0.7654
 3491TP3     H222293   2.798   0.254   7.790  0.8296  0.4953 -0.0356
 3492TP3      O22294   4.509   4.533   2.130 -0.1720  0.0122 -0.4782
 3492TP3     H122295   4.556   4.598   2.077 -0.2714  0.4163 -0.0765
 3492TP3     H222296   4.561   4.453   2.120 -0.2562  0.0414 -1.2872
 3493TP3      O22297   3.109   2.991   0.627 -0.2329 -0.4156  0.1435
 3493TP3     H122298   3.174   3.041   0.677 -1.4184  1.5863 -0.1771
 3493TP3     H222299   3.153   2.967   0.546 -0.0741  1.6372 -0.4408
 3494TP3      O22300   1.989   2.190   2.386 -0.0011 -0.7029 -0.1839
 3494TP3     H122301   1.946   2.154   2.309 -0.8062 -1.8475  0.7783
 3494TP3     H222302   1.938   2.267   2.409 -0.8273 -1.3616  0.2290
 3495TP3      O22303   1.734   5.068   7.579  0.4432 -0.4689  0.2820
 3495TP3     H122304   1.666   5.001   7.571  0.1145 -0.0366 -0.6724
 3495TP3     H222305   1.755   5.069   7.672  0.3127 -1.7532  0.3493
 3496TP3      O22306   0.615   3.905   7.681 -0.2866 -0.2419 -0.4904
 3496TP3     H122307   0.672   3.932   7.609  0.0345 -0.7332 -0.4211
 3496TP3     H222308   0.559   3.837   7.643 -0.2292 -0.3839 -0.3193
 3497TP3      O22309   1.258   1.380   2.555  0.2941  0.3443  0.1169
 3497TP3     H122310   1.208   1.461   2.549  1.8112  1.3999  0.9240
 3497TP3     H222311   1.345   1.403   2.522  1.4663 -0.2755  2.5518
 3498TP3      O22312   0.810   4.279   1.883 -0.1640 -0.4559 -0.5059
 3498TP3     H122313   0.751   4.304   1.812  0.2433 -0.4038 -0.8284
 3498TP3     H222314   0.872   4.351   1.889  0.0912 -0.6821 -0.4114
 3499TP3      O22315   1.026   0.905   2.922  0.2116 -0.3498 -0.2871
 3499TP3     H122316   1.073   0.826   2.896  2.2418  0.8716 -0.5543
 3499TP3     H222317   1.089   0.954   2.976 -1.7528  0.0796  1.8006
 3500TP3      O22318   2.299   0.186   9.701 -0.1681  0.0383  0.3840
 3500TP3     H122319   2.246   0.196   9.781 -1.3925 -2.1236 -0.0895
 3500TP3     H222320   2.378   0.141   9.731  0.7099  1.7540  0.7982
 3501TP3      O22321   0.357   0.978   8.065 -0.3243  0.7406 -0.3464
 3501TP3     H122322   0.446   1.005   8.041  0.2858  1.3701  2.2578
 3501TP3     H222323   0.331   1.041   8.133 -2.2895 -0.1582 -0.2064
 3502TP3      O22324   0.053   2.565   6.423 -0.6285  0.0191  0.6691
 3502TP3     H122325   0.061   2.541   6.515  0.2938  0.1069  0.6126
 3502TP3     H222326   0.061   2.660   6.423  1.7346 -0.1213  0.2802
 3503TP3      O22327   1.450   0.703   0.779  0.0897 -0.0971 -0.7278
 3503TP3     H122328   1.464   0.675   0.870 -0.5765  1.7092 -0.0263
 3503TP3     H222329   1.402   0.630   0.739 -1.0916 -0.2401  0.8497
 3504TP3      O22330   2.482   0.990   2.887 -0.4621 -0.4137 -0.5137
 3504TP3     H122331   2.523   0.914   2.928 -0.0172 -0.5157 -1.1263
 3504TP3     H222332   2.410   0.954   2.836  0.9055 -0.6908 -2.3564
 3505TP3      O22333   5.165   0.541   2.181 -0.8444 -0.5349  0.4038
 3505TP3     H122334   5.251   0.566   2.148 -0.6159  0.3468  1.6154
 3505TP3     H222335   5.103   0.589   2.126 -0.4955  0.2811  0.7091
 3506TP3      O22336   0.519   2.157   1.395 -0.2409  0.2669 -0.0418
 3506TP3     H122337   0.471   2.231   1.431 -0.8048  1.0503 -2.2149
 3506TP3     H222338   0.452   2.089   1.382 -0.2211  0.3210 -0.4349
 3507TP3      O22339   2.760   4.531   0.145  0.4885 -0.5051 -0.0964
 3507TP3     H122340   2.825   4.598   0.128 -0.4278  0.3429 -0.3671
 3507TP3     H222341   2.776   4.504   0.236  2.0388 -1.2629 -0.5729
 3508TP3      O22342   1.409   1.809   9.966  0.1624 -0.2557 -0.0074
 3508TP3     H122343   1.464   1.761  10.028  0.3108  1.0058  0.8783
 3508TP3     H222344   1.468   1.873   9.927 -0.0624 -0.6744 -1.0647
 3509TP3      O22345   2.113   4.643   8.686  0.4927  0.3282 -0.4115
 3509TP3     H122346   2.018   4.649   8.683  0.5291  0.7715 -0.7895
 3509TP3     H222347   2.135   4.644   8.779  0.1165  0.0213 -0.3195
 3510TP3      O22348   3.203   0.682  10.283 -0.4169  0.5693  0.0049
 3510TP3     H122349   3.113   0.655  10.266 -1.2004  2.2428  1.1619
 3510TP3     H222350   3.208   0.770  10.246  0.9305  0.2820 -0.5402
 3511TP3      O22351   2.696   1.254   1.045  0.3573  0.5477 -0.2947
 3511TP3     H122352   2.780   1.224   1.080 -0.2054  1.8834  2.4620
 3511TP3     H222353   2.717   1.335   0.998  0.6851  0.6624  0.0407
 3512TP3      O22354   0.756   5.039   8.243  0.0346 -0.3371  0.1989
 3512TP3     H122355   0.842   5.001   8.223  0.5553  0.1328  1.4680
 3512TP3     H222356   0.709   5.034   8.160  0.7592 -1.9403 -0.1695
 3513TP3      O22357   1.357   1.655   0.708 -0.1109 -0.2058 -0.5288
 3513TP3     H122358   1.298   1.660   0.784  0.8562  2.7251  0.1595
 3513TP3     H222359   1.445   1.658   0.746  0.4271  3.5895 -1.6592
 3514TP3      O22360   0.125   3.385   0.465 -0.1265  0.0641  0.5818
 3514TP3     H122361   0.160   3.362   0.379  0.0208  0.1703  0.6121
 3514TP3     H222362   0.031   3.372   0.458 -0.1056  0.0017  0.4266
 3515TP3      O22363   1.454   0.063   7.781  0.0727  0.3733  0.2682
 3515TP3     H122364   1.468   0.148   7.823  0.8627  1.2999 -1.7611
 3515TP3     H222365   1.407   0.083   7.701  1.5126 -0.9163 -0.9596
 3516TP3      O22366   0.450   3.085   0.651  0.0492 -0.2468 -0.5192
 3516TP3     H122367   0.493   3.067   0.567 -0.7454 -0.6847 -0.8382
 3516TP3     H222368   0.417   3.175   0.642  0.1438 -0.2193 -0.5967
 3517TP3      O22369   1.719   4.049   6.665  0.2895  0.4008  0.4428
 3517TP3     H122370   1.693   3.959   6.681  0.7255 -0.1619 -1.6816
 3517TP3     H222371   1.814   4.046   6.658  0.3867  1.2030  1.2523
 3518TP3      O22372   0.123   0.741   0.172  0.0460 -0.1605 -0.1262
 3518TP3     H122373   0.188   0.695   0.118 -0.8238 -1.2771 -0.2605
 3518TP3     H222374   0.055   0.676   0.188 -1.1596  1.0521 -0.1819
 3519TP3      O22375   0.690   4.488   0.159 -0.2086  0.2187 -0.3789
 3519TP3     H122376   0.740   4.557   0.114 -0.8599 -1.0187 -3.2634
 3519TP3     H222377   0.667   4.427   0.089  0.4642 -3.0631  2.0271
 3520TP3      O22378   0.969   3.244   2.258  0.6682  0.3613 -0.4907
 3520TP3     H122379   1.011   3.266   2.342  0.1388 -1.1102  0.2016
 3520TP3     H222380   0.930   3.157   2.273 -1.5738  1.1136 -1.4726
 3521TP3      O22381   4.888   4.737   2.442 -0.0922  0.1553 -0.2455
 3521TP3     H122382   4.864   4.792   2.367 -1.0995  0.2336  0.1339
 3521TP3     H222383   4.824   4.666   2.442 -1.0722  0.9801  1.4422
 3522TP3      O22384   1.956   1.695   2.502 -0.4915  0.0430 -0.4041
 3522TP3     H122385   2.012   1.719   2.576 -1.0856  0.0218  0.0619
 3522TP3     H222386   2.009   1.713   2.425 -0.0831  0.6530  0.0112
 3523TP3      O22387   1.738   4.090   0.237 -0.2721  0.0040 -0.0231
 3523TP3     H122388   1.758   4.158   0.174 -0.8569  0.9951  0.8302
 3523TP3     H222389   1.803   4.021   0.220 -0.4840  0.1852 -1.7469
 3524TP3      O22390   4.697   4.743   8.461  0.3071 -0.0460 -0.6359
 3524TP3     H122391   4.751   4.664   8.464  0.7966  0.2990 -0.1563
 3524TP3     H222392   4.693   4.765   8.368  0.6430 -0.3194 -0.7201
 3525TP3      O22393   1.225   0.740   8.651  1.1971  0.0463 -0.6091
 3525TP3     H122394   1.234   0.835   8.645 -0.5949  0.3406  0.5339
 3525TP3     H222395   1.183   0.726   8.735  1.8337 -1.8211 -0.5635
 3526TP3      O22396   0.971   2.287   2.916 -0.0602  0.1526  0.1492
 3526TP3     H122397   0.964   2.221   2.985  0.3928 -0.9089 -0.7880
 3526TP3     H222398   1.063   2.283   2.889 -0.8602 -1.7688 -2.6852
 3527TP3      O22399   3.332   3.406   8.727 -0.3268  0.1929  0.1711
 3527TP3     H122400   3.236   3.413   8.727 -0.4447 -0.3722 -2.1487
 3527TP3     H222401   3.362   3.494   8.707 -0.4646  0.0270 -0.8108
 3528TP3      O22402   0.755   5.148   7.698  0.0435  0.3713 -0.5606
 3528TP3     H122403   0.759   5.059   7.663 -2.6388 -0.7036  1.5254
 3528TP3     H222404   0.787   5.203   7.626  0.7078 -2.1472 -2.3337
 3529TP3      O22405   5.220   3.251   1.554 -0.7203  0.3620  0.3952
 3529TP3     H122406   5.192   3.334   1.515 -0.2703  0.2006 -0.2824
 3529TP3     H222407   5.151   3.231   1.617 -2.8540 -0.6195 -2.0710
 3530TP3      O22408   4.121   2.448   9.243  0.4160 -0.4964 -0.2286
 3530TP3     H122409   4.159   2.494   9.168  0.3540 -1.0504 -0.6003
 3530TP3     H222410   4.168   2.483   9.319 -0.9632  1.6458 -0.2706
 3531TP3      O22411   2.759   1.872   8.031  0.4728  0.6131 -0.2463
 3531TP3     H122412   2.801   1.813   7.968  0.2032  1.0662 -0.8558
 3531TP3     H222413   2.670   1.839   8.040  0.4657  0.6406 -0.2131
 3532TP3      O22414   4.044   3.880   9.362 -0.2740  0.1731  0.5265
 3532TP3     H122415   4.125   3.865   9.314 -0.7998 -1.6925  0.1370
 3532TP3     H222416   4.006   3.793   9.373 -1.8651  0.9201  1.3466
 3533TP3      O22417   2.705   0.273   1.923 -0.6452  0.1680 -0.1222
 3533TP3     H122418   2.639   0.340   1.902 -0.3917 -0.0432 -1.6876
 3533TP3     H222419   2.687   0.202   1.862 -0.2464 -0.7720  0.8294
 3534TP3      O22420   4.155   2.612   8.762  0.0421 -0.5174 -0.1481
 3534TP3     H122421   4.228   2.550   8.758  0.8896  0.4294  0.2736
 3534TP3     H222422   4.142   2.626   8.856 -0.9294 -0.9490 -0.2087
 3535TP3      O22423   4.272   2.257   2.529 -0.2339 -0.3864  0.3997
 3535TP3     H122424   4.201   2.234   2.469  0.1078  0.4284 -0.3254
 3535TP3     H222425   4.275   2.184   2.591 -1.2776 -0.7392  0.0577
 3536TP3      O22426   3.518   2.203   0.988  0.5170 -0.1687  0.2001
 3536TP3     H122427   3.448   2.263   0.963  0.9462  0.3624  0.2356
 3536TP3     H222428   3.496   2.120   0.946  0.0326  0.0774 -0.0352
 3537TP3      O22429   3.437   1.673   1.825 -0.2254  0.0478 -0.9395
 3537TP3     H122430   3.428   1.767   1.840  0.7749 -0.1608  1.3990
 3537TP3     H222431   3.349   1.637   1.840 -0.5996  0.5804 -1.7948
 3538TP3      O22432   4.258   1.547   2.116 -0.0582 -0.3191  0.3847
 3538TP3     H122433   4.275   1.459   2.084 -0.2570 -0.2606  0.1048
 3538TP3     H222434   4.186   1.537   2.178  0.1102 -0.3911  0.5682
 3539TP3      O22435   3.100   1.433   0.010 -0.1265 -0.2940  0.1183
 3539TP3     H122436   3.035   1.363   0.007 -1.8848  1.0491  2.7601
 3539TP3     H222437   3.157   1.410   0.083  1.1628 -0.3848 -0.8656
 3540TP3      O22438   1.957   2.174   2.095  0.2324  0.2554  0.5351
 3540TP3     H122439   1.864   2.156   2.082  0.3097 -0.0257  0.3564
 3540TP3     H222440   2.001   2.120   2.029  0.5882 -0.5857  1.4235
 3541TP3      O22441   2.928   1.400   8.794 -0.3554  0.6822 -0.0939
 3541TP3     H122442   2.993   1.339   8.758  0.8338  2.5500 -1.3282
 3541TP3     H222443   2.929   1.383   8.888  1.5136  0.2342 -0.1486
 3542TP3      O22444   1.612   1.058   8.102  0.5413 -0.1367  0.2080
 3542TP3     H122445   1.644   1.077   8.190  0.4144 -1.3959  0.5450
 3542TP3     H222446   1.658   1.120   8.046 -1.8005  2.9991  1.4796
 3543TP3      O22447   3.087   5.135  10.155 -0.1837  0.0344  0.0455
 3543TP3     H122448   3.011   5.136  10.097 -1.5227 -0.8445  1.7245
 3543TP3     H222449   3.134   5.054  10.131 -0.3939 -0.0151 -0.2064
 3544TP3      O22450   4.846   0.511   1.225  0.2775 -0.7478  0.4574
 3544TP3     H122451   4.758   0.503   1.261  0.5197 -1.1636  0.9632
 3544TP3     H222452   4.894   0.437   1.261  0.2528 -1.8145 -1.5465
 3545TP3      O22453   4.992   2.314   1.570  0.3349 -0.2419  0.5108
 3545TP3     H122454   4.921   2.266   1.528  0.7425 -0.0271 -0.4266
 3545TP3     H222455   4.960   2.331   1.659 -0.1523 -1.4994  0.5863
 3546TP3      O22456   1.979   3.792   1.222  0.0164 -0.0370 -0.5963
 3546TP3     H122457   2.074   3.783   1.229 -0.1043 -0.5662  0.8023
 3546TP3     H222458   1.949   3.705   1.194 -0.0896 -0.0281 -0.5114
 3547TP3      O22459   3.204   1.201   8.715  0.0946 -0.2417 -0.4925
 3547TP3     H122460   3.273   1.231   8.656  0.3348 -1.4813 -0.8579
 3547TP3     H222461   3.219   1.251   8.796  0.4484  0.6407 -1.0892
 3548TP3      O22462   3.616   2.577   1.456 -0.1125  0.0625 -0.4974
 3548TP3     H122463   3.550   2.563   1.388 -1.1203 -0.8376  0.6027
 3548TP3     H222464   3.595   2.511   1.523  0.0955  1.6539  1.2184
 3549TP3      O22465   4.604   4.066   8.434  0.6683 -0.1827  0.1968
 3549TP3     H122466   4.509   4.058   8.448  0.4532  0.3381 -0.7974
 3549TP3     H222467   4.615   4.049   8.340  1.3609  1.2408 -0.0055
 3550TP3      O22468   0.990   0.098   8.996 -0.2356 -0.7124  0.0857
 3550TP3     H122469   0.982   0.080   9.090  1.9310 -0.6123  0.3457
 3550TP3     H222470   0.994   0.012   8.955  0.6586 -0.7900  0.3096
 3551TP3      O22471   3.897   0.621   8.859 -0.4342 -0.4538 -0.2825
 3551TP3     H122472   3.808   0.647   8.838 -0.6445 -0.8344  0.1087
 3551TP3     H222473   3.891   0.582   8.946  0.1596 -0.2492 -0.1445
 3552TP3      O22474   1.583   0.526   0.465  0.2581  0.0396  0.0680
 3552TP3     H122475   1.602   0.464   0.395 -0.2355  0.6689 -0.6388
 3552TP3     H222476   1.667   0.539   0.509  0.5343 -0.5052 -0.2898
 3553TP3      O22477   4.012   3.141   8.140  0.2407  0.8506 -0.1090
 3553TP3     H122478   4.047   3.207   8.200 -0.1826  0.0272  1.0852
 3553TP3     H222479   3.918   3.139   8.158  0.2560 -0.0978 -0.0733
 3554TP3      O22480   3.876   0.589   9.490 -0.5601  0.0770  0.5539
 3554TP3     H122481   3.843   0.513   9.441 -1.4832  0.2395  0.8984
 3554TP3     H222482   3.797   0.635   9.519 -0.0115  1.1729  0.3601
 3555TP3      O22483   4.392   1.878   8.384  0.6370  0.2402  0.5938
 3555TP3     H122484   4.470   1.892   8.438  0.3559 -0.8686  1.3141
 3555TP3     H222485   4.319   1.903   8.439  0.4671  2.0272 -0.3442
 3556TP3      O22486   2.252   4.377   8.923 -0.2474 -0.0650 -0.5107
 3556TP3     H122487   2.330   4.338   8.886  0.8037  0.6281  0.8787
 3556TP3     H222488   2.202   4.304   8.958 -0.8348 -0.6346 -2.4320
 3557TP3      O22489   1.382   3.164   6.868  0.7848 -0.0964 -0.2531
 3557TP3     H122490   1.294   3.186   6.838  0.6088 -1.0627 -0.4603
 3557TP3     H222491   1.387   3.202   6.956  0.0088 -0.4071 -0.0709
 3558TP3      O22492   4.971   4.255   1.265  0.0157  0.4712  0.6094
 3558TP3     H122493   4.890   4.214   1.237  0.1947  1.3409 -1.4094
 3558TP3     H222494   4.967   4.343   1.228  2.0952  0.3622 -0.0207
 3559TP3      O22495   2.452   4.298   1.939 -0.3103  0.5860  0.5633
 3559TP3     H122496   2.356   4.303   1.945 -0.3895  1.2939 -0.8951
 3559TP3     H222497   2.469   4.209   1.909 -0.5123  0.4902  0.7257
 3560TP3      O22498   1.504   1.437   0.007  0.4384  0.0700 -0.4834
 3560TP3     H122499   1.441   1.428   0.078  0.7216 -2.2343 -0.4728
 3560TP3     H222500   1.454   1.417  -0.072  0.4367  1.3751 -0.8498
 3561TP3      O22501   0.901   2.039   0.562 -0.3227 -0.1269 -0.1097
 3561TP3     H122502   0.856   2.089   0.630 -1.0065  0.6323 -1.0852
 3561TP3     H222503   0.992   2.035   0.590 -0.6590 -0.1256  1.0075
 3562TP3      O22504   0.864   2.029   3.376 -0.6353 -0.4252  0.1391
 3562TP3     H122505   0.876   2.057   3.467 -1.3077 -0.6990  0.3172
 3562TP3     H222506   0.787   1.973   3.378 -1.4301  0.5902 -0.8120
 3563TP3      O22507   5.194   4.486   1.053 -0.1399  0.4481  0.8444
 3563TP3     H122508   5.224   4.405   1.093  3.0555  0.7673 -0.6124
 3563TP3     H222509   5.181   4.546   1.126 -0.6432 -0.7614  1.7832
 3564TP3      O22510   4.417   2.881   7.940  0.0597 -0.0935  0.7078
 3564TP3     H122511   4.326   2.866   7.966 -0.1462 -3.0131 -1.2734
 3564TP3     H222512   4.469   2.855   8.016 -0.6981 -1.1070  0.8874
 3565TP3      O22513   4.697   5.028   8.007  0.4976  0.0057 -0.1338
 3565TP3     H122514   4.727   5.012   7.918  0.1634  1.2213 -0.4865
 3565TP3     H222515   4.717   5.120   8.023  0.2124 -0.0983  0.9139
 3566TP3      O22516   4.923   4.881   0.589 -0.4586 -0.4100 -0.1366
 3566TP3     H122517   4.985   4.836   0.646 -2.4524 -2.6237  0.4617
 3566TP3     H222518   4.964   4.881   0.503 -0.4835 -3.9294 -0.2697
 3567TP3      O22519   2.173   0.682   2.331 -0.0169 -0.2308  0.3207
 3567TP3     H122520   2.265   0.708   2.336  0.0602 -0.6473  1.4384
 3567TP3     H222521   2.175   0.589   2.310 -0.1857 -0.2289  0.2922
 3568TP3      O22522   2.878   2.507   1.223  0.1031  0.2051 -0.3820
 3568TP3     H122523   2.841   2.423   1.199 -0.0719 -0.4337  1.9016
 3568TP3     H222524   2.973   2.491   1.227 -0.0735 -0.6499  2.4466
 3569TP3      O22525   2.257   1.786   8.992 -0.2265 -0.6065 -0.1473
 3569TP3     H122526   2.312   1.795   9.071 -1.4360  0.1260  0.6434
 3569TP3     H222527   2.253   1.692   8.977  0.5862 -0.7193  0.2555
 3570TP3      O22528   1.529   1.807   9.167 -0.0744 -0.0682 -0.2981
 3570TP3     H122529   1.548   1.886   9.118 -1.0220  1.0264  0.9987
 3570TP3     H222530   1.482   1.751   9.105 -0.4428  0.8935 -0.9153
 3571TP3      O22531   3.646   4.398   9.788  0.1300 -0.1788 -0.2854
 3571TP3     H122532   3.713   4.436   9.845  0.4328 -0.9444 -0.1115
 3571TP3     H222533   3.672   4.306   9.780 -1.9963 -0.9906  1.3838
 3572TP3      O22534   0.509   1.951   2.398 -0.4053  0.2404  0.6293
 3572TP3     H122535   0.567   1.941   2.323  1.3772  0.0862  1.9743
 3572TP3     H222536   0.521   2.041   2.426 -1.3391  0.4073  0.5350
 3573TP3      O22537   3.017   4.259   8.605  0.3719  0.2440  0.7876
 3573TP3     H122538   2.957   4.309   8.550 -1.3549 -0.8013  1.6389
 3573TP3     H222539   3.026   4.175   8.560 -0.5392 -0.3808  1.7336
 3574TP3      O22540   0.601   2.139   8.490 -0.6810  0.3518 -0.4857
 3574TP3     H122541   0.558   2.084   8.556 -0.9813  0.3198 -0.7065
 3574TP3     H222542   0.553   2.221   8.492  0.2923  0.9218  0.4352
 3575TP3      O22543   5.097   4.019   2.435  0.5369  0.5038 -0.5481
 3575TP3     H122544   5.099   3.925   2.451  1.0996  0.7006  0.6449
 3575TP3     H222545   5.073   4.027   2.343  1.8870 -0.8548 -1.0645
 3576TP3      O22546   0.325   2.782   6.745  0.3820 -0.1750 -0.3078
 3576TP3     H122547   0.271   2.721   6.795  0.3153 -0.1486 -0.3467
 3576TP3     H222548   0.266   2.856   6.727  0.4846 -0.0643 -0.1949
 3577TP3      O22549   2.082   0.050   3.032  0.0317  0.6054  0.0696
 3577TP3     H122550   2.044  -0.037   3.016 -0.9119  0.5226  2.3406
 3577TP3     H222551   2.160   0.032   3.084 -0.5116  1.1104  1.0899
 3578TP3      O22552   3.176   3.579   1.658 -0.3211 -0.4736  0.3214
 3578TP3     H122553   3.236   3.638   1.702  0.3725 -0.5298 -0.5252
 3578TP3     H222554   3.217   3.493   1.664  0.0090 -0.4089 -0.8041
 3579TP3      O22555   1.143   0.004   7.780 -0.2552 -0.2308 -0.7598
 3579TP3     H122556   1.135  -0.090   7.764  0.5169 -0.9931  2.5215
 3579TP3     H222557   1.222   0.029   7.732  2.4303 -2.4768  1.9891
 3580TP3      O22558   0.899   3.502   8.546  0.1538  0.2608  0.5551
 3580TP3     H122559   0.912   3.454   8.465  0.1779  1.1113  0.0483
 3580TP3     H222560   0.821   3.555   8.531 -0.4213 -0.3093  1.4408
 3581TP3      O22561   0.992   1.766   8.699 -0.2146  0.2528 -0.3208
 3581TP3     H122562   0.928   1.830   8.728  0.1663  0.0077  1.1364
 3581TP3     H222563   0.947   1.681   8.708 -0.0563  0.1634 -0.3596
 3582TP3      O22564   3.482   4.312   1.426 -0.9095 -0.0087  0.3716
 3582TP3     H122565   3.496   4.220   1.402  0.3831  0.5437 -1.2288
 3582TP3     H222566   3.457   4.310   1.518  0.1560 -1.8922  0.6664
 3583TP3      O22567   3.628   1.561   7.613 -0.4245 -0.4175 -0.6803
 3583TP3     H122568   3.595   1.651   7.609 -3.3411 -1.3315  0.3476
 3583TP3     H222569   3.671   1.548   7.529  1.5282  2.3762 -0.2855
 3584TP3      O22570   2.215   4.634   1.620  0.1995 -0.1661  0.0923
 3584TP3     H122571   2.244   4.644   1.711 -0.3964 -1.4072  0.4486
 3584TP3     H222572   2.141   4.694   1.611  2.6036  2.9176 -0.7785
 3585TP3      O22573   0.359   5.192   0.288 -0.2159 -0.1234 -0.2001
 3585TP3     H122574   0.396   5.268   0.244  0.7620 -1.1770 -1.2452
 3585TP3     H222575   0.361   5.215   0.381 -1.4756  1.7659 -0.5896
 3586TP3      O22576   2.696   1.533   0.796 -0.0308 -0.2136  0.0516
 3586TP3     H122577   2.774   1.541   0.742 -0.1387 -0.4274 -0.1376
 3586TP3     H222578   2.624   1.524   0.734 -0.2126  0.0217  0.2240
 3587TP3      O22579   4.777   3.310  10.325 -0.2344  0.5715 -0.0629
 3587TP3     H122580   4.740   3.223  10.335 -1.6749  0.8661 -2.1804
 3587TP3     H222581   4.748   3.357  10.404 -4.5285  0.7367 -1.4787
 3588TP3      O22582   1.724   3.956   7.542 -0.0245  0.0121 -0.2220
 3588TP3     H122583   1.815   3.956   7.513  0.0287  1.2097 -0.1316
 3588TP3     H222584   1.720   4.027   7.607 -0.5419 -1.4203  1.3975
 3589TP3      O22585   4.655   0.133   0.359 -0.6463  0.3248  0.3057
 3589TP3     H122586   4.738   0.179   0.351 -1.3564  2.0060  1.7955
 3589TP3     H222587   4.594   0.182   0.304 -0.7414 -0.7400 -0.5739
 3590TP3      O22588   5.010   0.127   9.828 -0.4682  0.0217  0.3234
 3590TP3     H122589   5.026   0.094   9.740 -0.7024 -0.5390  0.4877
 3590TP3     H222590   5.028   0.053   9.885 -0.2428  0.4059  0.7552
 3591TP3      O22591   2.963   4.544   1.259  0.2399 -0.3183  0.0318
 3591TP3     H122592   2.911   4.500   1.191 -0.0509 -0.9738  0.6711
 3591TP3     H222593   3.024   4.477   1.290  1.7781  0.5355 -0.9763
 3592TP3      O22594   1.867   3.134   2.359  0.1236  0.2532  0.3570
 3592TP3     H122595   1.888   3.222   2.391 -0.4985  0.4938  0.1171
 3592TP3     H222596   1.946   3.106   2.312 -0.0784  1.1545 -0.5615
 3593TP3      O22597   0.612   0.417   9.906  0.4627 -0.0291  0.4107
 3593TP3     H122598   0.558   0.355   9.857 -1.8980  2.6033 -0.5695
 3593TP3     H222599   0.702   0.393   9.884 -0.4086 -1.7623 -1.6019
 3594TP3      O22600   5.029   4.990   9.302 -0.2615  0.2333  0.6489
 3594TP3     H122601   5.049   4.900   9.278  1.0530  0.5963  0.3339
 3594TP3     H222602   5.043   5.040   9.221  0.5765  0.9337  1.2115
 3595TP3      O22603   4.146   2.692   9.029 -0.1408  0.3116 -0.4063
 3595TP3     H122604   4.188   2.761   9.080 -1.1953  1.1935 -0.6952
 3595TP3     H222605   4.062   2.679   9.073  0.9729 -2.5681  1.1558
 3596TP3      O22606   1.832   4.291   8.300 -0.4930  0.0421 -0.3667
 3596TP3     H122607   1.866   4.378   8.320 -0.0464  0.2859 -2.0188
 3596TP3     H222608   1.742   4.306   8.271 -0.6932 -0.1554  0.1313
 3597TP3      O22609   4.658   4.711   1.938 -0.2545 -0.0520  0.3955
 3597TP3     H122610   4.607   4.786   1.906 -0.1547 -0.3923 -0.6029
 3597TP3     H222611   4.738   4.713   1.885 -0.8187 -1.6066 -0.5604
 3598TP3      O22612   3.919   2.083  10.369 -0.1241 -0.5017 -0.1661
 3598TP3     H122613   3.990   2.125  10.416 -1.3350  0.4504  0.9012
 3598TP3     H222614   3.953   2.069  10.280  0.8257  1.4092 -0.1368
 3599TP3      O22615   2.978   2.346   0.645  0.6738  0.0286  0.1067
 3599TP3     H122616   2.926   2.331   0.566  0.2211  0.1147  0.3774
 3599TP3     H222617   2.975   2.263   0.692  2.6434 -0.6549 -0.9155
 3600TP3      O22618   4.589   3.776   9.989  0.0109 -0.3092  0.2427
 3600TP3     H122619   4.497   3.778   9.963  0.3310  0.8653 -0.9255
 3600TP3     H222620   4.622   3.864   9.968  1.4884 -0.8235  0.2642
 3601TP3      O22621   4.521   4.850   7.816  0.7381  0.1801 -0.3021
 3601TP3     H122622   4.514   4.942   7.790 -2.0231  0.1349 -0.0136
 3601TP3     H222623   4.613   4.839   7.840  1.1335  2.8877 -0.2473
 3602TP3      O22624   4.472   3.681   8.591  0.2440 -0.8001  0.3130
 3602TP3     H122625   4.562   3.701   8.566 -0.3339  0.5272 -0.8790
 3602TP3     H222626   4.466   3.585   8.586  0.9659 -0.7885 -2.0260
 3603TP3      O22627   2.195   0.166  10.191  0.3852 -0.0328 -0.0694
 3603TP3     H122628   2.273   0.178  10.245  0.8035  1.2516 -0.9114
 3603TP3     H222629   2.137   0.237  10.216 -1.1984 -1.8175  1.6098
 3604TP3      O22630   1.535   0.306   7.465  1.0034  0.5711  0.2527
 3604TP3     H122631   1.611   0.257   7.497  2.4221  0.7186 -2.6262
 3604TP3     H222632   1.474   0.239   7.434  1.3898  0.5398 -0.4364
 3605TP3      O22633   1.549   3.188  10.140 -0.5197 -0.2730 -0.1785
 3605TP3     H122634   1.508   3.226  10.062 -0.0107  0.5519 -0.0637
 3605TP3     H222635   1.479   3.136  10.181 -0.6200 -1.2021 -1.4803
 3606TP3      O22636   2.220   1.277  10.019 -0.0372  0.0920 -0.1164
 3606TP3     H122637   2.295   1.301   9.965 -0.3700  0.0095 -0.6238
 3606TP3     H222638   2.199   1.356  10.068 -0.4774  0.5467 -1.0086
 3607TP3      O22639   4.243   4.365   0.627  0.5003  0.1187 -0.0844
 3607TP3     H122640   4.322   4.318   0.653 -0.1612 -1.6207 -1.0476
 3607TP3     H222641   4.194   4.302   0.575 -1.2392  1.3636 -0.0364
 3608TP3      O22642   3.664   2.130   2.494 -0.3291  0.1227 -0.2673
 3608TP3     H122643   3.639   2.124   2.587  2.5298  0.3447  0.6244
 3608TP3     H222644   3.702   2.044   2.474  2.1617  1.1151 -0.1383
 3609TP3      O22645   0.082   4.573   7.724  0.2903 -0.6183 -0.1825
 3609TP3     H122646   0.032   4.619   7.791  1.3636  0.4055 -0.0435
 3609TP3     H222647   0.050   4.609   7.641  0.7733  0.0225 -0.0947
 3610TP3      O22648   1.563   4.118   0.495  0.0820 -0.5029 -0.0164
 3610TP3     H122649   1.629   4.184   0.474  0.6878 -0.9846  0.3680
 3610TP3     H222650   1.599   4.071   0.570 -1.5930  0.5426  1.5323
 3611TP3      O22651   4.933   2.489   1.330  0.3494 -0.4013 -0.4164
 3611TP3     H122652   4.916   2.440   1.410  0.7981 -0.9301 -0.6375
 3611TP3     H222653   4.915   2.580   1.353  0.8443 -0.5002  0.3949
 3612TP3      O22654   4.853   1.490   8.423 -0.1723 -0.3793  0.6913
 3612TP3     H122655   4.892   1.575   8.442  0.4880 -1.1404  3.0022
 3612TP3     H222656   4.822   1.457   8.507 -0.8908 -2.2197 -0.2163
 3613TP3      O22657   5.105   2.253   2.154  0.4527 -0.3982  0.0427
 3613TP3     H122658   5.112   2.320   2.222 -0.8122  0.2138 -0.3906
 3613TP3     H222659   5.016   2.218   2.166  0.7904 -1.3975 -0.2932
 3614TP3      O22660   3.921   3.893   1.578 -0.4179 -0.0579 -0.4649
 3614TP3     H122661   4.012   3.911   1.555 -0.1571 -1.6440 -0.7957
 3614TP3     H222662   3.926   3.842   1.659 -1.1567  1.8813  0.8687
 3615TP3      O22663   1.356   3.894  10.042  0.0982  0.5136  0.1563
 3615TP3     H122664   1.287   3.945  10.000 -0.3664 -0.5071 -0.3746
 3615TP3     H222665   1.323   3.804  10.040  0.0718  0.3862  2.7064
 3616TP3      O22666   4.443   1.198   7.608 -0.3813  0.6707 -0.0205
 3616TP3     H122667   4.447   1.277   7.555  0.6335  0.8736  0.3394
 3616TP3     H222668   4.401   1.133   7.552  0.9329  0.7910 -1.1830
 3617TP3      O22669   0.647   0.031  10.069 -0.1013 -0.1950  0.5228
 3617TP3     H122670   0.741   0.014  10.082  0.0203 -0.6185 -0.7709
 3617TP3     H222671   0.617   0.062  10.154  1.0313 -0.8792  1.2047
 3618TP3      O22672   3.173   5.183   1.304  0.0874 -0.0457  0.0489
 3618TP3     H122673   3.187   5.224   1.219 -0.0749  0.5423  0.2979
 3618TP3     H222674   3.229   5.232   1.365 -0.6825  0.3221  0.4851
 3619TP3      O22675   3.293   3.041   1.295 -0.0209  0.5350  0.3989
 3619TP3     H122676   3.385   3.056   1.317  0.3082  0.4655 -0.8470
 3619TP3     H222677   3.246   3.111   1.340  0.9763  2.5047 -1.4301
 3620TP3      O22678   3.554   3.006   1.406 -0.1415  0.0564 -0.1337
 3620TP3     H122679   3.510   2.965   1.480 -0.8489 -0.3723 -0.7705
 3620TP3     H222680   3.567   2.935   1.343 -0.2358  0.5551 -0.7324
 3621TP3      O22681   2.506   3.669   3.037  0.1650  0.0375  0.1153
 3621TP3     H122682   2.540   3.745   3.084 -0.6997  0.8150 -0.4941
 3621TP3     H222683   2.492   3.603   3.105  0.2930  0.6485  0.7416
 3622TP3      O22684   2.979   4.120   0.224 -0.0110 -0.1654  0.0470
 3622TP3     H122685   3.059   4.133   0.174 -0.3792  1.4063 -0.1848
 3622TP3     H222686   2.918   4.186   0.190 -0.5979  0.2814  1.8435
 3623TP3      O22687   1.842   4.700   9.810  0.3304 -0.3876 -0.0354
 3623TP3     H122688   1.783   4.702   9.885 -1.2324 -1.1680 -1.1910
 3623TP3     H222689   1.930   4.701   9.849 -0.4233 -1.6101  1.8375
 3624TP3      O22690   4.497   1.298  10.225  0.2052 -1.4204  0.1944
 3624TP3     H122691   4.552   1.227  10.257  1.3059 -0.6516  0.0851
 3624TP3     H222692   4.498   1.363  10.295 -0.4497 -1.3246  0.1272
 3625TP3      O22693   3.782   2.894   0.018 -0.2365  0.2805 -0.5496
 3625TP3     H122694   3.763   2.978   0.060 -1.0097  0.1645 -0.6469
 3625TP3     H222695   3.803   2.835   0.091 -2.7457 -0.2333 -0.1584
 3626TP3      O22696   2.502   3.846   9.517  0.5926 -0.6416  0.3401
 3626TP3     H122697   2.494   3.795   9.436  1.2972  0.5571 -0.5128
 3626TP3     H222698   2.414   3.882   9.531  0.8250  0.4430 -0.8025
 3627TP3      O22699   3.964   3.203   0.331  0.2001 -0.0190 -0.2886
 3627TP3     H122700   4.016   3.215   0.410 -0.7686 -1.3042  0.5773
 3627TP3     H222701   3.998   3.123   0.291 -2.5367 -2.3285  1.5891
 3628TP3      O22702   4.258   4.600   8.299 -0.2167 -0.1292  0.5056
 3628TP3     H122703   4.281   4.561   8.215  1.7471  2.1717 -0.1495
 3628TP3     H222704   4.336   4.591   8.353  0.3579  2.7005  0.3087
 3629TP3      O22705   2.637   3.601   9.637  0.6822  0.1030  0.3091
 3629TP3     H122706   2.622   3.564   9.550 -0.2307 -0.9696  0.9001
 3629TP3     H222707   2.598   3.688   9.633  1.4901  0.4452 -0.6296
 3630TP3      O22708   4.504   0.816   1.885 -0.3840  0.8661 -0.3570
 3630TP3     H122709   4.534   0.757   1.816  0.0591  0.0005  0.5416
 3630TP3     H222710   4.408   0.814   1.877 -0.3728  0.1199 -0.4331
 3631TP3      O22711   4.550   0.081   1.703 -0.4441  0.5467 -0.0902
 3631TP3     H122712   4.487   0.076   1.775 -0.2409 -1.5201  0.0017
 3631TP3     H222713   4.538  -0.000   1.655  0.0291  1.5016 -1.9185
 3632TP3      O22714   2.926   3.742   0.915 -0.5994 -0.1007  0.4183
 3632TP3     H122715   2.906   3.649   0.919  0.5881 -0.3419  0.9833
 3632TP3     H222716   2.932   3.770   1.006  1.3200 -0.0007  0.3114
 3633TP3      O22717   5.147   2.195   7.783 -0.1086  0.1837  0.0633
 3633TP3     H122718   5.161   2.104   7.808  1.3143  0.4665  0.3275
 3633TP3     H222719   5.101   2.233   7.857 -2.1664 -0.6699 -0.6871
 3634TP3      O22720   2.191   0.880   1.356  0.7855 -0.3512  0.3909
 3634TP3     H122721   2.135   0.832   1.418 -0.2768 -1.1078 -1.0810
 3634TP3     H222722   2.170   0.972   1.371 -0.2988 -0.5872  0.3969
 3635TP3      O22723   2.090   3.282   1.215 -0.3600 -0.3613 -0.5685
 3635TP3     H122724   2.148   3.281   1.139  0.7892 -0.1507  0.2660
 3635TP3     H222725   2.033   3.206   1.203  1.7433 -2.0728 -0.2127
 3636TP3      O22726   2.425   0.515   9.103 -0.4499  0.6795 -0.3346
 3636TP3     H122727   2.421   0.584   9.037 -1.6191  3.0967  2.0491
 3636TP3     H222728   2.358   0.452   9.076 -1.2981  1.8979 -1.1891
 3637TP3      O22729   0.762   2.221   2.286  0.4913  0.3743  0.0401
 3637TP3     H122730   0.719   2.217   2.200  3.0811 -0.0746 -1.3280
 3637TP3     H222731   0.806   2.137   2.294 -0.4787  0.0207  2.3208
 3638TP3      O22732   1.787   4.372   0.447 -0.2802 -0.1562 -0.1212
 3638TP3     H122733   1.713   4.430   0.430  0.6050  1.2736  0.6472
 3638TP3     H222734   1.832   4.366   0.363  0.4832  1.6157  0.0977
 3639TP3      O22735   2.786   1.072   8.598  0.3696 -0.1607 -0.3245
 3639TP3     H122736   2.750   1.159   8.616 -1.5177 -0.8999 -0.2133
 3639TP3     H222737   2.877   1.077   8.626  0.7132  2.1706 -1.5865
 3640TP3      O22738   0.481   4.996   8.107 -0.3002 -0.1826  0.4097
 3640TP3     H122739   0.441   4.988   8.194  0.1748  0.0583  0.6567
 3640TP3     H222740   0.450   5.080   8.074 -0.9971 -0.5660  0.0714
 3641TP3      O22741   0.328   0.847   1.323 -0.6730  0.2154 -0.5757
 3641TP3     H122742   0.307   0.866   1.231 -0.1247  1.2215 -0.5071
 3641TP3     H222743   0.422   0.830   1.322 -0.9395 -1.4834 -0.4446
 3642TP3      O22744   3.889   1.289   2.396  0.1150 -0.0584  0.1311
 3642TP3     H122745   3.814   1.262   2.342  0.9491 -0.8765 -0.6535
 3642TP3     H222746   3.883   1.234   2.475 -0.5626  0.4606  0.4495
 3643TP3      O22747   1.848   3.840   8.338 -0.3574  0.4274  0.4214
 3643TP3     H122748   1.839   3.766   8.398 -1.2318  0.7560  0.7100
 3643TP3     H222749   1.760   3.856   8.306  0.1480  0.0103 -1.2828
 3644TP3      O22750   2.230   4.373   7.458 -0.3064  0.5308 -0.1583
 3644TP3     H122751   2.193   4.291   7.493  1.6584  0.1764  1.2206
 3644TP3     H222752   2.215   4.367   7.364 -1.1884 -0.9064  0.0329
 3645TP3      O22753   3.059   2.602   2.094 -0.5969  0.0605  0.1206
 3645TP3     H122754   3.030   2.686   2.058 -0.1797  0.5469  0.9021
 3645TP3     H222755   3.080   2.621   2.185  0.9582 -0.5563 -0.0776
 3646TP3      O22756   1.290   2.686  10.035 -0.0851  0.0008 -0.0126
 3646TP3     H122757   1.289   2.664   9.942 -0.5343 -0.6869  0.1437
 3646TP3     H222758   1.290   2.781  10.038  0.7664  0.0304 -0.7209
 3647TP3      O22759   5.154   1.038   8.862 -0.1369 -0.1640 -0.4012
 3647TP3     H122760   5.134   0.983   8.786  0.3391  0.8471 -1.2971
 3647TP3     H222761   5.068   1.063   8.897 -0.3842  0.2993 -1.3170
 3648TP3      O22762   0.387   1.021   0.805  0.9235  0.2449  0.0353
 3648TP3     H122763   0.474   1.060   0.800  1.3502 -0.8367 -2.2938
 3648TP3     H222764   0.339   1.059   0.732 -0.4693  0.5112  1.0373
 3649TP3      O22765   2.071   0.493   0.894 -0.0795  0.3878 -0.2149
 3649TP3     H122766   2.094   0.481   0.802  0.7111 -0.0770  0.0308
 3649TP3     H222767   2.022   0.576   0.897 -1.3922 -0.3167 -1.2530
 3650TP3      O22768   1.646   3.410   2.177  0.0346  0.2189  0.4173
 3650TP3     H122769   1.715   3.416   2.243 -0.3617  1.7061  0.7403
 3650TP3     H222770   1.588   3.342   2.210 -0.7755  1.7092  2.2758
 3651TP3      O22771   5.119   1.531   3.247  0.3190 -0.4226 -0.2774
 3651TP3     H122772   5.041   1.586   3.253 -0.2174 -1.0925 -0.9411
 3651TP3     H222773   5.102   1.459   3.308  0.5248 -0.4381 -0.2384
 3652TP3      O22774   1.686   0.509   1.368  0.0521  0.0177  0.8364
 3652TP3     H122775   1.728   0.589   1.400 -0.7449  1.2956 -1.1005
 3652TP3     H222776   1.592   0.523   1.384 -0.1824 -0.0950 -0.3226
 3653TP3      O22777   4.669   1.345   2.556 -0.3401  0.3117  0.4500
 3653TP3     H122778   4.614   1.423   2.560  0.6095  0.9502  1.9862
 3653TP3     H222779   4.750   1.375   2.515  0.0401  0.1592  1.0737
 3654TP3      O22780   2.839   5.167   1.852  0.4463  0.2475  0.1114
 3654TP3     H122781   2.848   5.132   1.763  0.3914 -1.0962  0.6086
 3654TP3     H222782   2.781   5.106   1.896  3.0298 -1.0426  2.0380
 3655TP3      O22783   4.636   3.719   8.994 -0.0519  0.6531  0.2867
 3655TP3     H122784   4.589   3.787   8.945 -1.6238 -0.1604  0.5831
 3655TP3     H222785   4.634   3.748   9.085 -2.9312 -0.8628  0.8160
 3656TP3      O22786   1.882   0.481   0.339 -0.0728 -0.1669 -0.0975
 3656TP3     H122787   1.923   0.549   0.392  4.1775 -1.0918 -1.7353
 3656TP3     H222788   1.877   0.520   0.251 -0.1176 -1.0376 -0.4886
 3657TP3      O22789   3.655   2.002   0.058 -0.4468  0.0722  0.4893
 3657TP3     H122790   3.623   2.078   0.106 -0.0547  1.1200 -0.8290
 3657TP3     H222791   3.735   2.032   0.015  0.2942 -1.4034  0.7528
 3658TP3      O22792   3.928   2.600   1.527 -0.3669  0.4410 -0.0325
 3658TP3     H122793   3.962   2.572   1.612  0.4507 -0.1107 -0.5263
 3658TP3     H222794   3.833   2.596   1.536 -0.2885  0.5852  0.9169
 3659TP3      O22795   2.144   3.279   2.499 -0.1819  0.3819  0.5667
 3659TP3     H122796   2.190   3.212   2.549  0.4642  0.1799 -0.2692
 3659TP3     H222797   2.107   3.338   2.565  0.5009  0.0270  1.2748
 3660TP3      O22798   4.284   2.509   7.158 -0.1022  0.6324 -0.4056
 3660TP3     H122799   4.306   2.418   7.140  2.0982  1.1859 -0.7478
 3660TP3     H222800   4.363   2.558   7.136 -0.3605  2.3646  2.1370
 3661TP3      O22801   2.085   1.979   1.310 -0.0843  0.0054 -0.5120
 3661TP3     H122802   2.114   1.970   1.401  0.0276 -1.4816 -0.6676
 3661TP3     H222803   1.989   1.982   1.316 -0.0508  0.8211 -0.2902
 3662TP3      O22804   1.700   4.883  10.115 -0.4371  0.0289 -0.3985
 3662TP3     H122805   1.736   4.874  10.203 -0.1294 -0.2951 -0.5578
 3662TP3     H222806   1.676   4.794  10.089 -0.9457  0.1797 -0.4686
 3663TP3      O22807   4.582   1.320   2.173 -0.0332  0.5518 -0.3176
 3663TP3     H122808   4.572   1.225   2.177  0.9391  0.4609  0.4231
 3663TP3     H222809   4.675   1.334   2.156  0.0825  1.3715  0.8396
 3664TP3      O22810   1.550   1.895   0.951  0.0301  1.0467 -0.4427
 3664TP3     H122811   1.582   1.814   0.913 -0.0030  1.4933 -1.4622
 3664TP3     H222812   1.464   1.872   0.987 -0.1881  0.7294 -1.1450
 3665TP3      O22813   2.339   5.124  10.205 -0.0979  0.1786  0.8056
 3665TP3     H122814   2.383   5.203  10.172  0.5177  0.7757  2.9120
 3665TP3     H222815   2.377   5.052  10.154 -0.1888  1.1544 -0.6975
 3666TP3      O22816   1.742   4.313   6.982  0.0779  0.4060 -0.1023
 3666TP3     H122817   1.786   4.360   6.911 -1.2397  0.2586 -1.0541
 3666TP3     H222818   1.657   4.357   6.991  0.6009  1.1090  2.1374
 3667TP3      O22819   3.933   2.670   9.637 -0.4419  0.3150  0.3732
 3667TP3     H122820   3.905   2.622   9.716 -0.7461 -0.2868 -0.0916
 3667TP3     H222821   3.983   2.744   9.671 -1.4131  0.6359  1.1800
 3668TP3      O22822   4.498   1.589   2.612 -0.6693 -0.3298  0.2956
 3668TP3     H122823   4.470   1.665   2.663  1.4786  0.8319 -0.1325
 3668TP3     H222824   4.586   1.612   2.581  0.1292 -3.0496  0.2663
 3669TP3      O22825   1.256   1.725   2.511 -0.5332 -0.8964 -0.0303
 3669TP3     H122826   1.182   1.674   2.543  0.3554 -2.2963 -0.1067
 3669TP3     H222827   1.327   1.704   2.571  0.1062 -0.4541 -0.6154
 3670TP3      O22828   5.151   4.683   7.904 -0.1031 -0.5822  0.1780
 3670TP3     H122829   5.131   4.772   7.932  0.9304 -0.1017 -0.5530
 3670TP3     H222830   5.095   4.628   7.958 -0.2527  0.4725  1.1368
 3671TP3      O22831   1.696   3.235   7.628  0.4000 -0.5367 -0.2904
 3671TP3     H122832   1.671   3.206   7.716 -1.3559 -0.8222 -0.8405
 3671TP3     H222833   1.686   3.331   7.632 -0.3524 -0.6051 -0.3553
 3672TP3      O22834   4.869   3.978   9.645  0.2156 -0.3406 -0.0005
 3672TP3     H122835   4.883   3.937   9.559 -2.1085 -2.2054  0.3836
 3672TP3     H222836   4.878   4.071   9.629  1.0857 -0.7167 -2.0038
 3673TP3      O22837   4.653   0.375   3.129 -0.2785 -0.2527  0.4120
 3673TP3     H122838   4.655   0.469   3.148 -0.3770 -0.1345 -0.1393
 3673TP3     H222839   4.623   0.334   3.210 -2.1770  0.3667  0.0704
 3674TP3      O22840   3.678   4.021   1.993 -0.2261 -0.2317 -0.4752
 3674TP3     H122841   3.723   4.018   1.909  0.4855 -2.1126 -0.0943
 3674TP3     H222842   3.585   4.030   1.971  0.1280  1.7311 -1.3420
 3675TP3      O22843   1.869   0.519   2.234  0.2478 -0.4815  0.9038
 3675TP3     H122844   1.852   0.604   2.192  0.1148 -1.0657 -0.2732
 3675TP3     H222845   1.922   0.471   2.170  1.9011 -0.6372  2.3064
 3676TP3      O22846   1.794   4.531   8.558  0.0385  0.0534  0.0057
 3676TP3     H122847   1.798   4.603   8.495 -0.3974  0.4701  0.4470
 3676TP3     H222848   1.882   4.493   8.557  0.0804  0.1635 -0.7272
 3677TP3      O22849   2.457   0.840   8.683 -0.1658 -0.0220  0.2730
 3677TP3     H122850   2.443   0.750   8.713  1.4417 -0.5249 -0.4042
 3677TP3     H222851   2.408   0.844   8.600 -2.3107  0.5348  1.4868
 3678TP3      O22852   4.105   1.435   2.322 -0.0651 -0.4188 -0.2894
 3678TP3     H122853   4.184   1.384   2.341  0.0541 -0.2206 -0.2411
 3678TP3     H222854   4.034   1.386   2.363  0.4166  1.0622  2.6055
 3679TP3      O22855   0.608   2.724   7.869 -0.2043 -0.5661  0.4594
 3679TP3     H122856   0.701   2.741   7.886  0.1171  0.6313 -2.0210
 3679TP3     H222857   0.565   2.807   7.892 -0.3923 -0.5308 -0.0056
 3680TP3      O22858   3.642   2.922   8.440  0.3984 -0.4856  0.2610
 3680TP3     H122859   3.691   2.868   8.502 -0.2220 -1.1415  0.1977
 3680TP3     H222860   3.611   2.860   8.373  0.1569  0.0369 -0.1216
 3681TP3      O22861   3.961   2.944   9.784 -0.1043  0.4156 -0.4358
 3681TP3     H122862   3.989   2.938   9.693 -3.3206 -0.6079 -1.4797
 3681TP3     H222863   3.910   3.025   9.789 -0.3586  0.2221  0.3224
 3682TP3      O22864   3.717   3.255   7.943  0.7901 -0.0490  0.3571
 3682TP3     H122865   3.754   3.221   8.025  0.9202  0.1361  0.3761
 3682TP3     H222866   3.623   3.258   7.959  0.9165  1.2828  0.9951
 3683TP3      O22867   0.187   4.497   3.000  0.2238  0.3191  0.1341
 3683TP3     H122868   0.268   4.501   3.051  1.0889 -0.6054 -1.0957
 3683TP3     H222869   0.154   4.408   3.014 -0.1685  0.4447  0.0228
 3684TP3      O22870   0.163   2.998   2.650 -0.7142  0.4780  0.1688
 3684TP3     H122871   0.120   3.076   2.615 -4.0727 -0.3372  2.1026
 3684TP3     H222872   0.094   2.933   2.658  1.3475 -1.7266  1.4967
 3685TP3      O22873   0.008   1.451   1.563 -0.2739 -0.0001 -0.3379
 3685TP3     H122874   0.002   1.501   1.481 -1.8996  1.6806  0.7437
 3685TP3     H222875   0.091   1.479   1.602  0.2253 -0.3676 -1.1041
 3686TP3      O22876   1.092   5.158   7.403 -0.0441  0.2281 -0.3244
 3686TP3     H122877   1.003   5.191   7.392  0.5690  2.2326  0.2718
 3686TP3     H222878   1.141   5.195   7.329  0.6189  0.4156  0.1987
 3687TP3      O22879   3.639   4.433   8.221  0.3387 -0.6862  0.1813
 3687TP3     H122880   3.638   4.440   8.125 -0.6089 -0.5790  0.1908
 3687TP3     H222881   3.726   4.399   8.241  0.7174 -0.2718 -0.6849
 3688TP3      O22882   0.784   0.693   1.692 -0.6097 -0.7328 -0.3564
 3688TP3     H122883   0.704   0.654   1.727 -0.9986 -1.1623 -1.6595
 3688TP3     H222884   0.783   0.783   1.725 -0.4094 -1.3840  1.5437
 3689TP3      O22885   3.612   3.694   1.664 -0.3088 -0.2220 -0.3689
 3689TP3     H122886   3.696   3.717   1.704 -1.0093  0.3152  0.8329
 3689TP3     H222887   3.636   3.657   1.578  1.1287  0.1453 -0.1524
 3690TP3      O22888   2.017   4.256   2.086  0.1391  0.1650 -0.2079
 3690TP3     H122889   1.935   4.229   2.129  0.1162  0.3722 -0.1184
 3690TP3     H222890   2.014   4.352   2.089 -0.1002  0.1935 -1.1256
 3691TP3      O22891   2.971   1.817   7.441 -0.1870 -0.0749 -0.2731
 3691TP3     H122892   2.893   1.867   7.419  1.0420  2.3156  0.5443
 3691TP3     H222893   3.043   1.879   7.435  1.5303 -1.8985  0.1903
 3692TP3      O22894   5.180   1.282   9.898 -0.0544  0.0691  0.3055
 3692TP3     H122895   5.102   1.297   9.846  0.7861  1.0963 -0.7032
 3692TP3     H222896   5.154   1.216   9.963 -1.6130  0.0866 -0.2782
 3693TP3      O22897   2.580   3.099   9.837 -0.1569  0.0525 -0.2538
 3693TP3     H122898   2.515   3.059   9.780  1.0218 -0.3451 -1.3558
 3693TP3     H222899   2.574   3.193   9.818 -1.3720  0.2008  0.7071
 3694TP3      O22900   4.594   1.817   1.322 -0.0271  0.3725 -1.1284
 3694TP3     H122901   4.503   1.830   1.350  0.1249 -1.4981  0.4905
 3694TP3     H222902   4.638   1.899   1.344 -0.8469  0.4575  0.2908
 3695TP3      O22903   3.844   4.648   2.034 -0.5865  0.3202  0.0147
 3695TP3     H122904   3.894   4.728   2.016 -0.4869  0.2785  0.1033
 3695TP3     H222905   3.869   4.588   1.964  0.3393 -0.0889  0.6625
 3696TP3      O22906   3.504   3.041   0.982 -0.4335 -0.5276  0.0814
 3696TP3     H122907   3.576   2.988   1.017  2.3007  1.2601 -2.3645
 3696TP3     H222908   3.509   3.027   0.887 -2.7826  0.3866 -0.2242
 3697TP3      O22909   5.064   0.780   8.084 -0.0281  0.4186 -0.3135
 3697TP3     H122910   5.147   0.821   8.060 -0.6162  1.0680 -1.3039
 3697TP3     H222911   4.999   0.823   8.028 -0.9830 -0.3240  0.1994
 3698TP3      O22912   0.835   4.578   9.883  0.0377  0.0187  0.3800
 3698TP3     H122913   0.744   4.607   9.890  0.1917  0.2853  1.6947
 3698TP3     H222914   0.865   4.612   9.799 -1.0401  0.0408 -0.0090
 3699TP3      O22915   0.996   1.677   7.954 -0.4237  0.2037 -0.0533
 3699TP3     H122916   0.971   1.751   7.898 -1.4539 -0.4338 -0.4707
 3699TP3     H222917   1.080   1.703   7.992 -0.6150  1.4547 -0.4298
 3700TP3      O22918   3.495   1.852   3.067  0.0446  0.3320  0.2033
 3700TP3     H122919   3.591   1.846   3.071  0.0486 -1.5465 -1.2301
 3700TP3     H222920   3.465   1.799   3.141  0.1232 -0.1594 -0.1132
 3701TP3      O22921   1.718   0.945   8.842  0.6212  0.3721  0.2973
 3701TP3     H122922   1.786   0.979   8.900  1.6254 -0.4590 -0.3439
 3701TP3     H222923   1.766   0.912   8.766 -0.3016 -1.8823  0.5956
 3702TP3      O22924   2.634   3.466   1.411 -0.3435  0.0260  0.0757
 3702TP3     H122925   2.559   3.468   1.470  0.7652 -0.7830  1.5542
 3702TP3     H222926   2.597   3.490   1.325 -1.9732  1.3108  1.0668
 3703TP3      O22927   3.230   3.629   9.646  0.2834  0.0101 -0.4513
 3703TP3     H122928   3.151   3.675   9.675  1.1450  1.0658  0.3467
 3703TP3     H222929   3.231   3.548   9.698  1.1660  1.3119  1.7112
 3704TP3      O22930   3.711   3.668   2.320 -0.6880  0.2378 -0.1441
 3704TP3     H122931   3.748   3.710   2.243  1.6918 -2.6319 -0.7677
 3704TP3     H222932   3.627   3.633   2.290  0.1852 -0.8065 -1.5005
 3705TP3      O22933   1.881   4.279   0.705  0.0092 -0.0356  0.4842
 3705TP3     H122934   1.806   4.274   0.764  0.6733 -0.0435  1.3446
 3705TP3     H222935   1.842   4.274   0.617 -1.1550  1.5472  0.8471
 3706TP3      O22936   4.154   4.556   0.825  0.5438  0.4362 -0.4219
 3706TP3     H122937   4.190   4.485   0.878  0.9468  0.7990 -0.2018
 3706TP3     H222938   4.171   4.529   0.734  3.0541  1.4315 -0.3050
 3707TP3      O22939   0.674   2.430   0.774 -0.1529  0.2283 -0.1850
 3707TP3     H122940   0.605   2.390   0.721 -0.0440 -1.9891  1.2046
 3707TP3     H222941   0.629   2.499   0.824 -0.7851  0.5722 -1.2041
 3708TP3      O22942   4.666   4.325   2.018 -0.0332 -0.5400 -0.3181
 3708TP3     H122943   4.662   4.377   1.938  0.8092 -1.6060 -1.0856
 3708TP3     H222944   4.759   4.313   2.034 -0.2079 -1.1102  0.3134
 3709TP3      O22945   2.719   2.868   8.568 -0.4727  0.1634  0.1218
 3709TP3     H122946   2.793   2.824   8.610 -0.3381 -0.3841 -0.6628
 3709TP3     H222947   2.701   2.944   8.623  0.8131  0.4226  0.2017
 3710TP3      O22948   2.112   2.883   2.975  0.2291 -0.1041  0.3739
 3710TP3     H122949   2.161   2.820   3.027 -0.4862 -1.2223 -0.2672
 3710TP3     H222950   2.065   2.936   3.039  0.8853 -0.1677  0.9227
 3711TP3      O22951   5.091   1.536   0.958 -0.1503  0.3195 -0.5737
 3711TP3     H122952   5.011   1.483   0.957  0.1386 -0.1200 -0.4581
 3711TP3     H222953   5.155   1.485   0.908  0.6748 -0.3098  1.0638
 3712TP3      O22954   4.677   1.235   9.072  0.5282  0.1089  0.5347
 3712TP3     H122955   4.611   1.167   9.084 -1.2696  1.7421  0.3228
 3712TP3     H222956   4.630   1.309   9.035  2.6587  1.0811 -0.4164
 3713TP3      O22957   1.936   3.054   1.234  0.5436 -0.9850  0.4398
 3713TP3     H122958   1.992   2.977   1.245 -0.1487 -1.2094  3.2279
 3713TP3     H222959   1.853   3.029   1.275 -0.8364  0.1638 -1.4680
 3714TP3      O22960   5.225   2.851   6.456  0.2192  0.7371 -0.1269
 3714TP3     H122961   5.314   2.885   6.471  0.1040  2.2142 -2.2948
 3714TP3     H222962   5.169   2.928   6.467 -0.8157 -0.1699  1.1306
 3715TP3      O22963   3.752   2.838   0.288 -0.2192  0.0231 -0.1707
 3715TP3     H122964   3.721   2.854   0.377 -0.6828  2.3007 -0.6583
 3715TP3     H222965   3.746   2.743   0.276 -1.0131 -0.2273  1.8924
 3716TP3      O22966   3.541   4.778   2.370  0.7975  0.6297  0.4253
 3716TP3     H122967   3.629   4.756   2.402  0.4116 -1.1304  0.3904
 3716TP3     H222968   3.555   4.808   2.281  1.4162  0.9097  0.6106
 3717TP3      O22969   1.497   1.811   2.664  0.3053  0.0809 -0.4998
 3717TP3     H122970   1.488   1.905   2.675 -1.2722  0.2127 -2.2866
 3717TP3     H222971   1.581   1.799   2.620  0.5516  0.6516 -0.1860
 3718TP3      O22972   2.067   2.354   6.817  0.1001 -0.2473  0.2799
 3718TP3     H122973   2.124   2.376   6.890 -2.0737  0.3366  1.8840
 3718TP3     H222974   2.114   2.285   6.770  3.4501  2.1159 -0.2511
 3719TP3      O22975   5.199   3.950   8.834 -0.3302  0.0563  0.5012
 3719TP3     H122976   5.273   4.010   8.837 -0.4266  0.1566  3.2276
 3719TP3     H222977   5.138   3.982   8.900 -0.8384 -2.4357  1.3663
 3720TP3      O22978   0.090   2.762   9.119 -0.1621 -0.3592 -1.1085
 3720TP3     H122979   0.120   2.725   9.202 -1.4706  1.1327  0.1018
 3720TP3     H222980   0.150   2.726   9.053 -0.2235 -3.1076  0.1713
 3721TP3      O22981   0.715   4.366   1.653  0.1702  0.0362 -0.0759
 3721TP3     H122982   0.688   4.454   1.628  1.0221  0.3648  0.1471
 3721TP3     H222983   0.668   4.309   1.591 -0.9922  0.5810  0.2730
 3722TP3      O22984   2.108   3.924   2.940 -0.6713  0.7689  0.4729
 3722TP3     H122985   2.093   4.012   2.974 -0.5749  1.0162 -0.1230
 3722TP3     H222986   2.084   3.866   3.013  0.5721  1.3108  1.3385
 3723TP3      O22987   2.087   0.970   6.917 -0.5923  0.8521 -0.1622
 3723TP3     H122988   2.180   0.957   6.897 -0.8715  0.1332 -1.0341
 3723TP3     H222989   2.061   0.890   6.963 -0.6922  1.2194  0.4313
 3724TP3      O22990   3.631   1.041   1.575  0.1631  0.2183  0.3178
 3724TP3     H122991   3.617   0.977   1.644  2.2750  0.1995  0.8038
 3724TP3     H222992   3.620   1.126   1.619 -0.2892  0.2002  0.2403
 3725TP3      O22993   1.380   1.563   8.507 -0.1773 -0.1680 -0.2714
 3725TP3     H122994   1.373   1.641   8.452  0.7292 -1.4674 -2.3294
 3725TP3     H222995   1.332   1.586   8.587 -0.9818  2.0351 -1.3045
 3726TP3      O22996   1.425   4.121   1.882 -0.1639 -0.5150  0.3187
 3726TP3     H122997   1.378   4.140   1.801  0.0370 -2.8869 -0.4322
 3726TP3     H222998   1.370   4.157   1.951 -1.9194 -1.1550 -0.6882
 3727TP3      O22999   1.058   3.723   9.254  0.1235  0.3302 -0.2490
 3727TP3     H123000   1.032   3.738   9.163  2.0293 -1.5683 -1.2141
 3727TP3     H223001   1.012   3.790   9.304 -1.3895  1.1225 -2.5349
 3728TP3      O23002   0.987   0.827   0.879 -0.4927 -0.2481  0.1156
 3728TP3     H123003   0.998   0.890   0.950  0.1354 -0.0017 -0.1882
 3728TP3     H223004   0.922   0.868   0.821 -1.3394 -0.6504  0.7539
 3729TP3      O23005   5.009   4.873   1.681 -0.0996 -0.1070  0.4860
 3729TP3     H123006   4.915   4.886   1.690 -0.2668 -0.3615 -0.7773
 3729TP3     H223007   5.032   4.915   1.599  0.6609 -1.1368  0.1484
 3730TP3      O23008   2.874   1.172   1.391 -0.5353  0.4685  0.0610
 3730TP3     H123009   2.828   1.209   1.466 -1.5214  0.2404 -0.4219
 3730TP3     H223010   2.967   1.182   1.413 -0.7947 -0.1792  1.6062
 3731TP3      O23011   3.376   3.374   2.854  0.0555 -0.4728  0.3992
 3731TP3     H123012   3.435   3.391   2.928  0.4257  2.7067 -0.4845
 3731TP3     H223013   3.315   3.308   2.888  0.5486  0.4212  3.3604
 3732TP3      O23014   2.267   1.935   9.425 -0.5637 -0.0407  0.7069
 3732TP3     H123015   2.322   1.922   9.347 -0.6372 -0.3163  0.6994
 3732TP3     H223016   2.195   1.989   9.394 -1.6808 -1.8111  0.0795
 3733TP3      O23017   3.999   1.702   1.299 -0.2264 -0.4877 -0.0420
 3733TP3     H123018   4.040   1.635   1.354 -0.7252 -0.9626 -0.2515
 3733TP3     H223019   3.905   1.685   1.305 -0.4636  0.8931  0.8218
 3734TP3      O23020   1.552   0.630   0.117 -0.1667  0.2081 -0.8120
 3734TP3     H123021   1.581   0.559   0.174 -1.5524 -1.7579 -2.4190
 3734TP3     H223022   1.543   0.706   0.175  0.7133 -1.0771  1.0950
 3735TP3      O23023   3.340   3.816   8.589 -0.3200  0.7414 -0.1283
 3735TP3     H123024   3.300   3.868   8.519  0.9581  0.1161 -1.3694
 3735TP3     H223025   3.430   3.848   8.594  0.6095 -1.5181 -1.1496
 3736TP3      O23026   3.330   1.541   3.093 -0.1287  0.2847  0.3113
 3736TP3     H123027   3.335   1.456   3.050  1.9138  0.3595  0.3018
 3736TP3     H223028   3.277   1.595   3.034  0.3676 -0.3764 -0.7648
 3737TP3      O23029   1.427   2.157   9.976 -0.0930 -0.2317  0.0349
 3737TP3     H123030   1.360   2.177   9.911  0.8116  0.0806 -0.8175
 3737TP3     H223031   1.381   2.164  10.060 -0.8242  1.2456 -0.4527
 3738TP3      O23032   0.581   3.502   6.522  0.3507  0.0147 -0.4312
 3738TP3     H123033   0.646   3.470   6.585 -0.8970 -0.2790  0.7407
 3738TP3     H223034   0.605   3.594   6.508  1.7178 -0.3841 -0.9633
 3739TP3      O23035   3.710   1.379   1.962 -0.1367  0.1150  0.2660
 3739TP3     H123036   3.789   1.329   1.942  0.4975  1.1493  0.1629
 3739TP3     H223037   3.646   1.312   1.989  0.5801 -0.7857 -0.2123
 3740TP3      O23038   5.023   2.753   0.317  0.0392 -0.2113 -0.1907
 3740TP3     H123039   4.960   2.767   0.388 -0.2245 -0.0292 -0.4579
 3740TP3     H223040   4.971   2.715   0.246 -0.3818  2.3905 -1.3984
 3741TP3      O23041   2.924   0.816   0.410 -0.3426  0.4285  0.2243
 3741TP3     H123042   2.938   0.726   0.383 -1.9494 -0.6196  2.5152
 3741TP3     H223043   2.884   0.858   0.334  1.9201 -0.2616 -1.4549
 3742TP3      O23044   2.471   2.296  10.207  0.4184 -0.1078 -0.6127
 3742TP3     H123045   2.512   2.381  10.192  1.5081 -0.3075  0.9654
 3742TP3     H223046   2.475   2.285  10.302 -0.2279 -1.6711 -0.7482
 3743TP3      O23047   3.642   2.651   2.344  0.1776 -0.1486  0.1082
 3743TP3     H123048   3.705   2.655   2.416 -1.1814 -0.7279  1.3734
 3743TP3     H223049   3.601   2.565   2.353  0.8960 -0.8160 -2.1932
 3744TP3      O23050   3.021   3.180   8.867 -0.0451  0.3839  0.0834
 3744TP3     H123051   3.018   3.228   8.784  0.3139 -0.5224 -0.4752
 3744TP3     H223052   3.087   3.226   8.919  2.0716 -0.8337 -1.3520
 3745TP3      O23053   2.944   4.007   2.685 -0.4058  0.1757 -0.4621
 3745TP3     H123054   2.899   4.002   2.600  1.8055 -2.9056 -1.6410
 3745TP3     H223055   3.016   3.945   2.677  0.8348  0.9269  3.1944
 3746TP3      O23056   0.825   2.666   9.389  0.2270  0.0037  0.6456
 3746TP3     H123057   0.785   2.752   9.381  1.0806  0.2878 -0.7244
 3746TP3     H223058   0.750   2.606   9.399 -0.5071  0.6321 -0.8662
 3747TP3      O23059   1.690   2.939   9.812 -0.3560 -0.0828 -0.1693
 3747TP3     H123060   1.622   2.876   9.787 -1.8512  1.3488  0.1324
 3747TP3     H223061   1.652   3.025   9.793  1.3615  0.7902  0.0719
 3748TP3      O23062   3.679   5.161   1.554 -0.8207  0.6121  0.2383
 3748TP3     H123063   3.661   5.149   1.461  0.6925  1.9068 -0.2708
 3748TP3     H223064   3.602   5.124   1.598 -2.5050  1.7123 -1.5819
 3749TP3      O23065   3.719   2.319  10.323  0.5330  0.4371  0.2634
 3749TP3     H123066   3.740   2.301  10.231  0.9066  3.1082 -0.2480
 3749TP3     H223067   3.782   2.266  10.372  2.0420  0.8777 -1.0860
 3750TP3      O23068   1.057   0.937   8.005 -0.7751  0.2432  0.2647
 3750TP3     H123069   1.149   0.940   8.031 -0.7412  2.0794  0.0416
 3750TP3     H223070   1.045   0.848   7.971  0.7482 -0.2208  0.8416
 3751TP3      O23071   3.443   1.906   3.375  0.2844  0.0883  0.8547
 3751TP3     H123072   3.445   1.819   3.336 -0.7669  0.0060  0.9548
 3751TP3     H223073   3.535   1.928   3.390  0.7278  0.0367 -1.4478
 3752TP3      O23074   1.422   4.577   9.549  0.1771  1.0070 -0.1331
 3752TP3     H123075   1.382   4.547   9.631  2.4156 -0.1951  0.5809
 3752TP3     H223076   1.449   4.667   9.567 -1.3018  1.5207 -0.3310
 3753TP3      O23077   4.017   2.905  10.057  0.1679  0.2452 -0.6603
 3753TP3     H123078   3.958   2.937   9.988 -1.0778 -0.2744  0.1478
 3753TP3     H223079   3.975   2.931  10.139  1.1737  0.0431 -0.0654
 3754TP3      O23080   2.936   1.246   2.826  0.2198 -0.2082  0.5062
 3754TP3     H123081   2.857   1.201   2.796  0.3458 -0.2209  0.1824
 3754TP3     H223082   2.947   1.218   2.917  0.8268 -1.6245  0.0295
 3755TP3      O23083   4.155   3.082   0.088  0.0928 -0.1229  0.4066
 3755TP3     H123084   4.142   2.996   0.127  0.2099  0.9402  2.9951
 3755TP3     H223085   4.248   3.100   0.098 -0.0250  0.5172  0.4325
 3756TP3      O23086   1.185   3.165   8.789  0.1572  0.0473 -0.1615
 3756TP3     H123087   1.207   3.234   8.851 -1.9904  1.2181 -0.6083
 3756TP3     H223088   1.210   3.084   8.833  0.8702  0.9827  1.2186
 3757TP3      O23089   0.362   3.011   9.073  0.7555 -0.4581  0.6509
 3757TP3     H123090   0.273   3.041   9.058  0.7605 -0.4795  0.5741
 3757TP3     H223091   0.370   2.933   9.018  1.4311  0.6250 -0.8514
 3758TP3      O23092   4.040   1.288   0.805  0.7525 -0.1670 -0.1870
 3758TP3     H123093   4.023   1.358   0.869  2.3423  0.8341 -0.8036
 3758TP3     H223094   3.966   1.293   0.745  1.2936  1.6888 -0.7773
 3759TP3      O23095   4.160   2.412   0.918 -0.6011 -0.2063 -1.0716
 3759TP3     H123096   4.126   2.332   0.878 -1.7602 -0.2591 -0.0486
 3759TP3     H223097   4.120   2.414   1.005  0.7409  0.6192 -0.4332
 3760TP3      O23098   1.220   2.376   3.299 -0.5352  0.1402  0.1505
 3760TP3     H123099   1.245   2.290   3.265  0.2717  0.0783  0.8697
 3760TP3     H223100   1.129   2.365   3.326 -0.9852  0.0010 -1.3082
 3761TP3      O23101   3.286   4.024   0.369 -0.5781 -0.1945 -0.3298
 3761TP3     H123102   3.235   4.052   0.293 -1.5642 -1.2631 -0.0885
 3761TP3     H223103   3.246   4.069   0.443 -1.3407 -1.2003 -0.1107
 3762TP3      O23104   0.291   0.538   9.818 -0.5718 -0.3230  0.2679
 3762TP3     H123105   0.302   0.444   9.833 -1.3548 -0.6116 -0.8013
 3762TP3     H223106   0.257   0.544   9.729  0.4828  1.0529 -0.0743
 3763TP3      O23107   3.617   4.836   7.225  0.0293  0.3719 -0.0919
 3763TP3     H123108   3.702   4.853   7.184 -0.6051  1.9597 -0.8496
 3763TP3     H223109   3.622   4.746   7.255  1.7650  0.2456 -0.6536
 3764TP3      O23110   2.950   1.909   8.222 -0.9159  0.5811 -0.9417
 3764TP3     H123111   2.886   1.900   8.151 -3.0506  1.9458  0.6668
 3764TP3     H223112   3.008   1.979   8.194 -1.9238  1.3123 -1.2307
 3765TP3      O23113   2.074   0.024   2.677  0.3486  0.6727  0.7006
 3765TP3     H123114   1.985  -0.003   2.700 -0.1456  0.5233 -1.1729
 3765TP3     H223115   2.107  -0.047   2.622 -0.0613  2.6009 -2.2706
 3766TP3      O23116   2.482   4.611   8.760 -0.5310 -0.0559  0.2199
 3766TP3     H123117   2.409   4.551   8.774  1.2237 -2.0517  1.4992
 3766TP3     H223118   2.509   4.638   8.848  0.8461 -0.1528 -0.1396
 3767TP3      O23119   4.907   2.782   7.941  0.6178 -0.2578  0.5471
 3767TP3     H123120   4.838   2.723   7.912  0.4524 -0.4402  1.3002
 3767TP3     H223121   4.861   2.860   7.972  0.6504 -0.8817  2.2533
 3768TP3      O23122   3.164   2.775   1.332  0.7873 -0.3421  0.0242
 3768TP3     H123123   3.212   2.857   1.319  1.4591 -0.9343 -1.4790
 3768TP3     H223124   3.212   2.730   1.401  2.9838 -1.2650 -1.9662
 3769TP3      O23125   5.122   0.903   1.683  0.1679  0.0338 -0.0140
 3769TP3     H123126   5.141   0.991   1.716 -3.0589  0.8710 -0.1340
 3769TP3     H223127   5.078   0.917   1.600 -1.2061 -1.6225  0.3728
 3770TP3      O23128   4.859   1.122   8.894 -0.0936  0.3714 -0.1416
 3770TP3     H123129   4.813   1.151   8.973  0.4202  1.4256 -0.2118
 3770TP3     H223130   4.797   1.063   8.850 -1.1168  1.2399  0.0947
 3771TP3      O23131   3.170   0.491   1.821  0.3648 -0.7847  0.2532
 3771TP3     H123132   3.121   0.477   1.740 -1.2908 -2.3826  1.4387
 3771TP3     H223133   3.208   0.405   1.840  2.1395 -0.0098  0.3265
 3772TP3      O23134   0.984   2.995   9.897 -0.4832  0.9159  0.0409
 3772TP3     H123135   0.953   3.076   9.857 -1.5700  1.6511  2.2282
 3772TP3     H223136   0.948   2.996   9.986  0.8881 -1.1516  0.7077
 3773TP3      O23137   1.696   4.396   2.886 -0.1344  0.0745 -0.3908
 3773TP3     H123138   1.626   4.432   2.941 -1.1934 -0.2246 -1.4830
 3773TP3     H223139   1.756   4.354   2.947  0.3171  2.2915  0.7824
 3774TP3      O23140   4.037   1.391   9.397  0.5178 -0.7189  0.2736
 3774TP3     H123141   3.971   1.338   9.354 -0.5817  0.8772 -0.0692
 3774TP3     H223142   3.989   1.440   9.464  1.4336  0.0366  0.4038
 3775TP3      O23143   0.223   4.780   8.228 -0.0928  0.4964  0.4029
 3775TP3     H123144   0.291   4.841   8.257  1.8108 -2.7035  3.5483
 3775TP3     H223145   0.144   4.809   8.272 -0.2664  2.7760 -1.2318
 3776TP3      O23146   4.229   1.914   9.729  0.6402  0.8453  0.2993
 3776TP3     H123147   4.208   1.999   9.768 -0.8374  1.0462 -0.8406
 3776TP3     H223148   4.321   1.899   9.752  0.9163  2.7204  0.5634
 3777TP3      O23149   0.556   1.765   7.650 -0.3505  0.2705 -0.1297
 3777TP3     H123150   0.624   1.699   7.631 -1.9625 -1.5907  0.2800
 3777TP3     H223151   0.542   1.808   7.566  0.2554 -0.3893 -0.5887
 3778TP3      O23152   1.948   0.175   9.261  0.2450 -0.4918  0.2379
 3778TP3     H123153   1.977   0.108   9.199  0.7533  0.1310 -0.2104
 3778TP3     H223154   1.880   0.222   9.214 -0.1732 -0.7394  0.5866
 3779TP3      O23155   4.577   1.940   8.567 -0.4525  0.3482 -0.0700
 3779TP3     H123156   4.562   1.846   8.581  2.4500 -0.1919  0.0411
 3779TP3     H223157   4.669   1.946   8.541 -0.9331  3.0610 -1.5132
 3780TP3      O23158   4.402   3.848   8.017  0.1204  0.3719 -0.1277
 3780TP3     H123159   4.490   3.877   7.994  0.5050  0.2844  1.1782
 3780TP3     H223160   4.350   3.864   7.938  1.5678 -0.8073 -1.3623
 3781TP3      O23161   1.615   0.998   1.922  0.4619  0.8445  0.2253
 3781TP3     H123162   1.642   1.090   1.919  1.2415  0.6952  1.7919
 3781TP3     H223163   1.581   0.986   2.010 -1.8040  0.1690 -0.6665
 3782TP3      O23164   4.258   2.882   9.179 -0.3145  0.2155 -0.2651
 3782TP3     H123165   4.274   2.953   9.117 -0.2840 -0.1262 -0.6615
 3782TP3     H223166   4.306   2.907   9.258 -0.0411  0.4823 -0.5103
 3783TP3      O23167   3.899   1.150   0.372  0.1359 -0.0467  0.3082
 3783TP3     H123168   3.982   1.103   0.379  0.1915  0.2338  1.6770
 3783TP3     H223169   3.912   1.209   0.298  1.7765  1.1824  1.5100
 3784TP3      O23170   3.033   5.196   7.279  0.3095  0.1377 -0.3452
 3784TP3     H123171   2.951   5.152   7.257 -0.2838  2.0087 -2.2021
 3784TP3     H223172   3.008   5.287   7.293  2.2084  1.0092 -2.1675
 3785TP3      O23173   3.402   5.165   7.968 -0.7869  0.1014 -0.0895
 3785TP3     H123174   3.327   5.149   7.910 -2.3888 -1.2241  2.1915
 3785TP3     H223175   3.448   5.082   7.971 -0.2966  0.3711 -0.0038
 3786TP3      O23176   3.776   1.846   3.081  0.1839 -0.3210 -0.1106
 3786TP3     H123177   3.779   1.776   3.016 -1.2052  0.3142 -0.9261
 3786TP3     H223178   3.859   1.892   3.070  1.2537 -1.9724  0.6479
 3787TP3      O23179   1.820   2.806   0.937 -0.2440 -0.1618 -0.1089
 3787TP3     H123180   1.809   2.900   0.926  0.6491 -0.3157 -3.6140
 3787TP3     H223181   1.912   2.795   0.959 -0.4684 -0.2200  0.8354
 3788TP3      O23182   3.425   2.483   1.297  0.2712  0.7372 -0.3914
 3788TP3     H123183   3.347   2.505   1.246 -1.2740 -0.0978  1.5035
 3788TP3     H223184   3.411   2.393   1.326  1.9474  0.5783  0.0449
 3789TP3      O23185   0.956   4.871   7.598  0.4005  0.0317 -0.2365
 3789TP3     H123186   0.868   4.856   7.635  0.3209  1.8622  0.4452
 3789TP3     H223187   0.944   4.861   7.504 -0.8660  1.4462 -0.2787
 3790TP3      O23188   0.349   4.500   0.014  0.3490 -0.3284  0.3552
 3790TP3     H123189   0.301   4.433  -0.034 -0.7687 -0.0466  1.0521
 3790TP3     H223190   0.434   4.458   0.034  0.3801 -0.8636 -0.7904
 3791TP3      O23191   2.230   3.209   8.075 -0.3297  0.2579  0.2856
 3791TP3     H123192   2.186   3.130   8.106 -0.6640  0.0425 -0.6979
 3791TP3     H223193   2.174   3.281   8.104 -1.3233 -0.0107 -0.8936
 3792TP3      O23194   2.100   0.372  10.382 -0.0885 -0.5338  0.7275
 3792TP3     H123195   2.065   0.331  10.461  2.3960 -1.7863  1.2590
 3792TP3     H223196   2.168   0.432  10.414 -0.3527  0.3965 -0.3646
 3793TP3      O23197   4.681   4.518   2.575 -0.3442  0.1343  0.6750
 3793TP3     H123198   4.640   4.576   2.639  0.0335 -1.5165  2.5010
 3793TP3     H223199   4.610   4.462   2.545 -0.2764  0.1061  0.5665
 3794TP3      O23200   0.446   5.125   8.536  0.3838  0.1294 -0.4942
 3794TP3     H123201   0.462   5.117   8.630  0.4231  0.6949 -0.4465
 3794TP3     H223202   0.411   5.214   8.526 -0.4561 -0.2468 -0.9009
 3795TP3      O23203   3.974   4.835   1.873 -0.0925 -0.1558 -0.0459
 3795TP3     H123204   3.911   4.878   1.815  1.9720  2.8062 -0.3590
 3795TP3     H223205   4.054   4.887   1.863  1.7376 -2.3609  1.9953
 3796TP3      O23206   2.311   4.982   1.433  0.2100 -0.8498 -0.5528
 3796TP3     H123207   2.379   5.031   1.386  1.2873 -0.5615  1.2131
 3796TP3     H223208   2.285   4.913   1.372  0.6700  0.2334 -2.0203
 3797TP3      O23209   3.803   4.254   7.788 -0.3562 -0.2732  0.3007
 3797TP3     H123210   3.893   4.249   7.820 -0.1975 -0.4035 -0.1552
 3797TP3     H223211   3.799   4.336   7.739  0.1807 -1.3454 -1.6343
 3798TP3      O23212   0.014   3.871   0.568 -0.0368 -0.4158  0.7668
 3798TP3     H123213   0.072   3.932   0.523  0.0597 -0.5416  0.7200
 3798TP3     H223214  -0.051   3.927   0.611 -2.3693 -0.3318 -2.4955
 3799TP3      O23215   4.491   2.430   9.397 -0.2794  0.1854 -0.2865
 3799TP3     H123216   4.492   2.522   9.372  0.6601  0.1584 -0.3703
 3799TP3     H223217   4.582   2.402   9.389 -0.6297 -0.8748 -0.7411
 3800TP3      O23218   5.147   0.189   8.400  0.1109 -0.4505 -0.0564
 3800TP3     H123219   5.216   0.224   8.344  0.8234 -0.8837  0.5310
 3800TP3     H223220   5.172   0.217   8.488 -1.8928  1.7012 -0.0772
 3801TP3      O23221   5.142   2.215   8.664 -0.8217  0.5056 -0.4261
 3801TP3     H123222   5.152   2.122   8.642 -0.6720  0.2062  0.8243
 3801TP3     H223223   5.201   2.260   8.604 -0.3850 -0.2803 -0.6038
 3802TP3      O23224   3.142   0.821   8.351 -0.3423 -0.1394 -0.0576
 3802TP3     H123225   3.189   0.784   8.426  0.2189 -1.9912 -1.2678
 3802TP3     H223226   3.206   0.820   8.280 -1.6350 -1.0030 -1.2650
 3803TP3      O23227   0.585   2.115   7.176 -0.6381 -0.0108 -0.3006
 3803TP3     H123228   0.555   2.036   7.131  0.3209 -0.6475  0.1556
 3803TP3     H223229   0.557   2.103   7.267  0.2392 -0.2284 -0.0499
 3804TP3      O23230   1.276   1.184   1.465 -0.1267  0.3039 -0.1661
 3804TP3     H123231   1.322   1.116   1.514 -0.8142  0.2096  0.3690
 3804TP3     H223232   1.314   1.266   1.496 -1.2446  0.2993  1.2920
 3805TP3      O23233   1.143   3.520   7.693 -0.6788 -0.5666  0.1585
 3805TP3     H123234   1.228   3.498   7.654 -1.1193 -0.6631 -0.7997
 3805TP3     H223235   1.084   3.528   7.617 -1.1617  1.1500  0.6713
 3806TP3      O23236   0.971   4.494   1.980  0.2334 -0.3773  0.3968
 3806TP3     H123237   0.962   4.582   2.015  0.3726 -0.1955 -0.0189
 3806TP3     H223238   1.064   4.473   1.992 -0.0574 -0.9826  1.6993
 3807TP3      O23239   5.124   3.030   2.524 -0.2306  0.1501  0.6926
 3807TP3     H123240   5.134   3.043   2.429  1.1926  0.4640  0.8620
 3807TP3     H223241   5.111   3.119   2.558  0.2968  0.1563  0.8888
 3808TP3      O23242   1.871   2.871   7.469  0.3397 -0.2688  0.2015
 3808TP3     H123243   1.876   2.849   7.376 -1.5335 -3.3574  0.6768
 3808TP3     H223244   1.935   2.812   7.510  1.4664  1.3680  0.8857
 3809TP3      O23245   5.076   4.817   0.398  0.3955 -0.1038  0.0659
 3809TP3     H123246   5.096   4.728   0.427 -2.1352 -1.2530 -1.3174
 3809TP3     H223247   5.113   4.822   0.310 -1.9049 -0.9242 -1.0249
 3810TP3      O23248   2.329   1.987   1.776  0.2210  0.1150  0.4554
 3810TP3     H123249   2.380   1.921   1.825 -0.9048  0.9402  2.8922
 3810TP3     H223250   2.366   2.070   1.804 -0.0466  0.6249 -0.6613
 3811TP3      O23251   1.815   1.825   2.788  0.1912  0.4494  0.0790
 3811TP3     H123252   1.789   1.916   2.800 -0.7363  0.0867  1.0205
 3811TP3     H223253   1.875   1.807   2.861  0.7104  0.4296 -0.3529
 3812TP3      O23254   0.805   3.997   1.914 -0.2880 -0.2705 -0.2500
 3812TP3     H123255   0.892   3.988   1.876 -0.7632  0.3364 -1.5543
 3812TP3     H223256   0.792   4.091   1.925 -0.4918 -0.3935  0.6715
 3813TP3      O23257   3.966   1.230   8.736 -0.3120  0.0457 -0.1586
 3813TP3     H123258   3.990   1.292   8.667  2.7202 -0.5699  0.1990
 3813TP3     H223259   3.951   1.147   8.689  0.3919 -0.0461 -0.2400
 3814TP3      O23260   0.040   1.287   8.560  0.0362 -0.3185  0.1263
 3814TP3     H123261  -0.044   1.310   8.600 -0.7815 -0.0696 -1.6343
 3814TP3     H223262   0.096   1.362   8.577 -1.3090  1.2715 -1.8891
 3815TP3      O23263   1.229   2.847   8.690  0.2962  0.3687  0.6139
 3815TP3     H123264   1.266   2.917   8.635  0.2201 -0.2052 -0.1758
 3815TP3     H223265   1.272   2.767   8.659 -2.0373 -0.4232 -0.7451
 3816TP3      O23266   1.847   4.313   7.895 -0.1478 -0.4800  0.2556
 3816TP3     H123267   1.890   4.350   7.818 -0.0066 -0.2545  0.4448
 3816TP3     H223268   1.866   4.374   7.966 -1.8673  0.3309  0.0845
 3817TP3      O23269   1.012   0.816   9.088  0.4744 -0.0167 -0.2147
 3817TP3     H123270   1.048   0.740   9.132  0.5130 -0.0417 -0.2884
 3817TP3     H223271   0.930   0.785   9.049 -0.1176  0.2733  0.7449
 3818TP3      O23272   2.200   2.680  10.349  0.0313 -0.1494  0.1574
 3818TP3     H123273   2.280   2.733  10.342  0.9385 -1.4406  0.4235
 3818TP3     H223274   2.202   2.645  10.438 -0.0941 -1.2868 -0.2655
 3819TP3      O23275   3.193   1.381   0.701 -0.7786 -0.3889  0.0569
 3819TP3     H123276   3.214   1.372   0.794 -1.1651 -0.5437  0.1329
 3819TP3     H223277   3.100   1.357   0.695 -1.3034  1.5038 -0.0680
 3820TP3      O23278   0.871   0.690   2.589  0.5109 -0.0663  0.2255
 3820TP3     H123279   0.856   0.783   2.572 -0.6062 -0.3162 -0.2383
 3820TP3     H223280   0.795   0.662   2.640 -1.1226 -1.5480 -2.7718
 3821TP3      O23281   2.010   5.145  10.071 -0.0198  0.2274  0.2446
 3821TP3     H123282   2.034   5.230  10.034  0.2164  0.0484 -0.0171
 3821TP3     H223283   2.037   5.150  10.163  0.1633  0.3654  0.1834
 3822TP3      O23284   0.512   4.356   9.684  0.3180  0.0650  0.2118
 3822TP3     H123285   0.450   4.347   9.611 -0.8555 -1.6533  1.3651
 3822TP3     H223286   0.470   4.418   9.744 -0.0129 -0.6445  0.7162
 3823TP3      O23287   2.247   3.482   7.863  0.0585  0.3858  0.2753
 3823TP3     H123288   2.173   3.490   7.803  1.0091  1.2029 -0.8639
 3823TP3     H223289   2.211   3.498   7.950 -1.1324  0.4837 -0.2276
 3824TP3      O23290   0.390   4.775   7.074 -0.1809  0.1895  0.0150
 3824TP3     H123291   0.452   4.847   7.064  0.0717 -0.2402 -2.0969
 3824TP3     H223292   0.314   4.814   7.117  1.1488  0.9464  1.7803
 3825TP3      O23293   1.827   3.342   1.752 -0.2241 -0.2861  0.3348
 3825TP3     H123294   1.763   3.381   1.811 -1.0000 -1.6052  0.4126
 3825TP3     H223295   1.833   3.251   1.780  3.0678  0.1726  1.4983
 3826TP3      O23296   3.064   3.860   2.106 -0.2510 -0.0714 -0.3261
 3826TP3     H123297   3.063   3.788   2.043 -0.6494  0.0320 -0.4407
 3826TP3     H223298   2.972   3.886   2.114 -0.3347 -0.6637  0.9594
 3827TP3      O23299   2.102   5.136   9.551 -0.2629 -0.5163 -0.3030
 3827TP3     H123300   2.026   5.193   9.541  0.7504  0.4451 -4.5278
 3827TP3     H223301   2.068   5.048   9.532 -0.6046 -0.3068 -0.6776
 3828TP3      O23302   1.511   4.834   9.826  0.0664 -0.7598  0.0256
 3828TP3     H123303   1.461   4.785   9.891  0.3869 -0.5426  0.4432
 3828TP3     H223304   1.497   4.926   9.850  1.5231 -0.7060  0.8242
 3829TP3      O23305   4.022   4.808   1.341 -0.3992 -0.5112 -0.0975
 3829TP3     H123306   4.071   4.748   1.284 -1.3343 -0.1864 -1.2973
 3829TP3     H223307   4.069   4.892   1.331  0.0762 -0.7068  0.4700
 3830TP3      O23308   2.492   0.067   9.834  0.3112  0.5904 -0.3960
 3830TP3     H123309   2.483   0.073   9.929 -0.7725  1.6632 -0.5454
 3830TP3     H223310   2.586   0.072   9.819  0.4757  0.7526  0.6047
 3831TP3      O23311   4.383   3.515   7.271 -0.5238 -0.0654  0.0980
 3831TP3     H123312   4.313   3.515   7.206 -1.3618 -3.0468  0.8220
 3831TP3     H223313   4.391   3.423   7.297  1.0402  0.7368  2.8699
 3832TP3      O23314   1.236   1.042   7.554  0.2803  0.1391  0.7151
 3832TP3     H123315   1.313   1.028   7.500 -0.2385  3.1710 -1.0260
 3832TP3     H223316   1.270   1.055   7.642  1.8234  1.3235 -0.0068
 3833TP3      O23317   3.329   1.366   2.096 -0.1830 -0.8264 -0.2837
 3833TP3     H123318   3.275   1.382   2.173 -0.9977  0.3420 -1.0629
 3833TP3     H223319   3.337   1.271   2.092  2.0867 -0.9227  2.6885
 3834TP3      O23320   4.895   2.461   2.404 -0.2555  0.0784 -0.2328
 3834TP3     H123321   4.883   2.553   2.382 -0.8963 -0.2362 -1.2245
 3834TP3     H223322   4.814   2.435   2.448  0.3367  0.2472  1.0012
 3835TP3      O23323   4.856   5.217   9.366  0.1053 -0.5792 -0.1464
 3835TP3     H123324   4.868   5.136   9.415 -0.8277 -0.2789  0.5962
 3835TP3     H223325   4.800   5.193   9.293 -2.2103 -0.1572  1.4047
 3836TP3      O23326   3.063   4.935   8.092  0.5612  0.1044 -0.2388
 3836TP3     H123327   3.004   4.869   8.057  1.1768 -1.0048  0.7435
 3836TP3     H223328   3.008   4.992   8.146  0.4261 -1.1694  1.0156
 3837TP3      O23329   1.610   2.311   0.944  0.7228 -0.3502  0.1895
 3837TP3     H123330   1.691   2.313   0.894  0.6400 -0.2624  0.0589
 3837TP3     H223331   1.554   2.248   0.899  0.7243 -0.4243  0.2898
 3838TP3      O23332   0.509   4.779   0.966 -0.8545  0.8406  0.4934
 3838TP3     H123333   0.570   4.830   1.019  0.0479  0.8271 -0.4863
 3838TP3     H223334   0.553   4.695   0.953 -0.6763  1.1156 -0.8967
 3839TP3      O23335   0.186   0.336   8.396  0.4955  0.6948  0.1158
 3839TP3     H123336   0.260   0.290   8.436  1.6535  1.6597 -0.8156
 3839TP3     H223337   0.202   0.428   8.417 -1.0696  0.8445  0.8316
 3840TP3      O23338   2.989   0.459   8.982  0.0222  0.2013  0.2214
 3840TP3     H123339   3.051   0.438   9.052  0.6455  0.9300 -0.0855
 3840TP3     H223340   2.904   0.465   9.025 -0.5117 -4.0638  0.1791
 3841TP3      O23341   0.298   2.409   1.128 -0.2662 -0.1261  0.1357
 3841TP3     H123342   0.389   2.382   1.143 -0.0742  0.0950 -0.6393
 3841TP3     H223343   0.302   2.504   1.122 -0.2702 -0.2101 -1.6833
 3842TP3      O23344   0.834   4.285   0.306 -0.2943 -0.6114 -0.3398
 3842TP3     H123345   0.897   4.279   0.234 -0.2369 -1.1725 -0.2514
 3842TP3     H223346   0.780   4.361   0.284  1.1139  0.5956  0.1506
 3843TP3      O23347   0.685   3.122   7.658  0.9322 -0.2294 -0.1295
 3843TP3     H123348   0.739   3.051   7.623 -0.3725 -0.7180 -1.2280
 3843TP3     H223349   0.596   3.088   7.657  0.2902  1.3440 -0.5005
 3844TP3      O23350   2.503   2.102   1.520 -0.1336 -0.4495  0.1383
 3844TP3     H123351   2.509   2.031   1.583 -0.9332  1.3698  2.4275
 3844TP3     H223352   2.594   2.122   1.498  0.1943 -0.9308  0.9993
 3845TP3      O23353   4.568   0.413   2.092 -0.6074  0.7357 -0.2614
 3845TP3     H123354   4.537   0.487   2.145  0.5086 -0.3011  1.9856
 3845TP3     H223355   4.652   0.389   2.132  0.2907 -0.1699 -2.5359
 3846TP3      O23356   3.227   4.629   8.049  0.9040 -0.6098 -0.1173
 3846TP3     H123357   3.294   4.637   7.981  1.4419 -2.4626  0.1383
 3846TP3     H223358   3.267   4.572   8.115 -1.1222 -2.2967 -0.2552
 3847TP3      O23359   4.244   2.121   9.519  0.1667  0.0491  0.4082
 3847TP3     H123360   4.252   2.033   9.556  2.2617  1.1243  2.7934
 3847TP3     H223361   4.280   2.113   9.431  0.2009 -1.4954  0.5377
 3848TP3      O23362   4.076   3.772   9.804  0.3290  0.0421  0.0443
 3848TP3     H123363   4.098   3.864   9.819 -0.8802  0.3867 -0.2223
 3848TP3     H223364   3.982   3.772   9.787  0.0175 -1.4342  1.5195
 3849TP3      O23365   4.520   1.231   1.587 -0.1249  0.2997 -0.2680
 3849TP3     H123366   4.565   1.292   1.646 -0.8037  1.6711 -1.1117
 3849TP3     H223367   4.590   1.196   1.531  0.5715 -1.2405  1.4745
 3850TP3      O23368   2.668   0.851   8.431  0.6652  0.1383 -0.8336
 3850TP3     H123369   2.649   0.918   8.497 -0.1671  0.6017 -1.5269
 3850TP3     H223370   2.589   0.797   8.428  1.4116 -1.0402 -0.1174
 3851TP3      O23371   4.855   1.797   0.879  0.1515  0.5686 -0.5911
 3851TP3     H123372   4.950   1.786   0.884 -0.1035 -1.6620  0.1933
 3851TP3     H223373   4.829   1.750   0.800 -0.5046 -0.7508  0.3723
 3852TP3      O23374   0.742   1.313   8.127 -0.2526  0.0419  0.3268
 3852TP3     H123375   0.799   1.387   8.104 -0.6102  1.1605  2.7017
 3852TP3     H223376   0.802   1.241   8.147  0.1322 -0.0437 -1.0418
 3853TP3      O23377   4.793   4.620   7.203 -0.2352 -0.6899  0.0176
 3853TP3     H123378   4.872   4.595   7.156  0.0366  0.1593  0.0060
 3853TP3     H223379   4.825   4.657   7.286 -0.5722  0.3236 -0.2889
 3854TP3      O23380   4.705   3.091   8.451  0.1903 -0.7541  0.0437
 3854TP3     H123381   4.646   3.071   8.524  1.3338 -3.3542  0.3624
 3854TP3     H223382   4.743   3.176   8.474 -2.2984  0.3150  0.5271
 3855TP3      O23383   2.101   4.956   8.934  0.7749  0.0711 -0.1417
 3855TP3     H123384   2.175   4.995   8.887  0.3286  0.4637 -0.5368
 3855TP3     H223385   2.110   4.862   8.921  0.8190  0.1626 -0.7717
 3856TP3      O23386   3.151   0.060   8.779  0.2824 -0.1879  0.0942
 3856TP3     H123387   3.132   0.066   8.873  0.1762  1.0998  0.0066
 3856TP3     H223388   3.186   0.146   8.756 -1.8578  0.3547 -1.5216
 3857TP3      O23389   1.275   0.482   0.653  0.4009  0.0404 -1.1852
 3857TP3     H123390   1.329   0.486   0.574 -0.0227  1.7319 -1.4363
 3857TP3     H223391   1.202   0.540   0.635  1.0310  1.6412  0.9518
 3858TP3      O23392   2.031   4.194   1.312  0.0940  0.4226 -0.1474
 3858TP3     H123393   1.964   4.126   1.321 -0.9713  1.6028  1.4088
 3858TP3     H223394   2.111   4.153   1.346 -0.1956 -0.4811 -0.5239
 3859TP3      O23395   3.159   4.843   7.806 -0.4133  0.1204  0.7618
 3859TP3     H123396   3.195   4.836   7.894 -0.6336  0.5958  0.8944
 3859TP3     H223397   3.104   4.765   7.797  1.6275 -1.3200  0.0721
 3860TP3      O23398   1.459   5.144   2.741 -0.3527  0.3402  0.5704
 3860TP3     H123399   1.465   5.230   2.783 -2.0763  0.7921 -0.0031
 3860TP3     H223400   1.454   5.164   2.647  0.9141 -0.5119  0.2974
 3861TP3      O23401   2.711   3.928   0.031 -0.0395  0.2253 -0.3410
 3861TP3     H123402   2.620   3.929   0.061  0.1078 -1.2932  0.2060
 3861TP3     H223403   2.732   3.836   0.019  1.1650  0.5986 -1.3247
 3862TP3      O23404   3.266   3.947   1.939 -0.3677  0.4576 -0.2906
 3862TP3     H123405   3.304   4.034   1.949  0.6455 -0.1199  1.2190
 3862TP3     H223406   3.212   3.935   2.018 -0.4372 -0.3155 -0.4455
 3863TP3      O23407   5.138   3.836   1.559 -0.2981  0.2278 -0.2177
 3863TP3     H123408   5.075   3.808   1.492 -0.6228  0.8893 -0.2051
 3863TP3     H223409   5.147   3.761   1.617 -0.6286 -0.0774 -0.5554
 3864TP3      O23410   2.799   0.803   1.036 -0.3266  0.2461 -0.1928
 3864TP3     H123411   2.735   0.871   1.059  0.3678  0.7975  0.1527
 3864TP3     H223412   2.785   0.787   0.943 -0.4143  0.9604 -0.3080
 3865TP3      O23413   2.830   2.839   0.854 -0.1649  0.4190  0.3150
 3865TP3     H123414   2.794   2.766   0.906 -2.2116  1.0611 -0.0919
 3865TP3     H223415   2.887   2.886   0.914  0.0011 -0.6679  1.0276
 3866TP3      O23416   2.322   3.870   0.773 -0.0439  0.3732 -0.2109
 3866TP3     H123417   2.266   3.905   0.842 -0.6420 -2.1829  0.6932
 3866TP3     H223418   2.281   3.900   0.691 -0.7596  1.3524  0.4866
 3867TP3      O23419   0.992   3.970   9.033  0.2786  0.5004  0.0151
 3867TP3     H123420   1.036   4.027   9.096  0.0349 -0.4240  1.0571
 3867TP3     H223421   1.064   3.923   8.990  0.4151  0.5435  0.1937
 3868TP3      O23422   1.783   0.543   3.835 -0.1625 -0.2504  0.2431
 3868TP3     H123423   1.850   0.480   3.810  0.3822  0.1858  0.5819
 3868TP3     H223424   1.828   0.606   3.892 -0.7828  0.2257  0.2293
 3869TP3      O23425   3.209   0.686   8.582  0.4639 -0.2579  0.4187
 3869TP3     H123426   3.145   0.636   8.632  0.1341  1.5160  1.8782
 3869TP3     H223427   3.270   0.620   8.550 -0.8920 -1.7716  0.7701
 3870TP3      O23428   1.992   1.118   7.682 -1.0604  0.6244  0.6903
 3870TP3     H123429   2.070   1.068   7.704 -1.4574 -1.1083 -1.4784
 3870TP3     H223430   2.009   1.205   7.718  1.5874  0.1529  0.8107
 3871TP3      O23431   1.680   4.858   8.668  0.2981  0.1219 -0.2214
 3871TP3     H123432   1.609   4.916   8.693  0.2433  0.6555 -1.5014
 3871TP3     H223433   1.759   4.900   8.702  0.3706  1.5302 -1.9541
 3872TP3      O23434   3.546   1.505   8.110 -0.2979  0.2431  0.0070
 3872TP3     H123435   3.614   1.485   8.174  0.0895 -0.6839 -0.6703
 3872TP3     H223436   3.591   1.500   8.025 -1.0532  0.3004 -0.4105
 3873TP3      O23437   0.998   0.767   1.241 -0.3788 -0.1108 -0.4818
 3873TP3     H123438   0.947   0.838   1.200 -0.9052 -1.0026 -1.4420
 3873TP3     H223439   0.945   0.740   1.316  0.0737  0.8469  0.1855
 3874TP3      O23440   3.748   1.040   7.732  0.2326 -0.4086  0.3311
 3874TP3     H123441   3.707   0.992   7.660  1.0285 -0.0687 -0.3598
 3874TP3     H223442   3.679   1.097   7.765  0.3458  0.8315 -1.4162
 3875TP3      O23443   1.906   0.758   2.382 -0.1663 -0.8227 -0.3246
 3875TP3     H123444   1.984   0.711   2.356  0.9359  1.4162 -1.3570
 3875TP3     H223445   1.874   0.800   2.301  0.1104  1.7705  0.7917
 3876TP3      O23446   2.440   1.680   9.469  0.2239 -0.2537  0.5362
 3876TP3     H123447   2.412   1.724   9.549  1.0383 -0.0698  0.7192
 3876TP3     H223448   2.480   1.748   9.416 -1.6821 -0.0381 -0.7162
 3877TP3      O23449   2.944   4.446   7.591  0.3924  0.2342  0.2100
 3877TP3     H123450   3.020   4.476   7.640  1.3279 -0.8353 -0.5485
 3877TP3     H223451   2.936   4.510   7.519 -0.1699  1.0238  0.9478
 3878TP3      O23452   1.721   2.520   0.564  0.1784 -0.4654  0.1328
 3878TP3     H123453   1.713   2.534   0.659 -1.1933  0.3872 -0.0799
 3878TP3     H223454   1.695   2.429   0.551 -1.3603 -0.0901  0.4066
 3879TP3      O23455   3.027   5.221   0.335 -0.6084 -0.4118 -0.3807
 3879TP3     H123456   3.111   5.177   0.321 -0.8672 -1.2992  0.7229
 3879TP3     H223457   3.044   5.284   0.405 -0.4898  0.5656 -1.2622
 3880TP3      O23458   1.719   2.288   1.699  0.5107 -0.5947  0.0106
 3880TP3     H123459   1.694   2.201   1.666  0.7416 -0.2916 -0.9870
 3880TP3     H223460   1.724   2.343   1.621  1.7337 -0.0104  0.4685
 3881TP3      O23461   0.281   4.227   1.680  0.1314  0.2508 -0.6551
 3881TP3     H123462   0.269   4.305   1.734  1.8834  0.4838 -0.5247
 3881TP3     H223463   0.226   4.160   1.721  0.2268  0.8536  0.5038
 3882TP3      O23464   2.550   1.637   9.124 -0.2590  0.2743 -0.0173
 3882TP3     H123465   2.503   1.554   9.136  0.3433 -0.0143  0.3752
 3882TP3     H223466   2.628   1.629   9.179 -0.2260  1.1296  0.0774
 3883TP3      O23467   2.864   0.891   8.231  0.4374  0.8103 -0.5050
 3883TP3     H123468   2.948   0.858   8.261  0.1421  1.5821  1.2718
 3883TP3     H223469   2.809   0.894   8.309 -1.5456 -0.4668 -1.7455
 3884TP3      O23470   1.221   1.969   8.007 -0.5079  0.0672  0.5220
 3884TP3     H123471   1.162   2.043   8.013 -0.1655  0.5953 -1.7815
 3884TP3     H223472   1.309   2.007   8.012 -0.3251 -0.1140 -0.8150
 3885TP3      O23473   3.156   1.374   8.386 -0.3767 -0.3875  0.6494
 3885TP3     H123474   3.129   1.282   8.386  0.8530 -0.7763  1.7035
 3885TP3     H223475   3.212   1.382   8.463  1.5947  0.6323 -0.8141
 3886TP3      O23476   4.378   2.907   9.441  0.0077  0.4400 -0.3299
 3886TP3     H123477   4.430   2.987   9.445  0.0432  0.3779  0.5935
 3886TP3     H223478   4.409   2.854   9.514 -1.6071  0.5701  0.4993
 3887TP3      O23479   1.063   1.809   1.531 -0.3411  0.9108 -0.1959
 3887TP3     H123480   1.119   1.796   1.607 -0.8536 -1.8419 -0.1860
 3887TP3     H223481   1.115   1.775   1.458 -1.1560  0.3304 -0.5170
 3888TP3      O23482   0.280   2.821   3.184 -0.5016  0.0548 -0.0187
 3888TP3     H123483   0.332   2.796   3.261 -0.7526 -1.1858 -0.2355
 3888TP3     H223484   0.265   2.915   3.195 -0.5475 -0.1036  1.4627
 3889TP3      O23485   4.321   3.450   0.012 -0.2073  0.1297 -0.1131
 3889TP3     H123486   4.341   3.512   0.081 -0.9472  1.5981 -1.1755
 3889TP3     H223487   4.399   3.449  -0.044  0.1729 -0.6397  0.4070
 3890TP3      O23488   3.838   2.598   2.055 -0.3608  0.2076 -0.4626
 3890TP3     H123489   3.804   2.520   2.011  0.4133  0.6683 -1.9569
 3890TP3     H223490   3.874   2.565   2.137 -2.4835 -0.5768  0.2216
 3891TP3      O23491   1.359   2.663   1.189  0.4913  0.5980  0.4490
 3891TP3     H123492   1.327   2.660   1.098 -1.9945  0.1883  1.2525
 3891TP3     H223493   1.377   2.755   1.205 -1.3801  1.0359  0.2274
 3892TP3      O23494   3.091   4.317   9.154 -0.4602 -0.0419 -0.5194
 3892TP3     H123495   3.069   4.320   9.061 -1.9871  0.2539 -0.1896
 3892TP3     H223496   3.032   4.251   9.190 -2.1983  2.0479  0.7427
 3893TP3      O23497   2.058   1.734  10.403 -0.0174  0.2077  0.7617
 3893TP3     H123498   2.107   1.655  10.379 -0.0020  0.2586  0.6275
 3893TP3     H223499   2.123   1.789  10.449  0.2594  0.6078 -0.0894
 3894TP3      O23500   0.638   0.987   7.088  0.3214  0.4282 -0.0439
 3894TP3     H123501   0.668   0.934   7.162  0.5919  0.9701  0.2441
 3894TP3     H223502   0.559   0.943   7.057 -0.7153  1.0509  1.5786
 3895TP3      O23503   5.005   0.202   8.933  0.6516  0.2233 -0.2353
 3895TP3     H123504   4.926   0.194   8.881  2.3601 -0.1556 -2.9550
 3895TP3     H223505   5.009   0.295   8.957  0.0554  0.5097 -1.2022
 3896TP3      O23506   3.558   1.614   9.796 -0.8365 -0.8097  0.1834
 3896TP3     H123507   3.567   1.521   9.815 -0.9410 -0.4820  2.0695
 3896TP3     H223508   3.465   1.633   9.812 -1.1694 -0.6684 -1.7294
 3897TP3      O23509   0.226   2.793   7.878 -0.2632  0.2366 -0.0790
 3897TP3     H123510   0.254   2.880   7.908  0.1352  0.9314 -2.3066
 3897TP3     H223511   0.131   2.794   7.883 -0.2651  0.8672 -0.2763
 3898TP3      O23512   0.701   0.329   1.750 -0.1643 -0.4280 -0.4238
 3898TP3     H123513   0.780   0.351   1.700 -0.1507 -1.4863 -0.8839
 3898TP3     H223514   0.629   0.339   1.688 -0.5904  1.8171  0.3274
 3899TP3      O23515   0.186   2.521   7.391  0.6653  0.2564 -0.2015
 3899TP3     H123516   0.191   2.500   7.298  0.7143 -1.6996  0.2023
 3899TP3     H223517   0.095   2.547   7.405  0.3883 -0.4522 -0.6207
 3900TP3      O23518   4.320   1.210   8.122 -0.6727 -0.2560  0.3719
 3900TP3     H123519   4.277   1.127   8.144  1.8777 -1.4313  1.3695
 3900TP3     H223520   4.349   1.199   8.031  1.2856 -1.3399  1.0491
 3901TP3      O23521   2.963   0.048   2.958  0.8072 -0.1861  0.3663
 3901TP3     H123522   3.036   0.106   2.980  0.0775  0.3734  1.4133
 3901TP3     H223523   2.995  -0.040   2.977  1.0947  0.0845  1.1723
 3902TP3      O23524   2.383   5.199   8.513 -0.3416 -0.5026  0.0888
 3902TP3     H123525   2.424   5.283   8.533  1.0011 -1.2326  0.5209
 3902TP3     H223526   2.301   5.222   8.470  0.0733  1.0244  0.0613
 3903TP3      O23527   2.509   1.474   8.440 -0.1230  0.5437  0.4272
 3903TP3     H123528   2.574   1.412   8.406 -1.2034 -1.5243  1.8995
 3903TP3     H223529   2.560   1.533   8.496  0.6166 -0.6124  1.0174
 3904TP3      O23530   0.584   3.603   0.257  0.4234  0.6080  0.3786
 3904TP3     H123531   0.580   3.522   0.309  0.7678  0.7356  0.6087
 3904TP3     H223532   0.510   3.596   0.196  1.1689 -0.4546 -0.4470
 3905TP3      O23533   0.181   0.814   9.560  0.6222 -0.0230  0.4397
 3905TP3     H123534   0.149   0.724   9.569  0.7186 -0.0131  0.9330
 3905TP3     H223535   0.272   0.804   9.534  1.5187 -0.1581  3.2274
 3906TP3      O23536   0.543   3.380   2.142 -0.0315  0.2914  0.3078
 3906TP3     H123537   0.494   3.365   2.061  1.2945  1.5827 -0.7918
 3906TP3     H223538   0.632   3.350   2.121  0.1205 -0.2258  1.6145
 3907TP3      O23539   2.415   2.831   7.078 -0.1912  0.2143 -0.2232
 3907TP3     H123540   2.390   2.756   7.132  0.3263 -0.0395 -0.3288
 3907TP3     H223541   2.509   2.820   7.064 -0.2819  0.3729 -1.0195
 3908TP3      O23542   4.924   4.365   9.068  0.0238  0.1120 -0.3665
 3908TP3     H123543   4.835   4.392   9.089  0.3613  0.6606  0.4204
 3908TP3     H223544   4.952   4.311   9.142  0.4042  0.0956 -0.5165
 3909TP3      O23545   3.883   3.038   9.045  0.8933  0.3574 -0.4711
 3909TP3     H123546   3.959   3.095   9.031  1.1097 -0.1964 -1.7013
 3909TP3     H223547   3.834   3.042   8.963  0.0843 -0.0158 -0.0195
 3910TP3      O23548   0.704   2.798   2.173  0.2265 -0.0169 -0.3319
 3910TP3     H123549   0.610   2.816   2.176  0.5212  1.5574  1.4891
 3910TP3     H223550   0.711   2.704   2.189 -1.0107 -0.0926 -0.1101
 3911TP3      O23551   4.551   3.475  10.296  0.6581  0.0704  0.4056
 3911TP3     H123552   4.608   3.399  10.308  0.6588  0.1423  0.9013
 3911TP3     H223553   4.579   3.513  10.213  0.0109 -1.0226 -0.3420
 3912TP3      O23554   0.961   1.141   8.150 -0.5995  0.3500 -0.2726
 3912TP3     H123555   0.988   1.061   8.105 -0.9793  0.0823 -0.0329
 3912TP3     H223556   1.014   1.210   8.110  2.2480 -0.4378  1.7887
 3913TP3      O23557   4.564   3.275   0.584  0.1541 -0.7517 -0.0937
 3913TP3     H123558   4.544   3.318   0.667  1.1067 -1.3272  0.4497
 3913TP3     H223559   4.581   3.347   0.523  0.2688 -0.3404  0.4191
 3914TP3      O23560   3.997   4.519   2.699  0.0067  0.1796  0.1393
 3914TP3     H123561   4.059   4.536   2.770  2.3052  1.0349 -1.9365
 3914TP3     H223562   3.939   4.595   2.700 -1.7937 -1.0783  2.7198
 3915TP3      O23563   5.028   1.801   1.226 -0.3421  0.0845  0.1895
 3915TP3     H123564   5.003   1.710   1.209 -0.2060  0.3534 -1.7505
 3915TP3     H223565   5.112   1.795   1.272 -0.4449 -0.7787  0.2694
 3916TP3      O23566   3.952   0.064   1.543 -0.0309 -0.4437  0.5040
 3916TP3     H123567   3.866   0.023   1.555  0.0269 -2.0779 -3.3640
 3916TP3     H223568   3.947   0.106   1.457  2.6450  0.6010  0.7603
 3917TP3      O23569   5.002   2.639   2.785  0.3859 -0.3228 -0.2594
 3917TP3     H123570   5.021   2.685   2.704  1.1612 -3.0010 -1.7173
 3917TP3     H223571   4.907   2.628   2.785  0.3608 -0.1143 -0.6888
 3918TP3      O23572   5.165   2.858   8.826 -0.0455  0.1517  0.3274
 3918TP3     H123573   5.139   2.944   8.793  1.4775  0.4591 -0.1585
 3918TP3     H223574   5.105   2.842   8.899 -0.5991  1.4607  0.1991
 3919TP3      O23575   4.506   5.100   7.742  0.1704  0.2282 -0.0741
 3919TP3     H123576   4.569   5.150   7.689 -0.2390  0.4006 -0.4038
 3919TP3     H223577   4.431   5.158   7.751 -0.4168 -0.4247 -0.6751
 3920TP3      O23578   3.355   2.922   8.848 -0.2560 -0.2311 -0.2680
 3920TP3     H123579   3.302   2.926   8.928 -0.4854 -4.6247  0.0742
 3920TP3     H223580   3.295   2.887   8.782  0.5205  1.2128 -1.7927
 3921TP3      O23581   3.771   0.371   2.826 -0.1087  0.1672  0.0485
 3921TP3     H123582   3.785   0.328   2.742 -0.4417 -0.1713  0.1674
 3921TP3     H223583   3.678   0.362   2.843 -0.1012  0.5268  0.2971
 3922TP3      O23584   1.637   2.564   8.457 -0.2615  0.1345 -0.9854
 3922TP3     H123585   1.589   2.564   8.540  0.6302 -2.6078 -0.3694
 3922TP3     H223586   1.575   2.529   8.393  0.4065 -2.1870 -0.4498
 3923TP3      O23587   1.368   2.336   1.421 -0.3243  0.1188 -0.2923
 3923TP3     H123588   1.455   2.373   1.409 -0.5266  0.6057 -0.3059
 3923TP3     H223589   1.372   2.250   1.379 -0.9359  1.6237 -3.7806
 3924TP3      O23590   3.712   4.520   9.191  0.3620  0.3642 -0.2808
 3924TP3     H123591   3.709   4.463   9.268 -0.1441 -0.2334 -0.7264
 3924TP3     H223592   3.620   4.539   9.172  0.4947  0.7365 -0.5672
 3925TP3      O23593   1.666   2.267   2.644  0.2097  0.1406 -0.2562
 3925TP3     H123594   1.673   2.332   2.573  3.6725  1.5840  1.1466
 3925TP3     H223595   1.728   2.199   2.619 -0.8072 -0.8932 -0.0112
 3926TP3      O23596   0.445   2.369   8.435 -0.7454 -0.0338  0.6369
 3926TP3     H123597   0.471   2.459   8.414 -0.0937 -0.2630  0.4365
 3926TP3     H223598   0.436   2.327   8.349 -0.2368 -0.3770  0.7448
 3927TP3      O23599   1.448   4.724   7.878  0.1840  0.4391  0.2802
 3927TP3     H123600   1.437   4.815   7.849  1.8012  1.1834  1.7970
 3927TP3     H223601   1.420   4.725   7.970  1.0190 -0.3719  0.5621
 3928TP3      O23602   2.804   2.085   3.153 -0.2098  0.2319  0.1406
 3928TP3     H123603   2.868   2.135   3.102  2.3379 -2.2100  0.6491
 3928TP3     H223604   2.824   2.107   3.244  0.9497 -1.5719  0.3691
 3929TP3      O23605   4.265   5.177   9.606 -0.1826  0.5375  0.1948
 3929TP3     H123606   4.335   5.145   9.662  1.3477 -1.0544 -2.4087
 3929TP3     H223607   4.233   5.256   9.649  1.3559 -0.1588  2.8340
 3930TP3      O23608   0.425   3.685   0.024  0.5722 -0.3119  0.2373
 3930TP3     H123609   0.333   3.680  -0.002  0.0425 -1.5407  2.0995
 3930TP3     H223610   0.438   3.776   0.049  0.1733  0.1062 -1.0076
 3931TP3      O23611   4.902   3.040   1.209 -0.5312 -0.1153  0.5495
 3931TP3     H123612   4.983   3.018   1.255 -0.5433 -1.0185  0.1724
 3931TP3     H223613   4.926   3.110   1.150  0.3489 -1.3230 -0.5882
 3932TP3      O23614   4.193   3.668   8.862 -0.0855  0.0781 -0.2745
 3932TP3     H123615   4.264   3.723   8.895  0.3466 -0.5062 -0.2133
 3932TP3     H223616   4.126   3.730   8.833 -0.1282  0.6157  0.9266
 3933TP3      O23617   4.357   0.778   8.212  0.1933 -0.2635  0.1665
 3933TP3     H123618   4.442   0.807   8.243 -0.2937  2.2006 -0.5834
 3933TP3     H223619   4.374   0.694   8.169  2.6676  1.1387 -1.8349
 3934TP3      O23620   2.227   2.569   3.512 -0.2378 -0.3056  0.3534
 3934TP3     H123621   2.252   2.660   3.529  1.3947 -0.8086  0.8103
 3934TP3     H223622   2.138   2.563   3.547 -0.6196  1.2576 -0.2317
 3935TP3      O23623   3.168   1.050   9.859 -0.0601  0.4880 -0.2280
 3935TP3     H123624   3.092   1.108   9.862 -0.0839  0.4572 -0.2370
 3935TP3     H223625   3.172   1.011   9.946 -1.6619 -1.5770 -0.9866
 3936TP3      O23626   2.018   1.754   3.509  0.6568 -0.4514 -0.5737
 3936TP3     H123627   2.067   1.723   3.585 -0.9027  0.9146  1.0733
 3936TP3     H223628   1.949   1.689   3.497 -0.2078  0.2526  0.3862
 3937TP3      O23629   3.533   1.508   1.318  0.0308  0.3717 -0.2100
 3937TP3     H123630   3.462   1.505   1.382 -1.2489  3.2908 -1.2950
 3937TP3     H223631   3.571   1.420   1.320 -1.5670 -0.3928  2.6639
 3938TP3      O23632   1.040   0.654   1.614  0.5445  0.0143 -0.5460
 3938TP3     H123633   0.974   0.685   1.676  0.8543 -1.3250  0.5011
 3938TP3     H223634   0.998   0.662   1.529 -0.4611  0.4615 -0.0256
 3939TP3      O23635   4.791   3.172   2.020 -0.9062 -0.1529 -0.1629
 3939TP3     H123636   4.885   3.188   2.026 -0.8799 -0.5829  0.7271
 3939TP3     H223637   4.752   3.260   2.015 -0.5237  0.0707  0.6341
 3940TP3      O23638   3.382   3.965   9.705 -0.8740  0.1408  0.7135
 3940TP3     H123639   3.389   3.902   9.776 -2.8269 -1.6442 -0.5382
 3940TP3     H223640   3.298   4.008   9.719 -1.5668 -0.6411 -0.7341
 3941TP3      O23641   4.365   0.167   0.274  0.1890  0.0465  0.0785
 3941TP3     H123642   4.420   0.110   0.221  0.4624  0.3623  0.0181
 3941TP3     H223643   4.327   0.228   0.211 -1.0383 -0.8007 -0.0232
 3942TP3      O23644   4.394   3.160   9.326 -0.3450 -0.1106 -0.3274
 3942TP3     H123645   4.339   3.227   9.365 -0.1665 -0.6455  0.8780
 3942TP3     H223646   4.482   3.178   9.358 -0.6884 -2.4418  2.2644
 3943TP3      O23647   0.206   4.528   9.707  0.5563  0.0412  0.3720
 3943TP3     H123648   0.115   4.528   9.736 -0.1152 -2.0362 -1.5079
 3943TP3     H223649   0.254   4.569   9.779 -1.6754  0.0039  1.9665
 3944TP3      O23650   2.204   1.720   7.321  0.1329 -0.1870 -0.0717
 3944TP3     H123651   2.214   1.814   7.306  0.1961  0.2700  2.4636
 3944TP3     H223652   2.185   1.684   7.234  1.2218  1.9919 -1.2962
 3945TP3      O23653   0.328   2.962   8.738  0.5225 -0.2855 -0.2821
 3945TP3     H123654   0.339   3.037   8.680 -0.5717  0.2809  0.2232
 3945TP3     H223655   0.364   2.888   8.689  1.1549  0.4746 -0.9850
 3946TP3      O23656   1.427   3.074   9.350  0.2867 -0.2905  0.3598
 3946TP3     H123657   1.392   3.019   9.280 -0.9624 -1.5820  1.9047
 3946TP3     H223658   1.367   3.149   9.354  0.6018 -0.0047 -0.2064
 3947TP3      O23659   1.867   4.076   8.493 -0.5340  0.3823 -0.0707
 3947TP3     H123660   1.844   3.997   8.444 -0.4418  0.1322  0.2887
 3947TP3     H223661   1.859   4.147   8.429 -0.4240  0.0574 -0.4483
 3948TP3      O23662   0.788   0.785   2.952 -0.8555  0.1740 -0.1152
 3948TP3     H123663   0.726   0.846   2.993  0.6366  0.4007  1.9821
 3948TP3     H223664   0.870   0.835   2.946 -0.5203 -0.5062 -1.6964
 3949TP3      O23665   1.311   4.872   1.219 -0.5492 -0.1889  0.2048
 3949TP3     H123666   1.393   4.858   1.266  0.2335 -0.2392 -1.1271
 3949TP3     H223667   1.336   4.872   1.127 -2.0788 -0.3779 -0.2363
 3950TP3      O23668   4.909   3.774  10.175  0.2930  0.8864 -0.0867
 3950TP3     H123669   4.870   3.695  10.139  0.1131  0.4343  1.0725
 3950TP3     H223670   5.003   3.761  10.165  0.5415 -1.2324  3.4689
 3951TP3      O23671   0.783   3.711  10.330  0.0218  0.5449  0.6074
 3951TP3     H123672   0.746   3.626  10.307  0.5351  0.4786  0.0175
 3951TP3     H223673   0.710   3.772  10.321 -0.0128  0.3795 -0.3241
 3952TP3      O23674   3.945   2.386   0.217 -0.4429 -0.2317 -0.4289
 3952TP3     H123675   3.921   2.346   0.300  0.7669  0.8201  0.4616
 3952TP3     H223676   4.019   2.335   0.186  0.7663  0.9086  0.4523
 3953TP3      O23677   0.584   2.110   8.027  0.1106 -0.2900  0.0079
 3953TP3     H123678   0.519   2.175   8.001 -1.0004 -2.0303 -1.9119
 3953TP3     H223679   0.663   2.134   7.979 -0.5220 -0.7495 -1.3041
 3954TP3      O23680   0.384   3.695   8.876 -0.5831  0.7561 -0.0850
 3954TP3     H123681   0.359   3.696   8.784  0.6232  1.9884 -0.4409
 3954TP3     H223682   0.332   3.765   8.916 -1.3171  0.0329  0.2480
 3955TP3      O23683   2.399   5.142   2.088  0.5437  0.1687 -0.8320
 3955TP3     H123684   2.357   5.105   2.011  1.0687  0.4397 -1.2505
 3955TP3     H223685   2.428   5.229   2.061 -1.6577  1.4045  0.4530
 3956TP3      O23686   4.497   2.696   9.284 -0.6009 -0.7395 -0.0097
 3956TP3     H123687   4.429   2.722   9.222 -1.2859 -0.9114  0.6527
 3956TP3     H223688   4.533   2.779   9.316 -2.2658 -0.5329  1.5361
 3957TP3      O23689   3.606   1.254   7.832 -0.0466 -0.2369 -0.4541
 3957TP3     H123690   3.613   1.349   7.833 -0.2319 -0.2198  0.7273
 3957TP3     H223691   3.517   1.237   7.864  0.8207 -0.8360  1.8734
 3958TP3      O23692   1.520   2.063   2.744 -0.3280  0.2970  0.0359
 3958TP3     H123693   1.576   2.069   2.821 -0.4754  0.3842  0.1379
 3958TP3     H223694   1.559   2.124   2.681 -0.7278  0.9197  0.3758
 3959TP3      O23695   0.968   3.025  10.394  0.4066 -0.0587 -0.2123
 3959TP3     H123696   1.004   3.027  10.482  0.1042  0.5393 -0.1051
 3959TP3     H223697   0.874   3.028  10.405  0.1897 -2.8938 -0.4403
 3960TP3      O23698   1.654   4.726   9.625  0.4149 -0.0820 -0.5414
 3960TP3     H123699   1.734   4.722   9.677  0.5965  2.0068 -0.5591
 3960TP3     H223700   1.591   4.773   9.680 -0.3903 -0.5593 -1.0256
 3961TP3      O23701   2.787   3.960   2.094 -0.3069 -0.6114 -0.1159
 3961TP3     H123702   2.722   3.891   2.111 -1.1504  0.0602 -0.5071
 3961TP3     H223703   2.816   3.987   2.181  0.4293 -1.8047  0.0318
 3962TP3      O23704   2.151   0.402   9.593 -0.3933  0.0836  0.3665
 3962TP3     H123705   2.202   0.322   9.587  0.0150  0.4324 -1.4773
 3962TP3     H223706   2.197   0.464   9.537 -2.6528  0.4899 -1.1663
 3963TP3      O23707   3.218   0.247   1.935  0.4400 -0.4765  0.1524
 3963TP3     H123708   3.127   0.225   1.954  0.2369 -0.8964 -1.2054
 3963TP3     H223709   3.265   0.226   2.015 -0.6714 -0.0839  0.9452
 3964TP3      O23710   3.999   2.237   7.190 -0.3668 -0.1982 -0.0436
 3964TP3     H123711   3.923   2.217   7.135  0.0675 -0.9325 -0.3978
 3964TP3     H223712   3.981   2.193   7.273  0.3236 -1.6551 -0.6266
 3965TP3      O23713   0.327   1.898   7.228 -0.1698  0.4978  0.5634
 3965TP3     H123714   0.278   1.967   7.184  0.7012  1.0299  0.3840
 3965TP3     H223715   0.262   1.848   7.275 -1.1789 -0.2114 -1.4720
 3966TP3      O23716   2.118   0.066   0.132 -0.3594 -0.2850  0.2543
 3966TP3     H123717   2.182   0.101   0.071 -0.2725 -1.0025 -0.0786
 3966TP3     H223718   2.163   0.064   0.216 -0.3491  0.3455  0.2619
 3967TP3      O23719   2.729   1.497   9.894  0.2866 -0.0947  0.2114
 3967TP3     H123720   2.791   1.569   9.891 -1.5452  1.5287 -1.0441
 3967TP3     H223721   2.698   1.495   9.984  1.2565 -0.1722  0.5574
 3968TP3      O23722   3.555   1.326   9.811 -0.3042 -0.4136 -0.0267
 3968TP3     H123723   3.581   1.263   9.878 -3.2439 -1.0074  0.7337
 3968TP3     H223724   3.487   1.280   9.761  0.5989  0.6367 -2.3664
 3969TP3      O23725   1.321   3.527   8.373  0.5164  0.4433 -0.2075
 3969TP3     H123726   1.333   3.577   8.292  1.3654  2.8505  1.3345
 3969TP3     H223727   1.231   3.544   8.399  0.7251  0.9809  0.1768
 3970TP3      O23728   2.373   0.089   3.392 -0.2983  0.2217  0.6522
 3970TP3     H123729   2.302   0.033   3.424 -0.8519  1.1370  1.0528
 3970TP3     H223730   2.337   0.178   3.395  0.1748  0.5005 -1.0452
 3971TP3      O23731   1.586   2.440   9.491  0.6043  0.0655 -0.4203
 3971TP3     H123732   1.520   2.498   9.528  1.1548  1.4542 -1.5343
 3971TP3     H223733   1.590   2.366   9.551  0.5532  1.6092  1.5704
 3972TP3      O23734   0.848   4.371   7.652 -0.2940 -0.6989  0.3597
 3972TP3     H123735   0.759   4.361   7.619 -0.1171  1.7364 -1.1193
 3972TP3     H223736   0.888   4.437   7.595  2.4961 -1.7050  0.9653
 3973TP3      O23737   0.095   0.919  10.018  0.0040  0.3911  0.1730
 3973TP3     H123738   0.022   0.978  10.037 -0.0396  0.4818 -0.2515
 3973TP3     H223739   0.170   0.978  10.008 -0.0690  0.3966 -0.4045
 3974TP3      O23740   2.484   3.929   0.419 -0.3406  0.0803 -0.5723
 3974TP3     H123741   2.489   4.003   0.480  0.4270  0.8392 -1.5279
 3974TP3     H223742   2.547   3.866   0.453  0.2584  0.6022 -0.7052
 3975TP3      O23743   0.185   3.951   9.620  0.1427 -0.0082  0.0463
 3975TP3     H123744   0.119   4.020   9.615 -0.4307 -0.5930 -1.0881
 3975TP3     H223745   0.208   3.946   9.712 -0.8238  0.7595  0.3468
 3976TP3      O23746   2.037   1.091   1.947  0.1047 -0.4367 -0.2919
 3976TP3     H123747   2.061   1.173   1.989 -0.1968 -0.2919 -0.3938
 3976TP3     H223748   2.061   1.104   1.855  3.4562 -1.8051  0.2673
 3977TP3      O23749   3.882   0.580   7.624  0.1983  0.7995 -0.1164
 3977TP3     H123750   3.883   0.544   7.536 -1.5219 -0.6409  0.4012
 3977TP3     H223751   3.920   0.667   7.614  2.6336 -0.3340 -1.7670
 3978TP3      O23752   2.334   4.890   0.505 -0.2458  0.3011 -0.6272
 3978TP3     H123753   2.385   4.971   0.507 -0.8221  0.6558  0.3291
 3978TP3     H223754   2.243   4.919   0.498 -0.4262 -0.2823 -0.7469
 3979TP3      O23755   1.294   0.228   9.379 -0.6089 -0.0723 -0.3248
 3979TP3     H123756   1.373   0.193   9.339 -1.6967 -1.1676 -1.6213
 3979TP3     H223757   1.248   0.271   9.307 -2.0368 -1.0320 -0.0266
 3980TP3      O23758   0.841   4.520   9.561 -0.5598 -0.6491  1.0885
 3980TP3     H123759   0.895   4.456   9.608  1.6605 -0.8716 -1.5359
 3980TP3     H223760   0.880   4.605   9.582  0.8858 -0.8028 -0.7423
 3981TP3      O23761   2.176   4.003   1.797  0.5001 -0.1780  0.4152
 3981TP3     H123762   2.106   4.057   1.761 -0.7109 -0.7245  1.8358
 3981TP3     H223763   2.130   3.930   1.840  1.9846 -1.0881  0.5377
 3982TP3      O23764   0.410   2.205   7.747  0.4004 -0.6896  0.0669
 3982TP3     H123765   0.331   2.226   7.797 -0.7962  0.1873 -2.0616
 3982TP3     H223766   0.418   2.110   7.752 -0.5844 -0.7470  0.6017
 3983TP3      O23767   2.133   1.049   2.283  0.2354 -0.7537  0.6400
 3983TP3     H123768   2.155   1.140   2.301 -0.4318 -0.7694  1.6156
 3983TP3     H223769   2.214   1.012   2.246  0.5144  0.2137  0.2354
 3984TP3      O23770   0.413   4.983   1.652 -0.3942 -0.2419  0.1250
 3984TP3     H123771   0.409   5.013   1.743  0.5640 -0.7509  0.3524
 3984TP3     H223772   0.497   5.016   1.620 -0.5135 -0.4652 -0.4249
 3985TP3      O23773   2.819   0.087   9.149  0.4498 -0.0198 -0.0121
 3985TP3     H123774   2.804   0.167   9.200 -1.0882  0.2871 -0.8680
 3985TP3     H223775   2.738   0.037   9.160 -0.3851  0.5241 -2.9195
 3986TP3      O23776   3.975   2.347   0.526 -0.3903  0.1405  0.2274
 3986TP3     H123777   4.000   2.256   0.546 -0.0062  0.0917 -0.4792
 3986TP3     H223778   4.055   2.388   0.496 -0.5117  0.7928  0.7716
 3987TP3      O23779   0.180   0.408   2.321 -0.2040 -0.0926 -0.2615
 3987TP3     H123780   0.233   0.486   2.339 -0.2012 -0.2767  0.5362
 3987TP3     H223781   0.232   0.357   2.259 -0.7196  1.0893 -1.7309
 3988TP3      O23782   2.952   3.024   7.466 -0.1496  0.5413 -0.4312
 3988TP3     H123783   2.974   3.018   7.559 -1.5519 -1.0104 -0.1642
 3988TP3     H223784   2.863   3.058   7.464  0.1354  1.3081 -1.2677
 3989TP3      O23785   2.396   2.425   8.437  0.1686 -0.2872  0.3361
 3989TP3     H123786   2.417   2.370   8.512  1.1475  0.9442  1.0060
 3989TP3     H223787   2.481   2.449   8.400 -0.2909 -0.4672 -0.8806
 3990TP3      O23788   0.749   4.072   2.916  0.5702 -0.9007  0.4405
 3990TP3     H123789   0.698   4.099   2.992 -0.6454 -0.3220 -0.5545
 3990TP3     H223790   0.699   4.000   2.878 -0.4994  0.7580 -1.5177
 3991TP3      O23791   1.027   1.622   2.044 -0.1379  0.3148 -0.1926
 3991TP3     H123792   1.086   1.617   1.969  0.8608 -0.5487  0.6283
 3991TP3     H223793   1.075   1.675   2.109 -0.4358 -0.0499  0.3278
 3992TP3      O23794   0.585   0.963   8.372  0.2657 -0.2993  0.3833
 3992TP3     H123795   0.614   0.946   8.282 -0.9972 -0.0844 -0.0768
 3992TP3     H223796   0.666   0.962   8.423  0.8155 -2.4916 -0.4100
 3993TP3      O23797   2.744   4.738   3.089 -0.0911  0.3621 -0.8245
 3993TP3     H123798   2.649   4.740   3.101 -0.3847  0.6829 -2.9307
 3993TP3     H223799   2.776   4.687   3.164 -1.9245  0.0750 -0.1809
 3994TP3      O23800   1.037   4.716   2.174  0.2634  0.3372  0.5624
 3994TP3     H123801   1.002   4.779   2.111 -1.0104 -0.7158  0.1638
 3994TP3     H223802   0.962   4.695   2.230  0.6809 -0.7424  0.7412
 3995TP3      O23803   1.530   0.983   7.647 -0.5609 -0.1606 -0.6636
 3995TP3     H123804   1.613   0.937   7.659 -0.2046  0.5548 -0.2726
 3995TP3     H223805   1.508   0.971   7.555  0.9079  1.1422 -1.2191
 3996TP3      O23806   2.616   0.515   7.314  0.4344 -0.5908  0.1599
 3996TP3     H123807   2.558   0.564   7.372  0.4674  1.2236 -1.2663
 3996TP3     H223808   2.557   0.461   7.262  0.2024 -0.3354  0.1569
 3997TP3      O23809   0.214   4.279   1.403 -0.1428  0.5287 -0.3820
 3997TP3     H123810   0.260   4.363   1.395  4.6647 -1.7957 -0.6548
 3997TP3     H223811   0.234   4.249   1.492 -0.6070 -0.9593 -0.7584
 3998TP3      O23812   4.905   3.772   3.228  0.4542 -0.1007  0.0919
 3998TP3     H123813   4.933   3.709   3.162  0.8546  0.3897 -0.2158
 3998TP3     H223814   4.928   3.731   3.312  2.0335  0.2490 -0.1485
 3999TP3      O23815   0.249   3.622   2.792  0.6765  0.0351  0.0108
 3999TP3     H123816   0.343   3.626   2.777  0.4856 -1.6492 -2.1075
 3999TP3     H223817   0.223   3.536   2.760 -1.4296 -0.0581  1.7129
 4000TP3      O23818   2.935   0.737   2.578  0.2496  0.3697  0.5218
 4000TP3     H123819   2.846   0.741   2.545  0.9957  1.1660 -1.5837
 4000TP3     H223820   2.953   0.826   2.609 -0.0447 -0.0798  2.0709
 4001TP3      O23821   1.812   0.448   8.830 -0.4477 -0.4945 -0.5554
 4001TP3     H123822   1.746   0.511   8.803 -0.1686 -0.2351 -0.6338
 4001TP3     H223823   1.871   0.498   8.887  0.5593 -0.3245 -1.7114
 4002TP3      O23824   3.328   2.898   0.426  0.2174 -0.0397 -0.1007
 4002TP3     H123825   3.331   2.866   0.336 -0.8138 -0.0297 -0.1481
 4002TP3     H223826   3.397   2.965   0.430  0.0076  0.2465 -0.9969
 4003TP3      O23827   2.606   5.224   3.502  0.4726  0.7256 -0.1686
 4003TP3     H123828   2.577   5.142   3.540  0.6217  0.7099 -0.0906
 4003TP3     H223829   2.528   5.258   3.457  0.4850  0.4055 -0.4407
 4004TP3      O23830   0.650   4.655   2.671 -0.0214  0.8473 -0.4086
 4004TP3     H123831   0.612   4.740   2.653 -2.0062  0.0658 -0.1829
 4004TP3     H223832   0.576   4.601   2.701  1.1961 -0.8893 -0.3472
 4005TP3      O23833   2.992   1.022   8.019 -0.1217 -0.2840 -0.7922
 4005TP3     H123834   2.948   0.960   8.077 -0.7792 -0.5269 -1.5317
 4005TP3     H223835   3.060   0.971   7.976  1.1731  0.1837  0.6374
 4006TP3      O23836   1.337   2.675   2.519  0.2176 -0.0511  0.6003
 4006TP3     H123837   1.342   2.715   2.433 -0.7740  1.8648  1.3870
 4006TP3     H223838   1.428   2.652   2.540  0.3057 -2.0103 -1.5437
 4007TP3      O23839   4.931   4.510   1.212 -0.0624  0.4158  0.1779
 4007TP3     H123840   4.978   4.570   1.270  2.1246  0.0004 -1.0603
 4007TP3     H223841   4.844   4.548   1.204  1.0135  3.0433  0.0401
 4008TP3      O23842   1.005   3.156   1.990  0.1925  0.2928  0.0442
 4008TP3     H123843   0.913   3.180   1.981  0.3185  0.8190  0.0912
 4008TP3     H223844   1.022   3.159   2.085  0.4713  1.0774 -0.0156
 4009TP3      O23845   0.007   1.836   1.478  0.3804 -0.2336 -0.5579
 4009TP3     H123846   0.034   1.866   1.391 -0.4778  0.2221 -0.6832
 4009TP3     H223847   0.085   1.847   1.533  0.2636  1.7727 -0.7119
 4010TP3      O23848   3.626   1.456   0.396  0.9513  0.1259 -0.5430
 4010TP3     H123849   3.599   1.466   0.487 -0.0871  1.1735 -0.9380
 4010TP3     H223850   3.634   1.362   0.384 -1.5319 -0.2219 -0.0598
 4011TP3      O23851   0.792   0.067   1.753 -0.0933  0.2052 -0.6805
 4011TP3     H123852   0.751   0.153   1.742 -2.5153 -0.9165 -0.9356
 4011TP3     H223853   0.868   0.084   1.809 -1.4922  2.2431  0.7259
 4012TP3      O23854   4.232   2.526   2.294  0.1829  0.2018 -0.0033
 4012TP3     H123855   4.236   2.538   2.199  0.4978 -1.0345 -0.1659
 4012TP3     H223856   4.138   2.530   2.314  0.1754  1.5895 -0.1804
 4013TP3      O23857   2.556   2.168   9.929 -0.0394 -0.2666 -0.5783
 4013TP3     H123858   2.638   2.173   9.978  0.6734  1.2116 -1.8235
 4013TP3     H223859   2.494   2.220   9.980  0.5497  0.8102 -0.9184
 4014TP3      O23860   5.173   4.157   9.097 -0.4833 -0.6025 -0.2907
 4014TP3     H123861   5.134   4.200   9.173  2.2262  0.2141  0.7188
 4014TP3     H223862   5.195   4.228   9.038  1.0742 -0.8505 -0.0381
 4015TP3      O23863   2.842   3.648   2.296  0.4794 -0.9481 -0.8485
 4015TP3     H123864   2.856   3.735   2.333  0.2147 -1.9635  1.8995
 4015TP3     H223865   2.762   3.656   2.245 -0.1861  0.1751  0.3262
 4016TP3      O23866   3.836   3.314   7.676  0.2357  0.0718 -0.1257
 4016TP3     H123867   3.850   3.408   7.665 -0.0549 -0.0429 -1.8078
 4016TP3     H223868   3.813   3.304   7.768 -0.7152  1.7943 -0.1260
 4017TP3      O23869   1.762   2.890   3.074 -0.0385  0.4654  0.2494
 4017TP3     H123870   1.785   2.853   2.988  0.6215  2.4396 -0.4753
 4017TP3     H223871   1.839   2.939   3.101 -0.7192  0.9494  1.3809
 4018TP3      O23872   0.019   2.894   3.353  0.7003 -0.0137 -0.1448
 4018TP3     H123873  -0.043   2.875   3.282  1.1241 -0.8160 -0.3170
 4018TP3     H223874   0.087   2.946   3.311  1.1745 -0.8508 -0.4579
 4019TP3      O23875   1.423   0.997   1.676  0.1822 -0.0980 -0.2675
 4019TP3     H123876   1.387   0.909   1.662  0.4896  0.0691 -2.3704
 4019TP3     H223877   1.470   0.990   1.759 -2.7065 -0.9355  1.4510
 4020TP3      O23878   3.830   4.069   0.353  0.3877 -0.0636 -0.4044
 4020TP3     H123879   3.809   3.975   0.356  2.9895 -0.6982  1.2502
 4020TP3     H223880   3.791   4.105   0.432  2.0461 -0.4612  0.6416
 4021TP3      O23881   2.318   1.459   1.503  0.3783  0.1807 -0.4809
 4021TP3     H123882   2.406   1.423   1.487  1.1862  2.4200 -1.5766
 4021TP3     H223883   2.325   1.499   1.590 -0.1226 -1.0813  0.1693
 4022TP3      O23884   0.107   2.265   1.963 -0.7618  0.3844 -0.0047
 4022TP3     H123885   0.097   2.187   1.909 -2.6756  1.6235 -1.6256
 4022TP3     H223886   0.033   2.263   2.023 -1.2927  1.2814 -0.5926
 4023TP3      O23887   3.052   1.999   2.402  0.4511 -0.3742  0.6646
 4023TP3     H123888   3.029   1.969   2.314 -0.2558 -0.0587  0.7370
 4023TP3     H223889   3.142   1.968   2.415  0.2251 -1.2508  0.2044
 4024TP3      O23890   4.117   2.919   1.281 -0.0387 -0.4383  0.3039
 4024TP3     H123891   4.156   2.895   1.365  1.8909  0.6210 -0.2330
 4024TP3     H223892   4.191   2.922   1.220 -1.1872  0.2408 -1.1091
 4025TP3      O23893   2.624   3.492   9.387 -0.1225  0.5597  0.0915
 4025TP3     H123894   2.576   3.528   9.314 -1.1401  0.4797  0.7052
 4025TP3     H223895   2.709   3.467   9.350 -0.0667  1.8637 -0.7312
 4026TP3      O23896   0.872   3.320   2.817 -0.2798  0.1201 -0.2910
 4026TP3     H123897   0.820   3.348   2.892  1.4526  0.3809  0.8947
 4026TP3     H223898   0.955   3.291   2.856  1.7904  2.8521 -2.2742
 4027TP3      O23899   2.574   0.750   2.987 -0.6338  0.6224  0.6219
 4027TP3     H123900   2.589   0.696   2.909 -3.3727  0.4219  0.1621
 4027TP3     H223901   2.625   0.706   3.055 -0.2675 -0.7116 -0.4486
 4028TP3      O23902   0.291   2.497   3.293 -0.2303 -0.0804  0.1687
 4028TP3     H123903   0.380   2.531   3.295  0.2395 -1.1667 -0.7665
 4028TP3     H223904   0.238   2.565   3.333  0.9726  0.7402  0.4136
 4029TP3      O23905   1.229   1.974  10.110 -0.3462  0.3033  0.0473
 4029TP3     H123906   1.160   1.963  10.044  1.5010 -1.0431 -1.7967
 4029TP3     H223907   1.295   1.909  10.085  0.5621 -0.0863  3.1421
 4030TP3      O23908   1.300   1.164   2.132 -0.4761 -0.2895  0.1267
 4030TP3     H123909   1.328   1.222   2.061  1.3040 -1.7140 -0.4003
 4030TP3     H223910   1.307   1.218   2.211 -1.6102  1.0414 -0.6434
 4031TP3      O23911   2.386   1.406   0.130 -0.0322  0.0989  0.8693
 4031TP3     H123912   2.292   1.406   0.114 -0.5497  2.2781  3.3135
 4031TP3     H223913   2.397   1.352   0.208  0.9584 -1.2245 -0.1445
 4032TP3      O23914   3.051   1.665  10.025  0.4077 -0.1394  0.0091
 4032TP3     H123915   3.076   1.577  10.054 -0.6668 -0.6130 -0.4520
 4032TP3     H223916   3.128   1.698   9.979  0.4539 -1.2782 -0.7729
 4033TP3      O23917   4.118   0.904   1.835  0.2886 -0.3679  0.3414
 4033TP3     H123918   4.115   0.934   1.744 -1.6223 -1.2034  0.0723
 4033TP3     H223919   4.139   0.811   1.828  1.1429 -0.2269  0.8493
 4034TP3      O23920   0.984   4.313   1.135 -0.3998 -0.0633 -0.1346
 4034TP3     H123921   1.027   4.252   1.075  0.2361  0.9839 -0.7621
 4034TP3     H223922   0.945   4.256   1.201 -0.5612 -1.2147 -1.1664
 4035TP3      O23923   1.037   2.645   2.000  0.2018 -0.9061 -0.2741
 4035TP3     H123924   1.104   2.623   1.935  1.3398 -1.4043  1.0117
 4035TP3     H223925   1.025   2.564   2.050  0.1108 -0.2479  0.7905
 4036TP3      O23926   0.570   4.546   8.624  0.2662 -0.2965  0.1880
 4036TP3     H123927   0.660   4.569   8.644  0.9253 -3.4531  1.4664
 4036TP3     H223928   0.531   4.527   8.709 -0.8612 -1.3635 -0.5390
 4037TP3      O23929   4.328   3.655   0.219 -0.2549  0.4434  0.3446
 4037TP3     H123930   4.354   3.627   0.307 -0.7797 -0.8447  0.1222
 4037TP3     H223931   4.237   3.682   0.228 -0.3511  0.1793  0.1759
 4038TP3      O23932   2.031   3.331   8.844  0.0468 -0.4661  0.0749
 4038TP3     H123933   1.969   3.289   8.904  0.1456 -2.2282 -0.9968
 4038TP3     H223934   1.983   3.342   8.763 -0.4322  2.8995  0.6741
 4039TP3      O23935   1.878   4.477   1.496  0.6400 -0.3723  0.1709
 4039TP3     H123936   1.818   4.436   1.434 -0.8171  0.1509  1.1981
 4039TP3     H223937   1.930   4.537   1.442 -1.2697  0.8057 -0.4396
 4040TP3      O23938   0.502   1.510   0.017 -0.3045 -0.1085 -0.3566
 4040TP3     H123939   0.495   1.471   0.103  0.6319 -1.2917 -0.7893
 4040TP3     H223940   0.411   1.525  -0.011 -0.7228 -2.1804 -0.2495
 4041TP3      O23941   0.585   3.844   6.728 -0.4981  0.2970  0.0714
 4041TP3     H123942   0.585   3.786   6.652 -0.1456 -0.4787  0.6482
 4041TP3     H223943   0.677   3.863   6.743 -0.5679  0.4647  0.2832
 4042TP3      O23944   3.362   0.764   2.573 -0.1507 -0.1781 -0.0876
 4042TP3     H123945   3.285   0.734   2.525  0.1167  1.6065 -1.7450
 4042TP3     H223946   3.434   0.753   2.511  0.2269  2.0823 -0.1199
 4043TP3      O23947   1.427   5.074   0.544 -0.4897  0.2969  0.1270
 4043TP3     H123948   1.388   4.999   0.499  0.6042  0.8012 -1.7873
 4043TP3     H223949   1.500   5.100   0.488  0.7347  1.2304  2.0474
 4044TP3      O23950   3.833   3.950   7.834 -0.3579 -0.1696 -0.4376
 4044TP3     H123951   3.861   3.932   7.744  2.3428 -0.7023  0.4284
 4044TP3     H223952   3.835   4.045   7.841  0.8371 -0.1624 -0.5801
 4045TP3      O23953   3.598   4.499   7.926 -0.5796 -0.2985 -0.9253
 4045TP3     H123954   3.564   4.582   7.894  0.1745  0.0827 -0.7799
 4045TP3     H223955   3.544   4.432   7.885 -1.5982  0.2828 -0.5640
 4046TP3      O23956   3.604   1.611   8.418 -0.1208  0.1831  0.0326
 4046TP3     H123957   3.623   1.519   8.436 -1.0815 -0.7222 -2.9292
 4046TP3     H223958   3.508   1.615   8.414 -0.0693  1.2059 -0.3389
 4047TP3      O23959   3.047   2.978   0.207  0.4273 -0.0642 -0.0997
 4047TP3     H123960   2.990   2.969   0.131  0.5024 -0.0971 -0.1527
 4047TP3     H223961   3.103   2.900   0.204 -1.0408 -1.2154  1.2480
 4048TP3      O23962   1.115   3.978   1.453 -0.1342  0.3550  0.0960
 4048TP3     H123963   1.160   3.953   1.533  0.9311 -0.2287 -0.6650
 4048TP3     H223964   1.030   4.011   1.483  1.1002  2.3398  1.6446
 4049TP3      O23965   2.716   2.680   7.834 -0.0071 -0.6443 -0.2664
 4049TP3     H123966   2.670   2.763   7.823 -2.3119 -1.8284 -0.1682
 4049TP3     H223967   2.714   2.664   7.929  1.6623 -0.2006 -0.1229
 4050TP3      O23968   1.757   2.785   8.270 -0.0337 -0.6777  0.3411
 4050TP3     H123969   1.753   2.710   8.329 -4.1417 -1.3545 -0.5289
 4050TP3     H223970   1.743   2.749   8.183 -1.2760  0.9925 -0.2004
 4051TP3      O23971   2.805   1.190   2.243  0.2925 -0.2847 -0.5450
 4051TP3     H123972   2.842   1.234   2.319 -0.6316  2.2832 -1.4660
 4051TP3     H223973   2.869   1.123   2.220  2.1235  0.9857  0.6064
 4052TP3      O23974   4.074   4.127   2.825 -0.0150  0.3995 -0.3224
 4052TP3     H123975   4.047   4.184   2.897  0.8232  0.0493  0.3069
 4052TP3     H223976   4.006   4.136   2.759 -0.7435  0.8411  0.4645
 4053TP3      O23977   2.912   1.568   0.646  0.8081  0.4365  0.2605
 4053TP3     H123978   2.913   1.636   0.713 -0.4858  1.5135 -0.7482
 4053TP3     H223979   2.971   1.600   0.577  1.2546 -0.1261  0.3711
 4054TP3      O23980   3.467   3.787   0.313 -0.0981 -0.2267 -0.4392
 4054TP3     H123981   3.484   3.785   0.407  0.9170  0.1264 -0.6004
 4054TP3     H223982   3.387   3.838   0.303  1.0182  1.6895  0.0752
 4055TP3      O23983   3.082   2.063   7.060 -0.6725 -0.3071 -0.2175
 4055TP3     H123984   2.997   2.102   7.078 -0.9967 -0.6984 -0.8705
 4055TP3     H223985   3.132   2.077   7.140 -1.1006  0.5855 -0.0895
 4056TP3      O23986   3.454   4.796   3.328  0.0547  0.5196 -0.0969
 4056TP3     H123987   3.441   4.707   3.296  3.7171 -0.3213  0.3500
 4056TP3     H223988   3.547   4.800   3.351 -0.3302  3.9797  1.4485
 4057TP3      O23989   3.055   0.541   1.492  0.1538 -0.4491  0.2292
 4057TP3     H123990   2.999   0.593   1.434  0.4331 -1.7425 -1.2599
 4057TP3     H223991   2.994   0.490   1.545 -0.0917 -0.4093 -0.0148
 4058TP3      O23992   1.877   1.514   2.758 -0.3024  0.3504  0.7630
 4058TP3     H123993   1.838   1.598   2.734  0.1650  0.0049 -1.4339
 4058TP3     H223994   1.812   1.449   2.730  0.5603 -0.0985 -0.2820
 4059TP3      O23995   2.157   2.909   1.569  0.0708 -0.5946  0.1168
 4059TP3     H123996   2.122   2.904   1.658  2.4866  1.9064  1.3955
 4059TP3     H223997   2.155   3.003   1.548  0.8611 -0.9772 -1.8774
 4060TP3      O23998   3.213   0.075   1.052 -0.1818  0.6531 -0.2220
 4060TP3     H123999   3.159   0.154   1.056 -0.3009  0.5361  1.6562
 4060TP3     H224000   3.290   0.100   1.001 -1.2060  1.3337 -1.4603
 4061TP3      O24001   2.687   2.422   8.385 -0.3350 -0.0551  0.6171
 4061TP3     H124002   2.734   2.505   8.389  0.1416 -0.2790 -0.0588
 4061TP3     H224003   2.747   2.363   8.339 -0.2946 -1.0246  1.8625
 4062TP3      O24004   1.215   4.456   8.701 -0.3098 -0.1339  0.1439
 4062TP3     H124005   1.131   4.427   8.736 -0.7418  0.3503 -0.4765
 4062TP3     H224006   1.280   4.422   8.763 -0.9947 -0.0723  0.8983
 4063TP3      O24007   0.954   3.625   1.781 -0.1698  0.1342  0.1129
 4063TP3     H124008   0.978   3.535   1.759  2.2289  0.5295  0.8939
 4063TP3     H224009   0.905   3.656   1.705  0.5557 -1.2334 -0.9515
 4064TP3      O24010   1.806   0.746   1.432  0.2344 -0.2090  0.0123
 4064TP3     H124011   1.774   0.802   1.502 -0.5823 -1.0023  0.2963
 4064TP3     H224012   1.884   0.704   1.468  1.0266  0.9554 -0.3113
 4065TP3      O24013   2.589   5.017   0.809  0.9422  0.4822  0.1117
 4065TP3     H124014   2.651   5.048   0.875 -0.0027  1.2353  0.6736
 4065TP3     H224015   2.529   4.961   0.858  0.7605  0.3334 -0.2813
 4066TP3      O24016   3.671   0.750   8.816  0.2067 -0.7135 -0.1839
 4066TP3     H124017   3.594   0.715   8.862  1.4776 -2.5231  0.6912
 4066TP3     H224018   3.650   0.740   8.723 -1.8738  1.8027 -0.1121
 4067TP3      O24019   3.413   4.923   0.449 -0.0308 -0.1893  0.1622
 4067TP3     H124020   3.494   4.873   0.450  0.3423  0.3555  2.0765
 4067TP3     H224021   3.350   4.868   0.495 -0.8517 -0.7001 -1.4991
 4068TP3      O24022   3.164   2.298   9.854  0.0233 -0.0368  0.2732
 4068TP3     H124023   3.200   2.375   9.899 -0.4587  0.9512 -0.9910
 4068TP3     H224024   3.236   2.267   9.799 -0.3516  0.6140 -0.5923
 4069TP3      O24025   3.623   3.881   0.611 -0.0480  0.1010  0.5452
 4069TP3     H124026   3.625   3.975   0.626  1.7827 -0.0849  1.7369
 4069TP3     H224027   3.563   3.847   0.677  1.1239  0.2208  1.7118
 4070TP3      O24028   2.438   5.125   0.614 -0.2539  0.8079 -0.0167
 4070TP3     H124029   2.462   5.093   0.700 -1.6945  1.7262  0.7781
 4070TP3     H224030   2.457   5.219   0.617 -1.5366  1.0973 -0.2048
 4071TP3      O24031   1.835   3.690   6.779 -0.6276  0.0860  0.2861
 4071TP3     H124032   1.764   3.689   6.715 -1.5629 -0.0026  1.2881
 4071TP3     H224033   1.915   3.679   6.727 -1.4556 -1.5849 -0.7152
 4072TP3      O24034   3.085   4.696   1.077  0.1496  0.1729  0.3115
 4072TP3     H124035   3.039   4.725   0.998 -0.8940  2.0534  1.5267
 4072TP3     H224036   3.018   4.650   1.128  0.7061 -0.6731  0.2946
 4073TP3      O24037   4.696   4.842   9.309  0.6155  0.2471 -0.0801
 4073TP3     H124038   4.752   4.845   9.231  2.4453  1.3688  1.2023
 4073TP3     H224039   4.672   4.933   9.326  0.9082  0.1204  1.1073
 4074TP3      O24040   1.375   3.262   7.132 -0.0596  0.1723  0.1291
 4074TP3     H124041   1.427   3.230   7.206  0.0858  0.7206  0.2657
 4074TP3     H224042   1.350   3.351   7.156  0.5698  0.6074 -0.7751
 4075TP3      O24043   4.660   1.058   2.512  0.0548  0.0402  0.1119
 4075TP3     H124044   4.657   1.029   2.603  0.8677  1.5745  0.6720
 4075TP3     H224045   4.656   1.153   2.517  0.4322  0.1717 -1.4425
 4076TP3      O24046   4.726   2.327   9.243  0.0547  0.0241 -0.0271
 4076TP3     H124047   4.720   2.340   9.148 -0.0345 -1.3780 -0.2452
 4076TP3     H224048   4.768   2.406   9.276 -2.0191  1.6040 -0.9220
 4077TP3      O24049   3.625   4.695   2.894  0.3193 -0.1847  0.2469
 4077TP3     H124050   3.669   4.621   2.853 -0.6768 -0.7949  0.2411
 4077TP3     H224051   3.694   4.742   2.941  1.0855 -0.7033 -0.3565
 4078TP3      O24052   0.332   4.110   1.200 -0.2707 -0.1478  0.3300
 4078TP3     H124053   0.317   4.153   1.116  1.6755  0.4022  0.2215
 4078TP3     H224054   0.347   4.182   1.262 -3.5105 -0.4268  1.6594
 4079TP3      O24055   4.602   2.100   9.339 -0.0687 -0.4162 -0.0618
 4079TP3     H124056   4.509   2.099   9.361 -0.2453  3.3032  0.1170
 4079TP3     H224057   4.614   2.184   9.294  3.3099 -0.4931  0.4548
 4080TP3      O24058   3.119   3.691   0.034  0.2969  0.1693  0.1843
 4080TP3     H124059   3.032   3.666   0.002  0.3570 -1.8728  1.3816
 4080TP3     H224060   3.125   3.785   0.017 -1.2390 -0.0331 -1.9465
 4081TP3      O24061   0.309   2.612   2.653  0.1435  0.0391 -0.0390
 4081TP3     H124062   0.323   2.685   2.593  1.7305  0.0767  0.3241
 4081TP3     H224063   0.231   2.636   2.703 -1.3910 -0.1123 -2.2167
 4082TP3      O24064   0.543   2.193   2.558 -0.2466 -0.2784  0.0399
 4082TP3     H124065   0.549   2.284   2.528 -0.9622 -0.5413 -0.9317
 4082TP3     H224066   0.508   2.200   2.647  1.4779  0.4852  0.7044
 4083TP3      O24067   3.639   3.499   2.677 -0.6593 -0.5272 -0.1370
 4083TP3     H124068   3.667   3.528   2.764 -1.5137  1.0599 -0.3504
 4083TP3     H224069   3.543   3.496   2.683 -0.9272  1.9007 -1.6263
 4084TP3      O24070   2.811   2.679   9.840 -0.2574  0.0006 -0.3839
 4084TP3     H124071   2.730   2.636   9.815 -0.1002  0.1535 -1.1802
 4084TP3     H224072   2.869   2.667   9.766  0.6749 -0.6502  0.4324
 4085TP3      O24073   1.498   0.410   9.796 -0.2021  0.2822  0.6661
 4085TP3     H124074   1.549   0.492   9.797  1.1679 -0.5301  1.7902
 4085TP3     H224075   1.514   0.372   9.882 -1.2378 -0.9326  0.3437
 4086TP3      O24076   2.387   4.697  10.029 -0.0807 -0.6194 -0.1055
 4086TP3     H124077   2.339   4.641  10.089  0.7174 -0.5785  0.5952
 4086TP3     H224078   2.416   4.771  10.083 -1.6425  0.8293 -1.1330
 4087TP3      O24079   0.432   5.199   9.562  0.0160 -0.1886 -0.1126
 4087TP3     H124080   0.429   5.246   9.479  0.4288  1.5331  0.8187
 4087TP3     H224081   0.525   5.196   9.585 -0.2872  2.3709  1.8888
 4088TP3      O24082   2.440   1.357   8.087  0.4250  0.0415  0.6272
 4088TP3     H124083   2.495   1.298   8.138 -2.2217 -1.9782  1.3897
 4088TP3     H224084   2.390   1.406   8.151  0.4865  1.0137 -0.0415
 4089TP3      O24085   0.173   4.807  10.121 -0.2691  0.3966  0.1120
 4089TP3     H124086   0.227   4.793  10.043 -2.5870 -0.4875 -1.4427
 4089TP3     H224087   0.084   4.819  10.087 -1.3650  0.0911  2.6219
 4090TP3      O24088   4.020   4.942  10.243  0.4833 -0.5052 -0.4464
 4090TP3     H124089   4.074   4.910  10.314  1.7847  1.0924 -0.6503
 4090TP3     H224090   4.052   4.896  10.165  0.2621 -0.9331 -0.2891
 4091TP3      O24091   3.218   1.601   3.789  0.1421  0.0936 -0.0073
 4091TP3     H124092   3.181   1.521   3.752 -1.0344  0.3411  0.5689
 4091TP3     H224093   3.224   1.662   3.715 -1.6064  0.3794  0.0278
 4092TP3      O24094   0.683   3.481   7.906  0.1514 -0.1624  0.1390
 4092TP3     H124095   0.624   3.532   7.961 -0.5607 -0.8188 -0.0014
 4092TP3     H224096   0.666   3.512   7.817 -0.5231 -0.8516  0.0144
 4093TP3      O24097   0.425   1.503   1.509  0.2463  0.2626 -0.2716
 4093TP3     H124098   0.383   1.463   1.586  0.7012  0.7284  0.2286
 4093TP3     H224099   0.458   1.428   1.459 -0.4393 -0.0694 -0.2519
 4094TP3      O24100   3.604   4.231   1.105  0.4510  0.1883  0.2148
 4094TP3     H124101   3.573   4.308   1.057 -2.2588 -1.3054 -0.6399
 4094TP3     H224102   3.535   4.213   1.168  1.4589 -1.0463  1.0035
 4095TP3      O24103   0.630   0.630   0.838  0.0562 -0.1520  0.1046
 4095TP3     H124104   0.707   0.585   0.872 -0.1141 -0.9374 -0.5148
 4095TP3     H224105   0.646   0.636   0.744  0.2369  1.4232  0.2083
 4096TP3      O24106   3.793   2.198   1.020 -0.4105  0.1668 -0.5157
 4096TP3     H124107   3.796   2.119   1.074 -0.3852  0.2372 -0.4135
 4096TP3     H224108   3.703   2.203   0.989 -0.0369 -0.8059 -1.8720
 4097TP3      O24109   0.268   4.711   7.932 -0.2641  0.5223  0.2434
 4097TP3     H124110   0.201   4.741   7.871  0.4287  0.4617 -0.5736
 4097TP3     H224111   0.244   4.749   8.016 -1.3867  0.3884 -0.0081
 4098TP3      O24112   3.283   0.778   7.284 -0.5098  0.4766 -0.1299
 4098TP3     H124113   3.318   0.736   7.205 -0.7378 -0.1177  0.0815
 4098TP3     H224114   3.234   0.709   7.328  2.6538 -0.3373  2.5038
 4099TP3      O24115   1.125   1.875   7.468 -0.9726 -0.0222  0.0095
 4099TP3     H124116   1.039   1.856   7.431 -0.9069  0.0064 -0.1596
 4099TP3     H224117   1.180   1.802   7.439 -1.6673 -1.8269  2.7640
 4100TP3      O24118   0.220   4.777   3.201  0.4900 -0.0612 -0.0961
 4100TP3     H124119   0.153   4.722   3.241 -0.6138  0.6183 -0.9569
 4100TP3     H224120   0.268   4.814   3.275 -0.5504  0.0124  0.5554
 4101TP3      O24121   3.442   4.139   8.198  0.0546  0.2017 -0.6955
 4101TP3     H124122   3.522   4.153   8.247 -0.1020 -0.7908 -0.1463
 4101TP3     H224123   3.467   4.155   8.107  1.0665 -0.8139 -0.6205
 4102TP3      O24124   2.839   4.985   2.580  0.0903 -0.3442  0.1866
 4102TP3     H124125   2.805   4.901   2.611 -2.4726  0.5415  0.0271
 4102TP3     H224126   2.805   5.049   2.643 -0.6432  0.8954 -1.4011
 4103TP3      O24127   0.971   2.911   1.573 -0.3688  0.0398 -0.4149
 4103TP3     H124128   0.994   2.871   1.490 -0.1020  1.0313 -0.8395
 4103TP3     H224129   0.961   3.004   1.553  1.6814  0.6469  1.0117
 4104TP3      O24130   0.569   1.388   2.505  0.0571  0.0634  0.4426
 4104TP3     H124131   0.575   1.477   2.539 -1.6341  0.0262  0.9365
 4104TP3     H224132   0.615   1.334   2.569  1.7981  0.6503 -0.2689
 4105TP3      O24133   1.676   0.677   3.630 -0.3589 -0.4416  0.3535
 4105TP3     H124134   1.742   0.641   3.571 -1.5672 -1.5957 -0.3333
 4105TP3     H224135   1.693   0.635   3.714  0.1323 -0.2820  0.3375
 4106TP3      O24136   5.221   4.376   8.884 -0.3307  0.1777  0.5302
 4106TP3     H124137   5.263   4.307   8.832 -0.2779  0.1260  0.6418
 4106TP3     H224138   5.282   4.449   8.881 -0.5270  0.3312  0.1522
 4107TP3      O24139   4.449   5.203   3.081  0.0619 -0.1786  0.5074
 4107TP3     H124140   4.475   5.173   2.994  1.6203 -0.4634  1.0265
 4107TP3     H224141   4.527   5.188   3.135 -0.8563  0.0130  1.9454
 4108TP3      O24142   0.385   2.486   1.460 -0.7223 -0.3210  0.5236
 4108TP3     H124143   0.308   2.467   1.406 -0.4770  0.1162  0.0123
 4108TP3     H224144   0.352   2.484   1.550 -0.9209 -2.1750  0.4620
 4109TP3      O24145   0.594   4.291   1.410  0.6782  0.1017 -0.4619
 4109TP3     H124146   0.611   4.379   1.378  2.8166  0.3428  1.1390
 4109TP3     H224147   0.659   4.237   1.365  1.2958 -0.1592  0.7283
 4110TP3      O24148   0.678   4.783   0.042 -0.4043 -0.4196 -0.5217
 4110TP3     H124149   0.675   4.849   0.112 -1.0293 -0.3867 -0.5719
 4110TP3     H224150   0.587   4.774   0.014 -0.2893 -1.1203 -0.6927
 4111TP3      O24151   0.449   3.412   2.942 -0.1326  0.1785 -0.3117
 4111TP3     H124152   0.369   3.359   2.936 -0.2853  0.4380 -0.6284
 4111TP3     H224153   0.477   3.403   3.033 -0.0281 -0.6236 -0.4209
 4112TP3      O24154   0.355   3.871   3.613  0.0371  0.0838 -0.5935
 4112TP3     H124155   0.297   3.879   3.689  0.6183  2.1867 -0.3078
 4112TP3     H224156   0.297   3.846   3.541 -0.7251 -0.6999  0.2626
 4113TP3      O24157   3.800   4.698   0.747  0.8877 -0.3149  0.7199
 4113TP3     H124158   3.717   4.741   0.770  1.3156  1.1061 -0.2553
 4113TP3     H224159   3.782   4.605   0.756 -0.8431 -0.0384  0.4329
 4114TP3      O24160   0.871   0.968  10.101 -0.4807  0.2059 -0.0585
 4114TP3     H124161   0.936   1.023  10.145  0.0163 -0.2517 -0.2109
 4114TP3     H224162   0.788   1.014  10.114 -0.4239 -0.1099  1.6711
 4115TP3      O24163   3.172   3.138   0.387 -0.4282  0.4496 -0.4975
 4115TP3     H124164   3.252   3.091   0.409  0.1016  1.2047 -0.7883
 4115TP3     H224165   3.125   3.079   0.328  1.9063  1.6363 -3.8356
 4116TP3      O24166   2.066   0.757   0.346 -0.4773  0.2360 -0.1821
 4116TP3     H124167   2.078   0.773   0.252 -0.0128  1.6705  0.1000
 4116TP3     H224168   2.154   0.766   0.382 -0.8279  0.7873  0.5434
 4117TP3      O24169   3.569   2.686   9.101 -0.0359 -0.6233  0.1980
 4117TP3     H124170   3.602   2.596   9.114 -2.0404 -1.4201  0.1430
 4117TP3     H224171   3.478   2.682   9.129 -0.5677  1.0718 -1.1284
 4118TP3      O24172   0.388   4.621   2.789  0.4630  0.3202  0.0958
 4118TP3     H124173   0.386   4.702   2.840 -1.5943 -1.0127  2.3410
 4118TP3     H224174   0.345   4.556   2.845  0.6831 -1.9949 -2.2156
 4119TP3      O24175   4.417   1.702   3.342 -0.3809 -0.1016  0.0957
 4119TP3     H124176   4.331   1.692   3.382 -0.9484  1.0165 -0.7863
 4119TP3     H224177   4.457   1.774   3.390 -0.1749 -0.2205  0.1043
 4120TP3      O24178   0.025   3.114   2.957  0.7954  0.0076 -0.0412
 4120TP3     H124179  -0.070   3.121   2.966  0.7608 -1.9892  1.8965
 4120TP3     H224180   0.041   3.023   2.932  2.2488 -0.0924  1.1129
 4121TP3      O24181   0.909   0.242   8.764  0.3740  0.8713  0.2226
 4121TP3     H124182   0.992   0.263   8.722  1.8540 -4.5861 -0.4198
 4121TP3     H224183   0.932   0.225   8.855 -0.2190  0.2889  0.2734
 4122TP3      O24184   1.771   3.920   1.118  0.2793 -0.5279  0.0553
 4122TP3     H124185   1.833   3.892   1.185 -0.6791 -0.4925  0.9819
 4122TP3     H224186   1.753   3.841   1.068  0.5350 -0.7001  0.2347
 4123TP3      O24187   4.594   0.251   9.207 -0.8497 -0.3635  0.1780
 4123TP3     H124188   4.563   0.332   9.167 -0.5023  0.0114  0.6591
 4123TP3     H224189   4.662   0.279   9.269  1.5762 -1.2533 -1.8916
 4124TP3      O24190   5.168   4.044   9.909 -0.2680 -0.8236 -0.1119
 4124TP3     H124191   5.110   3.981   9.867 -0.4054 -0.0970 -1.0459
 4124TP3     H224192   5.255   4.006   9.900 -0.4308 -1.2217 -0.0205
 4125TP3      O24193   1.796   5.148   2.695  0.3678 -0.4741 -0.2357
 4125TP3     H124194   1.727   5.173   2.634  0.7659  2.6502  0.4093
 4125TP3     H224195   1.767   5.064   2.731 -2.6197  0.2334 -0.7164
 4126TP3      O24196   2.324   3.705   9.721  0.1538  0.5415 -0.3590
 4126TP3     H124197   2.374   3.650   9.661  0.6864  0.0738  0.4802
 4126TP3     H224198   2.238   3.713   9.681  0.0389 -0.9793 -0.4716
 4127TP3      O24199   3.666   2.781   1.693 -0.1316  0.0295  0.0416
 4127TP3     H124200   3.630   2.736   1.616  0.4196  0.8809 -0.7433
 4127TP3     H224201   3.598   2.774   1.759 -2.3655  2.6363 -1.7501
 4128TP3      O24202   0.229   4.741   0.959  0.6196 -0.3991 -0.0014
 4128TP3     H124203   0.230   4.645   0.951  2.2178 -0.5627  1.5699
 4128TP3     H224204   0.321   4.766   0.967  0.2943  1.3957 -1.3555
 4129TP3      O24205   1.422   4.866   0.983  0.2084  0.1441  0.4878
 4129TP3     H124206   1.426   4.822   0.898 -3.6431  2.3927 -1.0925
 4129TP3     H224207   1.507   4.909   0.991  0.5244  0.3560 -2.5934
 4130TP3      O24208   0.950   5.014   1.823 -0.3051 -0.9279  0.0584
 4130TP3     H124209   1.009   4.944   1.795  1.7079  0.3190  0.9697
 4130TP3     H224210   0.977   5.090   1.772 -0.7929 -0.1965  0.8568
 4131TP3      O24211   2.486   1.089  10.348 -0.4219  0.4340  0.4769
 4131TP3     H124212   2.510   1.095  10.256 -0.0971 -1.1306  0.4391
 4131TP3     H224213   2.392   1.108  10.350 -0.4390  0.4428 -0.1641
 4132TP3      O24214   4.531   3.790   9.364  0.1485 -0.1273 -0.5362
 4132TP3     H124215   4.609   3.807   9.312  1.4443 -3.4884  0.0497
 4132TP3     H224216   4.557   3.805   9.455  0.0120 -0.8524 -0.3680
 4133TP3      O24217   2.216   3.169   9.013  0.3174 -0.3555 -0.1554
 4133TP3     H124218   2.271   3.135   8.943  1.0483  0.1133  0.1782
 4133TP3     H224219   2.150   3.222   8.969 -0.5150 -1.7493 -0.6398
 4134TP3      O24220   2.917   5.090   8.279  0.3654 -0.1753 -0.2479
 4134TP3     H124221   2.852   5.115   8.345  0.7275 -1.3034  0.5788
 4134TP3     H224222   2.905   5.152   8.208 -0.5434  0.6196  0.5734
 4135TP3      O24223   0.337   2.698   0.265  0.0344 -0.2148 -0.1691
 4135TP3     H124224   0.338   2.610   0.228 -1.3073  0.4624 -1.9421
 4135TP3     H224225   0.247   2.712   0.292  0.4048  0.3424  0.8043
 4136TP3      O24226   5.174   2.679  10.071 -0.0312  0.3284 -0.0956
 4136TP3     H124227   5.086   2.691  10.036 -0.9612 -0.7007  1.7668
 4136TP3     H224228   5.231   2.681   9.993 -1.7755  0.1004 -1.4371
 4137TP3      O24229   5.114   2.326   2.472 -0.6544  0.5050 -0.4094
 4137TP3     H124230   5.181   2.393   2.481 -0.6091  0.3290  0.8056
 4137TP3     H224231   5.034   2.373   2.448 -0.5969  0.9812  0.3223
 4138TP3      O24232   3.038   3.316   2.369  0.7559 -0.2345  0.0769
 4138TP3     H124233   3.054   3.234   2.322  0.8875 -0.2197  0.0957
 4138TP3     H224234   2.962   3.297   2.425  2.3093 -1.1592  1.9891
 4139TP3      O24235   1.689   2.002   2.082 -0.8700  0.4155  0.2156
 4139TP3     H124236   1.606   2.017   2.128 -0.3248  0.5132  1.1828
 4139TP3     H224237   1.662   1.979   1.993 -1.9109  1.2744  0.2819
 4140TP3      O24238   2.014   3.881   8.862  0.9739 -0.0717  0.4316
 4140TP3     H124239   2.091   3.826   8.873 -0.0279 -1.4711  0.6841
 4140TP3     H224240   1.963   3.837   8.795  0.2138  0.6314  0.5383
 4141TP3      O24241   0.389   4.449   9.275  0.1726 -0.3544 -0.5009
 4141TP3     H124242   0.455   4.487   9.217  1.8146 -1.0885  0.8144
 4141TP3     H224243   0.412   4.356   9.280  1.2756 -0.0286  2.7434
 4142TP3      O24244   4.998   3.462   8.261 -0.0165 -0.2903  0.3952
 4142TP3     H124245   5.028   3.408   8.188 -1.7105 -0.0445 -0.5459
 4142TP3     H224246   4.920   3.506   8.228  2.0448  4.0117  0.5443
 4143TP3      O24247   0.982   4.764  10.107  0.3864 -0.5215 -0.3214
 4143TP3     H124248   0.958   4.751  10.199 -2.4812 -0.7428 -1.0137
 4143TP3     H224249   0.899   4.770  10.061  1.7373 -0.1990 -2.9153
 4144TP3      O24250   1.847   2.064   2.586  0.1982  0.2452 -0.0218
 4144TP3     H124251   1.926   2.010   2.589  0.4784  0.6893  0.9853
 4144TP3     H224252   1.848   2.102   2.498  0.6408 -0.4247 -0.3150
 4145TP3      O24253   3.702   2.211   9.563  0.7011  0.1584  0.2839
 4145TP3     H124254   3.724   2.271   9.634  0.1120 -0.5856  1.1211
 4145TP3     H224255   3.622   2.248   9.525  0.0270 -0.3576  1.1519
 4146TP3      O24256   4.847   1.327   0.116 -1.0288  0.5213 -0.0957
 4146TP3     H124257   4.939   1.355   0.119 -0.0693 -2.1883 -1.0989
 4146TP3     H224258   4.811   1.350   0.201  0.6823  1.3363  0.4375
 4147TP3      O24259   4.716   1.883   7.532  0.2181 -0.3749 -0.4008
 4147TP3     H124260   4.739   1.791   7.541  2.8958  0.1773 -0.7838
 4147TP3     H224261   4.702   1.896   7.438  2.7475  0.1337 -0.7752
 4148TP3      O24262   4.761   2.868   6.965  0.1944 -0.3459 -0.2205
 4148TP3     H124263   4.710   2.852   6.886 -0.4487  0.0151  0.1189
 4148TP3     H224264   4.747   2.790   7.020  1.5111 -1.1072 -0.8928
 4149TP3      O24265   3.452   2.567   9.608  0.2643  0.1177  0.0824
 4149TP3     H124266   3.447   2.493   9.548  0.1502 -0.2220  0.5122
 4149TP3     H224267   3.545   2.582   9.621  0.2856  0.0123  0.0474
 4150TP3      O24268   2.307   0.757   9.012  0.1198 -0.0341  0.0229
 4150TP3     H124269   2.374   0.820   8.983  0.7867 -0.7666 -0.0637
 4150TP3     H224270   2.226   0.787   8.970  0.4320  0.7579 -0.0274
 4151TP3      O24271   2.547   3.316   9.677 -0.2555  0.1279  0.3971
 4151TP3     H124272   2.504   3.285   9.598  0.0981  0.2103  0.1683
 4151TP3     H224273   2.522   3.409   9.683 -1.2207 -0.1579  1.0203
 4152TP3      O24274   2.471   3.075   1.082 -0.1219  0.0782  0.4448
 4152TP3     H124275   2.527   3.144   1.047 -0.7802 -0.0440 -0.8940
 4152TP3     H224276   2.382   3.105   1.066 -0.4230 -0.7420  0.5367
 4153TP3      O24277   5.170   0.450   1.874  0.0914 -0.4417  0.0635
 4153TP3     H124278   5.164   0.513   1.802 -1.7146 -0.4053  0.2181
 4153TP3     H224279   5.134   0.369   1.838 -0.0487 -0.6535  0.6773
 4154TP3      O24280   4.554   1.879   0.728 -0.0098  0.1125 -0.2489
 4154TP3     H124281   4.531   1.787   0.717 -1.3525  0.3694  0.1963
 4154TP3     H224282   4.483   1.915   0.781  1.1702  1.1104  0.7148
 4155TP3      O24283   3.421   0.402   2.485 -0.5398  0.0711 -0.2866
 4155TP3     H124284   3.482   0.331   2.505  0.8773  1.4956  0.6321
 4155TP3     H224285   3.342   0.357   2.455 -0.9011 -2.0625  3.2995
 4156TP3      O24286   5.107   1.957  10.048  0.1077  0.4213  0.6430
 4156TP3     H124287   5.105   1.966  10.144 -1.2023  2.2214  0.5035
 4156TP3     H224288   5.076   2.042  10.016  0.4982 -0.1553 -1.3947
 4157TP3      O24289   2.152   3.329   8.479  0.1566  0.2600 -0.2667
 4157TP3     H124290   2.200   3.247   8.490  1.8943  1.1443 -0.9608
 4157TP3     H224291   2.085   3.308   8.414  0.4344 -0.6629 -0.2769
 4158TP3      O24292   2.014   4.533   0.746 -0.4200  0.2928 -0.0742
 4158TP3     H124293   1.964   4.453   0.731  0.2180 -0.1625  0.1572
 4158TP3     H224294   2.076   4.510   0.816  0.6399  0.5781 -0.8801
 4159TP3      O24295   2.017   0.379   8.070 -0.5143 -0.1450 -0.3593
 4159TP3     H124296   2.102   0.341   8.094 -0.5029  0.0519 -0.0891
 4159TP3     H224297   2.016   0.465   8.113  0.3784  1.1318 -2.7059
 4160TP3      O24298   1.066   3.662   8.678 -0.2917 -0.4693 -0.3206
 4160TP3     H124299   0.991   3.609   8.650 -0.4035 -0.2244 -0.4849
 4160TP3     H224300   1.143   3.609   8.656 -0.4126 -0.6835 -0.2307
 4161TP3      O24301   4.559   3.589   1.217  0.0638 -0.1901  0.1600
 4161TP3     H124302   4.602   3.508   1.189 -2.1947 -1.4941  0.1942
 4161TP3     H224303   4.606   3.658   1.170  0.2168 -1.7701 -2.2173
 4162TP3      O24304   4.879   1.525   7.765  0.2336 -0.3027 -0.0282
 4162TP3     H124305   4.968   1.555   7.782 -0.0639  0.5562  0.0673
 4162TP3     H224306   4.852   1.574   7.687 -1.0144  1.3242  1.3565
 4163TP3      O24307   1.297   0.746   0.104  0.0844 -0.4410  0.3423
 4163TP3     H124308   1.306   0.785   0.191  1.0715  0.4017 -0.1099
 4163TP3     H224309   1.385   0.714   0.083 -0.5404 -2.2581  0.3704
 4164TP3      O24310   1.002   5.080  10.068  0.3083  0.1256 -0.2138
 4164TP3     H124311   1.096   5.094  10.056  0.1568  1.0293 -0.4297
 4164TP3     H224312   0.995   5.042  10.155  0.9493 -0.9532 -0.6102
 4165TP3      O24313   3.384   2.347   7.199  0.0071 -0.0911 -0.0110
 4165TP3     H124314   3.344   2.265   7.225 -0.7628  1.0286  2.6965
 4165TP3     H224315   3.314   2.395   7.154  0.5803 -1.0159 -1.9752
 4166TP3      O24316   4.168   4.736   0.543 -0.2197  0.7257 -0.0267
 4166TP3     H124317   4.125   4.755   0.627  2.4111  0.0035  1.6012
 4166TP3     H224318   4.249   4.785   0.546  0.3235  0.0158 -1.8211
 4167TP3      O24319   0.309   5.031   1.899 -0.5240  0.6839  0.2507
 4167TP3     H124320   0.301   4.943   1.934 -0.0618  0.6175  0.1918
 4167TP3     H224321   0.218   5.060   1.886 -0.6687 -0.0396 -0.3972
 4168TP3      O24322   5.195   4.384   1.515  0.4739 -0.1284 -0.1089
 4168TP3     H124323   5.276   4.350   1.476  0.6267 -0.6567  0.6411
 4168TP3     H224324   5.202   4.479   1.506  2.6873  0.1077  2.7348
 4169TP3      O24325   3.596   4.734   0.082  0.4660 -0.1718 -0.4057
 4169TP3     H124326   3.524   4.689   0.038  0.9996 -1.2600 -0.1889
 4169TP3     H224327   3.675   4.692   0.048  1.0264  1.1052 -0.7514
 4170TP3      O24328   4.369   0.995   0.489 -0.0745  0.3791 -0.3539
 4170TP3     H124329   4.382   1.015   0.582 -0.2414  1.9432 -0.6419
 4170TP3     H224330   4.426   0.920   0.473 -0.4769 -0.2977  1.1407
 4171TP3      O24331   0.220   1.462   0.687 -0.3221 -0.8697 -0.1442
 4171TP3     H124332   0.246   1.456   0.595 -3.5495  1.0151 -1.3250
 4171TP3     H224333   0.275   1.532   0.722  1.3638 -2.0062 -0.3785
 4172TP3      O24334   3.298   4.725   0.615 -0.1774 -0.5836  0.9461
 4172TP3     H124335   3.228   4.678   0.571 -0.7984 -1.6922  3.0169
 4172TP3     H224336   3.351   4.657   0.656  0.1710  0.4008  2.1866
 4173TP3      O24337   0.277   4.685   0.391  0.3101  0.1989  0.9370
 4173TP3     H124338   0.249   4.770   0.423 -2.6408 -0.8048  1.3092
 4173TP3     H224339   0.238   4.677   0.304 -0.2904 -1.1367  1.2988
 4174TP3      O24340   1.029   1.979   6.720 -0.1325 -0.3978  0.3440
 4174TP3     H124341   0.944   2.012   6.749  0.4583  0.9272  0.6401
 4174TP3     H224342   1.029   1.887   6.745 -2.0237 -0.8016 -0.9252
 4175TP3      O24343   1.271   5.108   2.495  0.4847  0.4661 -0.2984
 4175TP3     H124344   1.248   5.047   2.424 -0.9044  1.5017 -0.7641
 4175TP3     H224345   1.307   5.185   2.450 -1.1166  1.4470  0.0406
 4176TP3      O24346   0.235   0.243   9.482 -0.4120  0.6305 -0.2874
 4176TP3     H124347   0.300   0.282   9.540 -1.1123  0.9846  0.2744
 4176TP3     H224348   0.162   0.220   9.539 -0.0359 -1.5304 -0.5869
 4177TP3      O24349   2.632   3.720   2.781 -0.1873  0.1595 -0.8033
 4177TP3     H124350   2.595   3.694   2.865 -2.4274  0.0276 -1.7612
 4177TP3     H224351   2.633   3.815   2.784  1.9572  0.1525  0.2264
 4178TP3      O24352   2.378   4.514   1.358  0.3184 -0.6236  0.0615
 4178TP3     H124353   2.386   4.523   1.453 -0.6088  2.2761 -0.0401
 4178TP3     H224354   2.290   4.477   1.345 -0.1881  0.4565  0.3233
 4179TP3      O24355   5.028   0.396   0.543  0.4296  0.6939 -0.8818
 4179TP3     H124356   5.058   0.394   0.634  1.5951  2.1558 -1.1999
 4179TP3     H224357   4.994   0.308   0.528  1.8278 -0.1373  0.4512
 4180TP3      O24358   3.582   4.170   7.945 -0.2891 -0.2499 -0.4667
 4180TP3     H124359   3.518   4.209   7.886 -0.8209 -1.1218 -0.4828
 4180TP3     H224360   3.665   4.211   7.921 -1.0036  1.7474  0.3312
 4181TP3      O24361   0.703   1.410   2.953  0.1425 -0.1601 -0.2186
 4181TP3     H124362   0.657   1.377   3.031  1.0405  1.2929  0.9545
 4181TP3     H224363   0.730   1.498   2.976  0.6856  0.2014 -2.0956
 4182TP3      O24364   1.951   5.138   9.103 -0.1686 -0.1030 -0.0318
 4182TP3     H124365   2.010   5.111   9.033 -1.6772  0.7840 -1.7386
 4182TP3     H224366   1.942   5.061   9.159  1.6058 -0.6152 -0.3943
 4183TP3      O24367   3.635   5.171   8.218 -0.0855 -0.3350 -0.2105
 4183TP3     H124368   3.701   5.103   8.202  0.7458 -0.0574  1.7174
 4183TP3     H224369   3.598   5.190   8.132  1.5194 -1.3500 -1.1653
 4184TP3      O24370   4.659   0.794   1.095  0.3500  0.5058 -0.1971
 4184TP3     H124371   4.613   0.791   1.179 -3.1839 -0.0918 -1.9652
 4184TP3     H224372   4.744   0.833   1.115 -0.2631  0.2298  3.6351
 4185TP3      O24373   3.833   3.465   1.366 -0.1592 -0.0623  0.8486
 4185TP3     H124374   3.800   3.417   1.290  0.2859  2.3560 -1.0358
 4185TP3     H224375   3.858   3.398   1.429  0.7476 -2.2858 -1.7121
 4186TP3      O24376   2.209   3.689   8.666 -0.0190 -0.0952 -0.5735
 4186TP3     H124377   2.151   3.621   8.632  1.8700 -2.0969 -0.0031
 4186TP3     H224378   2.200   3.684   8.761 -0.0978  0.7126 -0.5263
 4187TP3      O24379   2.350   0.617   1.991  0.1330 -0.5517  0.0591
 4187TP3     H124380   2.383   0.593   2.078  0.1622  0.2711  0.2876
 4187TP3     H224381   2.310   0.703   2.004  1.3807  0.2378 -1.0099
 4188TP3      O24382   4.357   4.132   0.907 -0.0712  0.0119 -0.1601
 4188TP3     H124383   4.353   4.064   0.975 -2.3282  1.6618  1.5280
 4188TP3     H224384   4.272   4.175   0.913  0.7248  2.0224 -2.2093
 4189TP3      O24385   2.490   0.482  10.290  0.2278 -0.0929  0.2656
 4189TP3     H124386   2.501   0.577  10.281  2.7074 -0.3512 -0.0736
 4189TP3     H224387   2.470   0.451  10.202 -1.4905  0.1441  0.5214
 4190TP3      O24388   0.801   1.186   1.429  0.2200  0.6275 -0.1909
 4190TP3     H124389   0.837   1.157   1.345 -1.0569  1.3243 -1.0089
 4190TP3     H224390   0.863   1.153   1.494  1.8231  0.9730 -1.4623
 4191TP3      O24391   5.035   2.912   3.145 -0.6092  0.2109 -0.9139
 4191TP3     H124392   4.965   2.852   3.120  0.8008 -1.5354 -0.8891
 4191TP3     H224393   5.094   2.913   3.069  0.0448  0.5317 -0.4144
 4192TP3      O24394   2.020   2.849   0.547  0.4326  0.1915  0.2907
 4192TP3     H124395   1.933   2.830   0.584  0.3668 -1.9507 -0.8021
 4192TP3     H224396   2.003   2.910   0.476 -0.0428  0.5658  0.7145
 4193TP3      O24397   0.034   4.868   2.554 -0.1479 -0.2084 -0.0300
 4193TP3     H124398   0.000   4.779   2.563  0.7072 -0.7512 -1.7746
 4193TP3     H224399   0.045   4.899   2.644  0.1941 -2.1138  0.6241
 4194TP3      O24400   3.174   3.386   0.631  0.1000 -0.2071 -0.3731
 4194TP3     H124401   3.086   3.388   0.593 -0.0305  1.3773 -0.0524
 4194TP3     H224402   3.193   3.293   0.642 -1.1629 -0.6082 -1.2899
 4195TP3      O24403   1.998   3.418   7.343 -0.5548 -0.3626 -0.2281
 4195TP3     H124404   2.081   3.459   7.322  1.0176 -2.3377  1.6559
 4195TP3     H224405   1.942   3.490   7.372  1.6877  0.6617  1.8798
 4196TP3      O24406   4.606   4.231   0.432  0.1089 -0.2718  0.4877
 4196TP3     H124407   4.531   4.252   0.378  0.5917 -0.1941 -0.1675
 4196TP3     H224408   4.570   4.214   0.519 -0.5589  0.7355  0.4181
 4197TP3      O24409   3.369   3.819  10.180  0.2947 -0.4517 -0.1156
 4197TP3     H124410   3.443   3.856  10.228  0.3318 -0.3014 -0.2875
 4197TP3     H224411   3.359   3.731  10.216  1.2154 -0.8631 -0.8034
 4198TP3      O24412   0.734   1.155   2.450  0.0267  0.5342 -0.4756
 4198TP3     H124413   0.790   1.150   2.373  0.8541  0.1053  0.1505
 4198TP3     H224414   0.792   1.142   2.525 -0.9372 -0.2762  0.1779
 4199TP3      O24415   3.277   2.256   9.076 -0.5015 -0.8634  0.1696
 4199TP3     H124416   3.241   2.300   8.999 -3.2185 -2.1004  0.5964
 4199TP3     H224417   3.305   2.328   9.133 -1.6007  0.2133 -0.5788
 4200TP3      O24418   2.017   0.441   1.266  0.0542  0.5075  0.5030
 4200TP3     H124419   2.029   0.377   1.197 -1.5522  0.0792  0.6051
 4200TP3     H224420   2.042   0.525   1.226 -1.1948  0.3241 -0.7131
 4201TP3      O24421   3.723   2.906   1.088  0.7359 -0.3647 -0.3896
 4201TP3     H124422   3.800   2.945   1.047 -0.1347 -1.4433 -3.3053
 4201TP3     H224423   3.756   2.825   1.128  1.4854  0.3552  0.4995
 4202TP3      O24424   3.161   2.496   0.409 -0.1120 -0.0031  0.1860
 4202TP3     H124425   3.080   2.508   0.457  0.7379 -1.2215  2.0383
 4202TP3     H224426   3.230   2.522   0.470  0.9784 -0.6303 -0.7151
 4203TP3      O24427   1.778   3.121  10.006 -0.0822  0.0346  0.0046
 4203TP3     H124428   1.754   3.056   9.939  0.0845  0.5555 -0.5642
 4203TP3     H224429   1.697   3.136  10.054  0.1558 -1.5493  0.9891
 4204TP3      O24430   1.546   2.171   6.935  0.3289  0.0209  0.2968
 4204TP3     H124431   1.499   2.127   6.864 -0.4547 -1.5005  1.6980
 4204TP3     H224432   1.525   2.264   6.924 -2.2009 -0.4860  0.2768
 4205TP3      O24433   2.062   1.268   1.208 -0.2849  0.1797 -0.0494
 4205TP3     H124434   2.031   1.210   1.138  2.6517  1.9781 -3.1912
 4205TP3     H224435   2.094   1.209   1.276  0.1054 -1.8862 -1.8920
 4206TP3      O24436   4.619   2.078   9.666 -0.0585  0.5050  0.9454
 4206TP3     H124437   4.657   2.007   9.718 -2.9177 -0.4678  1.8647
 4206TP3     H224438   4.576   2.034   9.594 -1.7120  1.2897  1.4184
 4207TP3      O24439   4.619   4.615   7.999  0.1767 -0.1910  0.4117
 4207TP3     H124440   4.600   4.616   7.905 -0.7374  1.8708  0.5569
 4207TP3     H224441   4.705   4.657   8.006  0.1871 -0.2279  0.5103
 4208TP3      O24442   4.368   0.610   1.592  0.6027  0.0500  0.3507
 4208TP3     H124443   4.463   0.608   1.601  0.4166 -1.1183  3.0336
 4208TP3     H224444   4.350   0.555   1.515  2.0531 -0.5681  0.4238
 4209TP3      O24445   0.724   1.296   1.164 -0.0556  0.1786 -0.0162
 4209TP3     H124446   0.713   1.279   1.257 -1.2646  0.2666 -0.1264
 4209TP3     H224447   0.773   1.220   1.131  1.2051  0.5970  0.8382
 4210TP3      O24448   0.386   4.119   2.981 -0.3502  0.2821  0.2895
 4210TP3     H124449   0.468   4.131   3.029  0.2268  1.4035 -0.9362
 4210TP3     H224450   0.319   4.126   3.049  0.4794  1.1480  1.0531
 4211TP3      O24451   1.598   3.574   9.476 -0.4616  0.4699  0.0253
 4211TP3     H124452   1.533   3.602   9.412 -0.4205  0.3201 -0.0811
 4211TP3     H224453   1.580   3.481   9.489 -0.6087  0.5454  0.3903
 4212TP3      O24454   2.798   4.837   2.327 -0.3048 -0.2665 -0.2938
 4212TP3     H124455   2.852   4.765   2.292  1.6459  0.5506  0.8778
 4212TP3     H224456   2.844   4.865   2.406 -2.0581  1.0436  0.3166
 4213TP3      O24457   0.507   0.784   2.017 -0.1223 -0.3280 -0.5827
 4213TP3     H124458   0.602   0.795   2.026 -0.3583  0.0744  2.4505
 4213TP3     H224459   0.473   0.874   2.017 -0.5680 -0.4938 -0.9967
 4214TP3      O24460   2.846   4.219   7.451 -0.3352  0.3698 -0.6008
 4214TP3     H124461   2.826   4.171   7.531  0.8816 -2.9176 -2.0889
 4214TP3     H224462   2.866   4.308   7.480  0.4202 -0.7756  2.7735
 4215TP3      O24463   4.697   4.675  10.019  0.3079  0.2019 -0.2715
 4215TP3     H124464   4.629   4.723  10.065  0.3747 -0.1235  0.1745
 4215TP3     H224465   4.649   4.621   9.956  0.2833  1.4749 -1.3848
 4216TP3      O24466   3.026   1.672   2.185 -0.3811  0.1036  0.2656
 4216TP3     H124467   3.117   1.644   2.188 -0.5864 -0.6590 -0.3380
 4216TP3     H224468   3.030   1.766   2.168  0.2776 -0.1347 -0.9494
 4217TP3      O24469   2.470   4.870   2.169 -0.4199 -0.0404  0.2651
 4217TP3     H124470   2.450   4.962   2.153 -0.3889  0.0641  0.8269
 4217TP3     H224471   2.463   4.859   2.264 -0.2759 -0.5815  0.2196
 4218TP3      O24472   1.177   4.928   9.050  0.0887 -0.0578 -0.0692
 4218TP3     H124473   1.120   4.856   9.075  0.1907  0.3591  1.4938
 4218TP3     H224474   1.260   4.887   9.027  0.2038 -0.4466  0.9916
 4219TP3      O24475   3.763   4.978   9.085 -0.4604 -0.0269  0.4095
 4219TP3     H124476   3.791   4.886   9.082 -0.7158 -0.0855 -0.7093
 4219TP3     H224477   3.794   5.015   9.003  0.0234  1.0179  1.0424
 4220TP3      O24478   0.931   0.903   7.067 -0.3784  0.0029 -0.0111
 4220TP3     H124479   0.895   0.826   7.025  0.4171 -1.1311  1.2773
 4220TP3     H224480   1.025   0.885   7.073 -0.0861  1.3520 -0.2340
 4221TP3      O24481   4.422   1.363   1.960  0.5515 -0.2616  0.0435
 4221TP3     H124482   4.499   1.359   1.903  1.9343  1.0236  1.7243
 4221TP3     H224483   4.453   1.334   2.045 -0.5366  1.2663  1.0071
 4222TP3      O24484   0.267   3.827   1.773 -0.2370  0.2221  0.1532
 4222TP3     H124485   0.314   3.898   1.818 -0.4681 -0.1683  1.0231
 4222TP3     H224486   0.196   3.872   1.727  0.0540  0.6387  0.1026
 4223TP3      O24487   1.831   3.528   9.570 -0.1237  0.0275 -0.3159
 4223TP3     H124488   1.745   3.563   9.545  0.7540  1.2636 -1.7576
 4223TP3     H224489   1.831   3.439   9.535 -0.2114  0.5922 -1.8397
 4224TP3      O24490   1.301   1.118   2.500  0.0540  0.3924 -0.4805
 4224TP3     H124491   1.387   1.083   2.524 -0.1078  0.5968  0.4383
 4224TP3     H224492   1.297   1.204   2.542 -0.2590  0.7601 -1.2428
 4225TP3      O24493   0.562   4.300   8.836  0.1599 -0.3785  0.4407
 4225TP3     H124494   0.489   4.361   8.837  1.2037  0.9366  0.1132
 4225TP3     H224495   0.606   4.314   8.920  1.2237  0.4033 -0.2084
 4226TP3      O24496   4.090   5.124   1.046  0.6018  0.2922  0.0834
 4226TP3     H124497   4.048   5.038   1.047  1.2112 -0.0282 -0.5596
 4226TP3     H224498   4.104   5.143   0.953 -1.6528  2.1782  0.0645
 4227TP3      O24499   0.240   0.062   9.728  0.5138  0.1425  0.0384
 4227TP3     H124500   0.301   0.084   9.798  1.1016  0.1113 -0.4524
 4227TP3     H224501   0.296   0.041   9.653 -0.0113 -2.1206  0.2043
 4228TP3      O24502   3.890   1.900   1.902  0.3793  0.6179 -0.3647
 4228TP3     H124503   3.851   1.819   1.870 -0.8762  1.2653 -0.5456
 4228TP3     H224504   3.973   1.907   1.855  0.4404 -0.4890 -0.4366
 4229TP3      O24505   4.798   4.171   2.525 -0.0777  0.2395 -0.1125
 4229TP3     H124506   4.712   4.187   2.563 -0.4655  0.6631 -1.1471
 4229TP3     H224507   4.788   4.090   2.476  0.4835 -0.4244  0.8308
 4230TP3      O24508   2.862   4.392   1.048 -0.1241  0.1615  0.0401
 4230TP3     H124509   2.832   4.477   1.017 -1.7318  0.4538  2.1421
 4230TP3     H224510   2.835   4.330   0.980  0.5061  1.2277 -1.2151
 4231TP3      O24511   1.662   1.446   1.063 -0.0736 -0.3193  0.1629
 4231TP3     H124512   1.638   1.368   1.112 -0.4998 -0.5718 -0.4391
 4231TP3     H224513   1.743   1.423   1.019 -0.6275 -0.7236 -0.6756
 4232TP3      O24514   0.755   3.120   1.200 -0.0145 -0.3653  0.0692
 4232TP3     H124515   0.733   3.213   1.213 -0.5435 -0.4294 -0.3173
 4232TP3     H224516   0.675   3.073   1.225 -0.3802 -0.5951 -1.4465
 4233TP3      O24517   2.759   0.541   8.747  0.0127  0.0994 -0.2890
 4233TP3     H124518   2.781   0.635   8.745 -0.0698  0.1830  1.3661
 4233TP3     H224519   2.663   0.540   8.757  0.0076 -0.1706 -0.3809
 4234TP3      O24520   3.717   1.991   1.212 -0.1716 -0.7337 -0.0214
 4234TP3     H124521   3.656   2.065   1.209 -0.3015 -0.8294  0.2282
 4234TP3     H224522   3.668   1.918   1.175  0.5410 -0.2944 -1.9106
 4235TP3      O24523   0.336   3.067   0.267 -0.0186 -0.1125 -0.0099
 4235TP3     H124524   0.401   3.040   0.332  0.5616 -1.1416 -1.0001
 4235TP3     H224525   0.385   3.122   0.206 -0.3415  0.0128 -0.1601
 4236TP3      O24526   2.216   3.067   2.707  0.4385  0.1173 -0.0436
 4236TP3     H124527   2.196   2.985   2.662  2.7751 -0.4455 -0.2105
 4236TP3     H224528   2.150   3.074   2.775 -2.0908  0.0457 -2.3219
 4237TP3      O24529   4.165   1.633   8.637  0.5168 -0.4978  0.4801
 4237TP3     H124530   4.142   1.544   8.610 -0.2100 -0.5093  1.1165
 4237TP3     H224531   4.257   1.642   8.613  0.6697 -1.5125  0.6343
 4238TP3      O24532   3.208   0.225   2.466 -0.7119  0.3930 -0.2627
 4238TP3     H124533   3.190   0.193   2.554 -2.1840 -0.2715 -0.7665
 4238TP3     H224534   3.228   0.146   2.415  1.8248  0.9196 -0.1972
 4239TP3      O24535   1.116   4.500   0.959 -0.1318  0.5578  0.0359
 4239TP3     H124536   1.046   4.545   0.913 -0.7721 -0.6904 -0.2380
 4239TP3     H224537   1.080   4.482   1.046  0.3200  1.0522  0.3305
 4240TP3      O24538   2.640   0.862   9.542 -0.4890  0.0973  0.1489
 4240TP3     H124539   2.666   0.792   9.482 -1.3866 -1.7209  1.7514
 4240TP3     H224540   2.716   0.919   9.547 -0.1583 -0.0492 -2.1415
 4241TP3      O24541   0.134   2.533   1.793 -0.0008 -0.1626  0.3878
 4241TP3     H124542   0.077   2.505   1.722  1.0141 -1.4094  0.0304
 4241TP3     H224543   0.121   2.469   1.863  1.6992 -1.1016 -0.1022
 4242TP3      O24544   4.127   4.048   9.893 -0.1736  0.1329 -0.0135
 4242TP3     H124545   4.218   4.032   9.917 -0.0002 -1.3037 -1.4675
 4242TP3     H224546   4.129   4.129   9.843  0.3935 -0.1193 -0.4104
 4243TP3      O24547   1.692   1.323   8.835  0.0692  0.3857  0.4895
 4243TP3     H124548   1.605   1.285   8.824  0.8199 -1.2835 -0.0348
 4243TP3     H224549   1.676   1.416   8.850 -1.8540 -0.0594  1.5338
 4244TP3      O24550   0.509   2.187   0.066  0.0039  0.1228  0.2361
 4244TP3     H124551   0.572   2.128   0.024  1.8271  1.3684  1.0809
 4244TP3     H224552   0.504   2.157   0.156 -1.0189 -0.2613  0.0638
 4245TP3      O24553   2.983   2.615   9.647  0.0570  0.2185 -0.1785
 4245TP3     H124554   3.048   2.650   9.586  1.0266  1.7045  1.6128
 4245TP3     H224555   2.999   2.521   9.647  2.9424  0.6321  0.9472
 4246TP3      O24556   4.975   5.052   9.585  0.1516  0.0544  0.7693
 4246TP3     H124557   5.064   5.066   9.618  0.5103  2.3954 -0.9753
 4246TP3     H224558   4.987   5.027   9.494 -0.9683 -1.2560  0.9475
 4247TP3      O24559   2.925   4.760   2.897 -0.3356 -0.7777 -0.0571
 4247TP3     H124560   2.876   4.772   2.816 -2.2840  0.1594  1.1772
 4247TP3     H224561   2.859   4.771   2.966  1.5166 -0.1219  1.6911
 4248TP3      O24562   2.310   5.170   7.971  0.8338  0.2050  0.3106
 4248TP3     H124563   2.345   5.174   7.883 -1.4134 -1.0920 -0.7340
 4248TP3     H224564   2.386   5.164   8.028  2.3341  1.0202 -1.5261
 4249TP3      O24565   2.345   4.498   0.680  0.4801 -0.9025 -0.2937
 4249TP3     H124566   2.367   4.462   0.593  0.7706 -2.0800  0.2432
 4249TP3     H224567   2.430   4.518   0.719  0.3143  2.6713 -1.4377
 4250TP3      O24568   3.178   1.553   9.329  0.1922  0.3455  0.5327
 4250TP3     H124569   3.235   1.625   9.301  0.7551 -0.4516 -0.4040
 4250TP3     H224570   3.238   1.489   9.367 -0.1460 -0.2358  0.0916
 4251TP3      O24571   4.906   1.576  10.256  0.5528  0.0501  0.5769
 4251TP3     H124572   4.942   1.646  10.310  0.1503  0.3805  0.4241
 4251TP3     H224573   4.819   1.608  10.230  0.8908  0.0639 -0.5820
 4252TP3      O24574   1.719   0.361   3.614  0.2535 -0.1639  0.7083
 4252TP3     H124575   1.685   0.424   3.677  1.0114 -0.4673  1.4465
 4252TP3     H224576   1.812   0.384   3.605  0.2320 -0.3464 -0.0309
 4253TP3      O24577   1.821   1.227   3.099 -0.7129  0.1491 -0.1804
 4253TP3     H124578   1.727   1.211   3.087 -0.7583 -0.9709  1.4014
 4253TP3     H224579   1.847   1.168   3.169  0.8402  1.6460  0.5895
 4254TP3      O24580   0.746   4.076   0.806  0.0140  0.5095  0.1652
 4254TP3     H124581   0.831   4.097   0.767 -0.2910 -0.5510 -1.1387
 4254TP3     H224582   0.682   4.110   0.744 -0.5360  1.2684  1.1202
 4255TP3      O24583   2.361   3.317   0.334 -0.0937 -0.1211  0.0265
 4255TP3     H124584   2.359   3.275   0.420 -0.1712 -1.9218 -0.8036
 4255TP3     H224585   2.365   3.411   0.353  2.0743 -0.5209  2.0165
 4256TP3      O24586   3.296   3.977   2.645  0.6334  0.1351 -0.3606
 4256TP3     H124587   3.286   4.058   2.694  1.2164  0.5074 -0.8471
 4256TP3     H224588   3.391   3.966   2.636  0.5408  0.1645 -1.5323
 4257TP3      O24589   2.156   1.676   9.719  0.7474 -0.4962  0.7883
 4257TP3     H124590   2.143   1.765   9.685  0.4760 -0.2579  1.4893
 4257TP3     H224591   2.225   1.686   9.785 -0.2720 -0.5223  1.9051
 4258TP3      O24592   3.101   0.729   8.966  0.4258 -0.3606 -0.6287
 4258TP3     H124593   3.064   0.695   8.884 -0.3834 -3.3524  0.8211
 4258TP3     H224594   3.025   0.762   9.014  0.7564  0.4485 -0.6454
 4259TP3      O24595   3.045   4.953   1.418  0.1058 -0.4008  0.0626
 4259TP3     H124596   3.103   4.881   1.394  1.0544  0.4812 -0.3726
 4259TP3     H224597   3.083   5.030   1.376  1.5833  1.1702  3.7971
 4260TP3      O24598   5.219   2.426   9.344  0.0720 -1.0169  0.5519
 4260TP3     H124599   5.173   2.432   9.260 -0.9089  0.6578  1.1610
 4260TP3     H224600   5.160   2.376   9.400 -0.0663 -0.6316  0.7483
 4261TP3      O24601   5.041   1.379   3.436 -0.2256 -0.1170  0.5223
 4261TP3     H124602   4.954   1.371   3.476 -0.6801  0.1544 -0.3757
 4261TP3     H224603   5.063   1.289   3.411  1.1726 -0.7456  3.5234
 4262TP3      O24604   0.344   0.073   1.779  0.2069  0.2616  0.1453
 4262TP3     H124605   0.286   0.148   1.797  0.1224  0.0053  1.0104
 4262TP3     H224606   0.310   0.003   1.834 -0.2469 -0.7020 -1.3172
 4263TP3      O24607   4.992   0.448   2.355 -0.1214 -0.6415  0.6038
 4263TP3     H124608   4.968   0.516   2.417 -2.3168 -1.1325  0.3760
 4263TP3     H224609   5.046   0.493   2.290  1.1652  0.1378  2.1310
 4264TP3      O24610   0.937   0.866   3.425  0.1261  0.4389 -0.2032
 4264TP3     H124611   0.968   0.946   3.467  0.4788 -0.5584  1.5597
 4264TP3     H224612   0.915   0.808   3.498 -0.0644 -1.0982 -1.4249
 4265TP3      O24613   5.226   4.622   9.329  0.0003 -0.4436 -0.5161
 4265TP3     H124614   5.209   4.528   9.316 -0.1893 -0.6757  1.1183
 4265TP3     H224615   5.163   4.666   9.272 -1.2380 -1.3258  0.1020
 4266TP3      O24616   5.084   3.129   8.784 -0.2199 -0.7273  0.1237
 4266TP3     H124617   5.004   3.178   8.800 -0.0782 -0.7718  0.9674
 4266TP3     H224618   5.133   3.184   8.722  0.3766  0.7027  1.7877
 4267TP3      O24619   1.064   0.589   8.841 -0.0050 -0.5396 -0.0211
 4267TP3     H124620   1.112   0.512   8.812 -1.6845 -0.8862 -2.1647
 4267TP3     H224621   1.021   0.562   8.923 -0.2056 -1.7387 -0.5101
 4268TP3      O24622   1.427   1.666   2.898  0.3318 -0.4465 -0.1360
 4268TP3     H124623   1.468   1.733   2.843  1.7503 -0.5889  0.6871
 4268TP3     H224624   1.334   1.687   2.897  0.5616  0.5993 -1.1562
 4269TP3      O24625   1.327   0.990   9.970  0.1059  0.3721  0.4183
 4269TP3     H124626   1.256   1.052   9.956 -0.6893 -0.4430  0.7420
 4269TP3     H224627   1.406   1.043   9.968 -0.4267  1.1665 -0.8670
 4270TP3      O24628   0.347   5.191   3.076 -0.1321 -0.0855  0.3788
 4270TP3     H124629   0.338   5.138   3.155  0.9932 -2.2634 -0.8292
 4270TP3     H224630   0.424   5.154   3.032  0.4448  2.3210 -0.8033
 4271TP3      O24631   0.520   0.218   8.915 -0.4603 -0.4905  0.1605
 4271TP3     H124632   0.449   0.278   8.894 -0.3482 -0.9094 -1.5026
 4271TP3     H224633   0.577   0.220   8.838  2.3135  1.1633  2.0627
 4272TP3      O24634   4.174   0.648   8.592  0.8218  0.0198 -0.0311
 4272TP3     H124635   4.186   0.702   8.513 -1.3611  1.2177  0.3740
 4272TP3     H224636   4.139   0.708   8.657 -2.0567 -1.8669  0.3485
 4273TP3      O24637   4.818   1.676   3.432 -0.0120 -0.1262  0.2044
 4273TP3     H124638   4.871   1.651   3.507 -0.8205  0.7559  1.1014
 4273TP3     H224639   4.847   1.765   3.411  0.9632 -0.7483 -1.2453
 4274TP3      O24640   4.576   2.737   0.939 -0.2498  0.1132  0.2591
 4274TP3     H124641   4.493   2.714   0.979 -0.4556  1.1043  0.4196
 4274TP3     H224642   4.619   2.652   0.923 -1.8326 -0.5101 -1.0529
 4275TP3      O24643   3.389   1.517   9.085 -0.1600 -0.8315 -0.3468
 4275TP3     H124644   3.413   1.586   9.148  0.2668 -1.9413  0.7331
 4275TP3     H224645   3.444   1.535   9.009  0.9163 -0.7407  0.4217
 4276TP3      O24646   4.882   4.537   9.732 -0.2651  0.1142  0.1791
 4276TP3     H124647   4.818   4.562   9.665 -1.0760  1.6890  1.4550
 4276TP3     H224648   4.852   4.583   9.811  0.9339 -1.2892  1.4971
 4277TP3      O24649   4.596   4.481   0.208  0.0146 -0.3791 -0.2138
 4277TP3     H124650   4.580   4.394   0.245  1.8128 -0.6101  0.1085
 4277TP3     H224651   4.683   4.475   0.169  0.7944  1.6602  1.0309
 4278TP3      O24652   2.167   1.669   9.397  0.3210  0.5600  0.3049
 4278TP3     H124653   2.163   1.763   9.417  0.1187  0.3772  1.1695
 4278TP3     H224654   2.244   1.637   9.443 -0.6191 -0.0276  1.5487
 4279TP3      O24655   1.545   2.161   9.579 -0.6753 -0.4009  0.1911
 4279TP3     H124656   1.598   2.203   9.647 -2.1614 -1.5008  2.1281
 4279TP3     H224657   1.566   2.068   9.585 -0.8696 -0.5311 -0.8498
 4280TP3      O24658   1.544   1.241   9.994  0.4625  0.4444  0.3609
 4280TP3     H124659   1.640   1.234   9.995  0.5626  0.7404 -1.7805
 4280TP3     H224660   1.522   1.242   9.901 -1.5396  1.5867  0.8057
 4281TP3      O24661   3.278   0.408   9.050  0.4447  0.1164  0.5540
 4281TP3     H124662   3.289   0.472   9.120  2.6639  0.2485  0.1722
 4281TP3     H224663   3.363   0.365   9.044 -0.3259 -1.3103 -0.7037
 4282TP3      O24664   0.921   1.048   2.714  0.1913  0.7330  0.0527
 4282TP3     H124665   0.848   0.991   2.689  1.6618 -1.5411  0.6204
 4282TP3     H224666   0.957   1.008   2.794  2.5191  1.2794 -0.6345
 4283TP3      O24667   1.750   2.102   2.895  0.2629 -0.7149  0.0827
 4283TP3     H124668   1.809   2.169   2.861 -1.7257  1.5613  0.7764
 4283TP3     H224669   1.752   2.116   2.990 -0.5711 -1.2827  0.1908
 4284TP3      O24670   3.485   3.076   0.054  0.6476 -0.4974 -0.4701
 4284TP3     H124671   3.478   3.103  -0.038  0.2347  0.0458 -0.2864
 4284TP3     H224672   3.570   3.108   0.082  0.8802 -0.8804 -0.7303
 4285TP3      O24673   4.068   4.723   8.610 -1.2086  0.3178  0.1907
 4285TP3     H124674   3.986   4.672   8.610  0.3129 -2.2953  1.1717
 4285TP3     H224675   4.071   4.762   8.522 -2.0184 -2.1556 -1.0372
 4286TP3      O24676   4.477   3.999   1.317  0.2650 -0.0033  0.0260
 4286TP3     H124677   4.419   3.973   1.246 -1.8147  0.3384  1.5055
 4286TP3     H224678   4.545   4.052   1.275 -0.6808 -0.1222 -1.7371
 4287TP3      O24679   2.041   2.926   1.819 -0.4144 -0.0699  0.1531
 4287TP3     H124680   1.951   2.946   1.793 -0.5701  1.3747  1.6293
 4287TP3     H224681   2.032   2.866   1.893 -0.1125 -0.7250 -0.3301
 4288TP3      O24682   1.824   3.028   1.503 -0.3017 -0.2717 -0.6762
 4288TP3     H124683   1.739   3.014   1.461 -1.4543  1.6489  0.8307
 4288TP3     H224684   1.820   2.975   1.582 -0.3044  0.1767 -0.3719
 4289TP3      O24685   5.187   4.406   7.478 -0.2199 -0.0224 -0.0543
 4289TP3     H124686   5.094   4.408   7.499 -0.0461  0.6504  0.6893
 4289TP3     H224687   5.211   4.498   7.464  0.7880  0.0841  1.9521
 4290TP3      O24688   1.388   1.131   0.181  0.0464 -0.4437  0.4250
 4290TP3     H124689   1.467   1.177   0.209  2.4643 -3.3867 -0.9581
 4290TP3     H224690   1.388   1.049   0.231 -2.3324 -0.4362  0.5605
 4291TP3      O24691   4.411   2.342   9.627  0.3576  0.1667  0.0064
 4291TP3     H124692   4.452   2.379   9.549  0.0180 -0.2684 -0.3853
 4291TP3     H224693   4.348   2.278   9.593 -0.1921  0.3678  0.6176
 4292TP3      O24694   4.524   2.698  10.078 -0.0238  0.0814 -0.5643
 4292TP3     H124695   4.604   2.653  10.049 -0.4774  0.3285 -2.3317
 4292TP3     H224696   4.460   2.628  10.089  0.3932 -0.1133  0.8222
 4293TP3      O24697   5.212   3.711   3.247  0.0057 -0.0162  0.0465
 4293TP3     H124698   5.129   3.683   3.285 -0.2372  1.5460  0.7565
 4293TP3     H224699   5.226   3.652   3.173 -2.1399  0.1615 -0.5824
 4294TP3      O24700   1.843   1.537   3.436  0.0171  0.4176  0.7027
 4294TP3     H124701   1.848   1.528   3.341 -1.1540 -1.1679  0.7417
 4294TP3     H224702   1.822   1.449   3.467  0.8599  0.8005  2.4841
 4295TP3      O24703   3.749   3.009   7.322  0.1942 -0.0938  0.1721
 4295TP3     H124704   3.662   3.027   7.289  0.6816  0.8002 -0.6496
 4295TP3     H224705   3.782   2.938   7.267 -0.4159 -1.2330  1.2106
 4296TP3      O24706   1.198   1.133   1.178  0.8643 -0.6360 -0.0277
 4296TP3     H124707   1.110   1.103   1.158  0.3274  2.0809 -2.4789
 4296TP3     H224708   1.188   1.193   1.252  0.1823  1.2477 -1.5451
 4297TP3      O24709   2.984   4.610   7.373 -0.2317  0.1769 -0.1588
 4297TP3     H124710   2.924   4.646   7.307  0.3822  0.0774 -0.7880
 4297TP3     H224711   3.058   4.577   7.322 -0.6865 -1.8410  0.3803
 4298TP3      O24712   2.169   4.569   0.224  0.3584 -0.3633  0.4788
 4298TP3     H124713   2.168   4.579   0.319  1.8515  1.0369  0.3911
 4298TP3     H224714   2.256   4.598   0.198 -0.8290  1.7479 -1.5320
 4299TP3      O24715   4.086   4.643  10.122 -0.2537  0.0443  0.4407
 4299TP3     H124716   4.179   4.663  10.131  0.0320 -1.3816  0.9494
 4299TP3     H224717   4.070   4.645  10.028  0.6028 -0.8919  0.2527
 4300TP3      O24718   0.130   2.649   9.369 -0.4437  0.2839 -0.2237
 4300TP3     H124719   0.091   2.562   9.364 -0.1187  0.1523 -0.4857
 4300TP3     H224720   0.219   2.634   9.402 -0.6501  0.5949  0.5084
 4301TP3      O24721   4.868   2.000   9.401  0.1627 -0.0373  0.1743
 4301TP3     H124722   4.776   2.019   9.418 -0.0469  0.5663 -1.4533
 4301TP3     H224723   4.870   1.908   9.375 -0.0074  0.0194 -0.0325
 4302TP3      O24724   4.098   4.819   3.402 -0.1967  0.2822  0.5745
 4302TP3     H124725   4.055   4.733   3.404  0.4590 -0.0390  1.7058
 4302TP3     H224726   4.054   4.866   3.331 -0.5924 -0.9724 -0.0394
 4303TP3      O24727   4.468   1.862   2.459  0.2684  0.6760  0.4140
 4303TP3     H124728   4.426   1.845   2.543  0.8579  0.6362  0.7070
 4303TP3     H224729   4.471   1.776   2.416 -2.5059  1.0957 -0.8569
 4304TP3      O24730   3.710   4.895   8.782  0.2001  0.4204 -0.1509
 4304TP3     H124731   3.721   4.987   8.806  0.5410  0.3036  0.1587
 4304TP3     H224732   3.739   4.890   8.691 -2.8044  1.2271 -1.2843
 4305TP3      O24733   4.633   4.345   3.864  0.1037 -0.5244 -0.2166
 4305TP3     H124734   4.666   4.433   3.882  0.4971 -0.8786  0.8382
 4305TP3     H224735   4.558   4.335   3.923  0.6154 -1.2190  0.3409
 4306TP3      O24736   5.069   3.088   8.290  0.2353 -0.5753 -1.3581
 4306TP3     H124737   5.081   3.182   8.299  1.2929 -0.7712 -0.5122
 4306TP3     H224738   5.151   3.056   8.252  0.2389 -1.2447 -0.8250
 4307TP3      O24739   4.651   2.957   2.710  0.0571  0.3378 -0.2106
 4307TP3     H124740   4.711   3.019   2.668  0.1797 -0.8676 -1.8915
 4307TP3     H224741   4.657   2.878   2.657 -0.8065 -0.8172  1.3375
 4308TP3      O24742   1.822   1.250   9.997  0.2138  0.2553 -0.2420
 4308TP3     H124743   1.836   1.337  10.034  0.4300 -0.5259  1.5995
 4308TP3     H224744   1.896   1.236   9.939 -0.3761  1.7049 -1.4077
 4309TP3      O24745   3.486   3.105   0.458 -0.0074  0.3112 -0.0343
 4309TP3     H124746   3.509   3.141   0.544 -0.5443 -1.1597  0.7824
 4309TP3     H224747   3.544   3.148   0.396  0.8091  0.9689  1.1652
 4310TP3      O24748   0.893   4.914   2.055 -0.4018 -0.0897 -0.4224
 4310TP3     H124749   0.812   4.958   2.081 -0.9167 -0.2332 -1.7162
 4310TP3     H224750   0.909   4.945   1.966  0.3521 -0.9313 -0.5923
 4311TP3      O24751   3.412   4.216   0.646  0.1172 -0.2678 -0.1421
 4311TP3     H124752   3.415   4.149   0.714  1.9239 -1.0497 -0.9401
 4311TP3     H224753   3.318   4.233   0.634 -0.2716  0.4463  2.9912
 4312TP3      O24754   1.782   0.504   3.130 -0.9422  0.5201  0.4713
 4312TP3     H124755   1.814   0.452   3.056 -0.5006 -0.7670  1.5149
 4312TP3     H224756   1.830   0.470   3.205  1.4778  4.3640  0.8933
 4313TP3      O24757   3.281   0.197   0.651  0.0417  0.0400 -0.5929
 4313TP3     H124758   3.214   0.171   0.588  1.3117 -0.5341 -1.7648
 4313TP3     H224759   3.261   0.289   0.670 -1.5440 -0.3443 -0.2615
 4314TP3      O24760   3.352   1.051   7.646  0.0725  0.5128 -0.0829
 4314TP3     H124761   3.350   1.070   7.552 -2.1091  0.7234 -0.0350
 4314TP3     H224762   3.348   1.137   7.688  0.5276  0.3959  0.2007
 4315TP3      O24763   3.443   4.513   3.278 -0.3721 -0.1176  0.0922
 4315TP3     H124764   3.406   4.430   3.308  0.7540 -0.8955 -0.5778
 4315TP3     H224765   3.509   4.488   3.213 -0.1162  1.3135 -0.2401
 4316TP3      O24766   3.511   4.410   8.834 -0.4083 -0.1007  0.2077
 4316TP3     H124767   3.428   4.446   8.864  0.3301  0.3595  1.8348
 4316TP3     H224768   3.563   4.487   8.810 -0.7972 -0.4380 -1.8448
 4317TP3      O24769   2.084   3.074   0.830 -0.3496 -0.0522 -0.5186
 4317TP3     H124770   2.063   2.983   0.811  1.7507 -0.8946  0.8879
 4317TP3     H224771   2.001   3.112   0.860 -1.7605 -0.8502 -3.1471
 4318TP3      O24772   4.352   2.435   0.182 -0.7310  0.0324 -0.3122
 4318TP3     H124773   4.372   2.488   0.106 -1.5537 -1.2546 -1.4707
 4318TP3     H224774   4.371   2.345   0.155  1.9085 -0.2457  2.0194
 4319TP3      O24775   2.860   3.128   9.696 -0.0773  0.1413 -0.8982
 4319TP3     H124776   2.865   3.049   9.642  0.7913 -0.1180 -0.4516
 4319TP3     H224777   2.768   3.135   9.720  0.0119 -1.3407 -0.0475
 4320TP3      O24778   4.049   1.663   0.625  0.1964  0.1686  0.1965
 4320TP3     H124779   4.084   1.746   0.658 -0.0405  2.0707 -3.7750
 4320TP3     H224780   4.125   1.604   0.625  1.1086  1.2909  0.4185
 4321TP3      O24781   2.200   3.690   1.711 -0.3225  0.1805 -0.2540
 4321TP3     H124782   2.112   3.728   1.717 -0.4032 -0.2279  2.9504
 4321TP3     H224783   2.185   3.596   1.701 -0.3170  0.0336  0.9449
 4322TP3      O24784   0.785   1.733   1.197 -0.2858  0.0472 -0.6333
 4322TP3     H124785   0.772   1.827   1.205 -0.2230 -0.0164  0.4402
 4322TP3     H224786   0.873   1.724   1.161 -0.5376  0.3948 -1.3592
 4323TP3      O24787   4.089   5.020   2.300 -0.7841 -0.0919 -0.7604
 4323TP3     H124788   4.125   5.003   2.213  1.1015 -1.5244  0.2394
 4323TP3     H224789   4.158   5.069   2.346 -1.7045  0.5500 -0.0097
 4324TP3      O24790   3.364   0.209   7.574  0.0857  0.5126 -0.2105
 4324TP3     H124791   3.445   0.256   7.553  0.4753  0.1889  0.5180
 4324TP3     H224792   3.369   0.195   7.669 -0.2191 -0.6276 -0.3479
 4325TP3      O24793   1.113   0.693   7.846  0.5220  0.2688 -0.3787
 4325TP3     H124794   1.201   0.728   7.832  0.8203  0.3495  1.4815
 4325TP3     H224795   1.127   0.601   7.865  0.5384  0.7466  2.4405
 4326TP3      O24796   1.725   2.875   8.976  0.5008 -0.6918 -0.3441
 4326TP3     H124797   1.668   2.874   9.053 -1.0954 -0.8206 -1.4777
 4326TP3     H224798   1.769   2.790   8.978 -0.0427 -0.9695  0.0650
 4327TP3      O24799   1.041   3.460   1.520  0.1244 -0.0651  0.1387
 4327TP3     H124800   1.082   3.447   1.606 -0.3121 -0.1224  0.3450
 4327TP3     H224801   1.013   3.551   1.520 -0.5351 -0.2633  0.3546
 4328TP3      O24802   4.530   3.117   1.954  0.0772 -0.8648  0.5565
 4328TP3     H124803   4.622   3.109   1.978  0.1317  0.5018  0.9043
 4328TP3     H224804   4.531   3.128   1.859  0.3704  0.1143  0.6564
 4329TP3      O24805   2.071   1.510   1.369  0.6431 -0.0245  0.1231
 4329TP3     H124806   2.087   1.440   1.306 -1.1447 -0.6221  0.2847
 4329TP3     H224807   2.142   1.502   1.432  2.0769  0.1379 -1.3859
 4330TP3      O24808   0.562   1.269   8.580 -0.5175  0.5422 -0.0133
 4330TP3     H124809   0.591   1.294   8.492 -0.2121  0.5222  0.0780
 4330TP3     H224810   0.636   1.219   8.615 -0.5194  0.8013  0.3602
 4331TP3      O24811   0.337   4.246  10.020  0.0894 -0.5378  0.6834
 4331TP3     H124812   0.308   4.318   9.965 -0.3319 -1.8555 -0.8996
 4331TP3     H224813   0.289   4.258  10.103 -0.7790  0.3929  0.0625
 4332TP3      O24814   3.219   4.594   8.693 -0.5775 -0.1487  0.3027
 4332TP3     H124815   3.302   4.605   8.739 -0.8998  2.3077  0.4423
 4332TP3     H224816   3.153   4.628   8.754 -1.2286  1.3672 -1.1406
 4333TP3      O24817   4.903   4.067   0.146  0.5392  0.2846  0.1335
 4333TP3     H124818   4.837   4.115   0.096  0.9954  0.8478  0.0699
 4333TP3     H224819   4.860   4.046   0.229 -0.3465 -0.9385 -0.5823
 4334TP3      O24820   4.315   1.810   1.373 -0.6795 -0.6788 -0.3234
 4334TP3     H124821   4.282   1.793   1.284 -2.1136 -0.7212  0.1815
 4334TP3     H224822   4.272   1.743   1.427  0.5013 -0.9143  0.3561
 4335TP3      O24823   4.734   2.301   9.544 -0.1342 -0.6074 -0.2220
 4335TP3     H124824   4.680   2.238   9.590 -0.5795 -0.7133 -0.8722
 4335TP3     H224825   4.742   2.265   9.455  0.0003  0.0046 -0.4623
 4336TP3      O24826   3.004   3.717   1.865 -0.0939 -0.1246  0.4341
 4336TP3     H124827   2.917   3.690   1.836 -0.1514 -0.1863  0.6549
 4336TP3     H224828   3.064   3.677   1.803 -0.2943  1.3927 -0.8053
 4337TP3      O24829   0.068   2.066   9.215 -0.0241 -0.5080 -0.8026
 4337TP3     H124830   0.000   2.132   9.230  0.7823  0.0868  0.3570
 4337TP3     H224831   0.039   1.990   9.265 -0.2709 -0.5708 -1.0370
 4338TP3      O24832   3.509   1.160   9.357  0.1404  0.4295 -0.9871
 4338TP3     H124833   3.529   1.091   9.293  1.2744  0.3045 -0.5148
 4338TP3     H224834   3.530   1.242   9.312  1.2007  0.3287 -0.7016
 4339TP3      O24835   2.184   2.108   3.076 -0.0201  0.2558  0.3335
 4339TP3     H124836   2.202   2.199   3.052  1.7798 -0.1604 -0.0235
 4339TP3     H224837   2.166   2.065   2.992  0.0151  0.0943  0.4093
 4340TP3      O24838   3.739   2.653   0.837 -0.6084  0.6925 -0.0862
 4340TP3     H124839   3.756   2.747   0.837 -1.0109  0.7735 -0.4771
 4340TP3     H224840   3.653   2.644   0.879 -1.1572  0.6328 -1.1743
 4341TP3      O24841   2.828   4.344   0.389  0.0184  0.4887  0.0817
 4341TP3     H124842   2.743   4.302   0.376 -0.0127  0.6229 -0.1736
 4341TP3     H224843   2.888   4.294   0.333  0.1460  0.2762  0.4080
 4342TP3      O24844   1.883   3.679   0.717  0.7424 -0.2674 -0.3896
 4342TP3     H124845   1.944   3.679   0.790 -0.6085  1.5686  0.8505
 4342TP3     H224846   1.834   3.597   0.726  2.9142 -1.7828 -1.4251
 4343TP3      O24847   4.914   0.904   9.977 -0.1123 -0.0936  0.6478
 4343TP3     H124848   4.856   0.906  10.053  0.4430 -1.1496  1.1100
 4343TP3     H224849   4.881   0.830   9.924  0.4346 -0.3122  0.6113
 4344TP3      O24850   3.387   0.482  10.018 -0.1325 -0.8996 -0.0055
 4344TP3     H124851   3.319   0.506   9.956  0.7223  1.0130 -0.2734
 4344TP3     H224852   3.341   0.432  10.086 -1.1512 -2.6546 -1.8932
 4345TP3      O24853   4.913   3.576   1.613 -0.2181  0.1409  0.3222
 4345TP3     H124854   4.944   3.522   1.686  0.2924  0.5478  0.4135
 4345TP3     H224855   4.828   3.540   1.591 -1.0833  0.9513  2.1201
 4346TP3      O24856   2.844   1.063   0.525 -0.4776 -0.0683  0.0454
 4346TP3     H124857   2.821   1.098   0.440 -0.9508 -0.3997  0.0344
 4346TP3     H224858   2.862   0.970   0.509  1.7495  0.3244 -0.1100
 4347TP3      O24859   0.885   3.659   7.746  0.9627  0.3574  0.7870
 4347TP3     H124860   0.794   3.655   7.717  0.8940 -0.0847  1.0563
 4347TP3     H224861   0.936   3.658   7.665  0.7476 -0.0243  0.6559
 4348TP3      O24862   2.704   4.375   8.597 -0.2870  0.0429 -0.4238
 4348TP3     H124863   2.724   4.468   8.594 -0.0540  0.0140  0.0598
 4348TP3     H224864   2.734   4.347   8.684 -1.2347 -0.2823 -0.1859
 4349TP3      O24865   0.626   4.229   8.106  0.0384  0.5636 -0.2603
 4349TP3     H124866   0.643   4.145   8.148 -0.6804  0.1903 -0.6886
 4349TP3     H224867   0.535   4.223   8.077 -0.6101  2.1860  1.2740
 4350TP3      O24868   3.572   5.163   9.410 -0.2420 -0.6374  0.5992
 4350TP3     H124869   3.665   5.149   9.430 -0.5786 -1.0649  1.9320
 4350TP3     H224870   3.562   5.130   9.321  0.8406 -0.7822  0.5158
 4351TP3      O24871   4.126   0.280   1.963  0.1228 -0.2183 -0.8872
 4351TP3     H124872   4.078   0.198   1.959  2.0182 -1.4827  0.4712
 4351TP3     H224873   4.197   0.264   2.026  0.5222  2.4888 -0.5054
 4352TP3      O24874   4.190   2.338   1.312  0.1437 -0.6534 -0.7865
 4352TP3     H124875   4.129   2.352   1.240  0.3415 -2.0034 -1.2439
 4352TP3     H224876   4.274   2.320   1.269  1.1885  2.2287 -0.1711
 4353TP3      O24877   3.715   4.050   1.697 -0.1226 -0.3941 -0.4880
 4353TP3     H124878   3.747   4.008   1.617  1.6860  1.8352 -1.0438
 4353TP3     H224879   3.622   4.069   1.678  0.0602 -0.6332 -1.7528
 4354TP3      O24880   4.447   2.677   8.673  0.2451  0.3207 -0.4043
 4354TP3     H124881   4.418   2.591   8.702 -1.2802  0.8669 -0.2543
 4354TP3     H224882   4.389   2.739   8.718  2.3118  1.5407  0.7681
 4355TP3      O24883   2.919   3.292   8.378  0.2229 -0.3519 -0.0425
 4355TP3     H124884   2.854   3.222   8.376  0.0906 -0.3135  1.5735
 4355TP3     H224885   2.891   3.353   8.310 -1.0985 -0.6145  0.2385
 4356TP3      O24886   3.836   0.643   0.940 -0.6806  0.6434  0.2413
 4356TP3     H124887   3.836   0.549   0.957 -0.0900  0.7652  0.9335
 4356TP3     H224888   3.926   0.671   0.956 -0.5815  1.1524 -1.0260
 4357TP3      O24889   4.113   3.403   8.811 -0.6384  0.0611 -0.4403
 4357TP3     H124890   4.059   3.390   8.733 -0.9372  0.6222 -0.3350
 4357TP3     H224891   4.121   3.498   8.819 -1.1369  0.0351  0.5658
 4358TP3      O24892   2.192   0.217   2.836  0.0294  0.1860  0.3706
 4358TP3     H124893   2.161   0.164   2.762  0.0967  0.8918 -0.1620
 4358TP3     H224894   2.145   0.181   2.911 -1.7029  0.8665 -0.3374
 4359TP3      O24895   2.002   2.283   0.522  0.5095 -0.6009 -0.2131
 4359TP3     H124896   1.990   2.225   0.597  2.0666 -0.9773 -0.2224
 4359TP3     H224897   2.016   2.369   0.560 -0.5609 -0.4288 -0.1612
 4360TP3      O24898   4.806   2.225   0.340 -0.1224 -0.2957  0.4267
 4360TP3     H124899   4.733   2.282   0.317  0.4515  0.8128  1.2662
 4360TP3     H224900   4.883   2.282   0.337  0.6532 -1.3237  0.0584
 4361TP3      O24901   3.626   1.530   7.865  0.5986 -0.3186 -0.1396
 4361TP3     H124902   3.709   1.572   7.888  0.9448  0.3941 -2.3590
 4361TP3     H224903   3.619   1.544   7.770 -0.1552 -3.7609 -0.7186
 4362TP3      O24904   1.009   4.308   2.598  0.3403 -0.2076 -0.3071
 4362TP3     H124905   1.012   4.339   2.507  1.0466  0.6780  0.0092
 4362TP3     H224906   0.928   4.345   2.633  0.7334  0.5582 -0.1945
 4363TP3      O24907   1.795   3.847   0.433 -0.0127  0.4189 -0.5414
 4363TP3     H124908   1.701   3.862   0.427 -0.3613 -1.3320  0.0212
 4363TP3     H224909   1.813   3.781   0.366  0.7720  0.5641 -0.4854
 4364TP3      O24910   0.360   4.511   1.540 -0.1103 -0.0563 -0.5945
 4364TP3     H124911   0.310   4.585   1.575  0.3342  0.4954 -1.1045
 4364TP3     H224912   0.452   4.536   1.551  0.0444 -0.1276 -1.5915
 4365TP3      O24913   4.352   3.471   2.184 -0.4828 -0.4167 -0.3227
 4365TP3     H124914   4.299   3.534   2.134  0.2767  0.4855 -0.0321
 4365TP3     H224915   4.345   3.500   2.275 -2.3812 -2.4275  0.2600
 4366TP3      O24916   1.426   4.983   7.785  0.3424 -0.5650  0.0633
 4366TP3     H124917   1.460   5.070   7.803 -0.2885 -0.4544  0.7958
 4366TP3     H224918   1.364   4.996   7.713 -0.5116 -0.2152  0.8344
 4367TP3      O24919   0.175   0.364   2.892 -0.3453 -0.4607  0.7635
 4367TP3     H124920   0.177   0.421   2.969  1.4085 -0.5905  0.8592
 4367TP3     H224921   0.223   0.285   2.920 -1.3870 -1.3351  0.1481
 4368TP3      O24922   0.826   1.820   1.877 -0.4902  0.3413 -0.7513
 4368TP3     H124923   0.891   1.779   1.935 -0.3635  1.1818 -0.2806
 4368TP3     H224924   0.877   1.880   1.823 -0.8377  0.8013 -0.5718
 4369TP3      O24925   4.927   1.768   8.452 -0.3090  0.4718  0.0892
 4369TP3     H124926   4.929   1.841   8.390  0.3362 -0.9075 -1.6136
 4369TP3     H224927   5.013   1.771   8.495 -0.5186  1.0580  0.4799
 4370TP3      O24928   5.147   3.927   8.440  0.4505 -0.4013 -0.3267
 4370TP3     H124929   5.137   3.997   8.505  0.0567 -0.8206  0.0748
 4370TP3     H224930   5.194   3.858   8.487 -1.0255 -1.2561 -0.0459
 4371TP3      O24931   1.176   0.301   8.725 -0.1247 -0.7779 -0.4051
 4371TP3     H124932   1.211   0.254   8.801 -1.6020  0.5704  1.1801
 4371TP3     H224933   1.250   0.352   8.693  0.7579 -2.0474 -0.4614
 4372TP3      O24934   3.425   4.700   8.885 -0.5214  0.1068  0.3727
 4372TP3     H124935   3.507   4.745   8.865 -0.6600 -0.3695 -1.4857
 4372TP3     H224936   3.363   4.770   8.903 -0.2570  0.5964 -0.5331
 4373TP3      O24937   1.752   1.711   8.304  0.0824  0.1849 -0.1542
 4373TP3     H124938   1.802   1.644   8.351  1.5554  2.4535  1.7151
 4373TP3     H224939   1.805   1.731   8.227  0.4388  0.2953  0.1173
 4374TP3      O24940   1.059   1.115   9.863  0.4918 -0.5829 -0.3134
 4374TP3     H124941   0.983   1.062   9.887  0.7722 -0.6393  0.4767
 4374TP3     H224942   1.025   1.176   9.798  0.3289 -2.2329 -1.8660
 4375TP3      O24943   1.863   4.196   2.727 -0.3577  0.6195  0.3986
 4375TP3     H124944   1.851   4.198   2.821  0.9044  0.5817  0.5842
 4375TP3     H224945   1.928   4.127   2.712  0.0229  1.1249 -0.4098
 4376TP3      O24946   0.824   0.955   1.733 -0.4335 -0.3342  0.2120
 4376TP3     H124947   0.761   1.020   1.763 -0.7772 -1.2529  1.5547
 4376TP3     H224948   0.882   1.004   1.675 -0.3748  1.3086  1.5700
 4377TP3      O24949   4.975   2.591   7.557 -0.2428 -0.8669  0.2800
 4377TP3     H124950   4.906   2.526   7.547 -0.2178 -1.3096  2.4562
 4377TP3     H224951   5.050   2.542   7.591 -0.2004  0.2329  1.9190
 4378TP3      O24952   1.188   0.422   7.878 -0.4876  0.2992 -0.7211
 4378TP3     H124953   1.224   0.395   7.963  0.3747  0.8827 -0.8890
 4378TP3     H224954   1.165   0.339   7.835 -2.9241  0.0351  0.8817
 4379TP3      O24955   4.692   1.960   2.676  0.4184 -0.4275 -0.3936
 4379TP3     H124956   4.743   2.015   2.616  0.4166 -0.8850 -0.8202
 4379TP3     H224957   4.640   1.904   2.619 -0.7746  0.2033  0.0262
 4380TP3      O24958   4.752   0.203   8.391  0.1655 -0.2798  0.3576
 4380TP3     H124959   4.691   0.277   8.381  1.2245  0.3433 -2.6451
 4380TP3     H224960   4.702   0.126   8.364  0.3428  0.0845 -1.1045
 4381TP3      O24961   3.350   2.941   1.629  0.0942 -0.2044 -0.7143
 4381TP3     H124962   3.290   3.014   1.642 -0.0918 -0.5356  0.3661
 4381TP3     H224963   3.370   2.910   1.717  2.5908  0.4674 -0.9881
 4382TP3      O24964   3.958   4.098   1.831  0.4858  0.0698  0.4733
 4382TP3     H124965   3.875   4.076   1.790  0.7526 -0.2668  0.1011
 4382TP3     H224966   3.987   4.018   1.873  1.4666 -0.3488 -0.9005
 4383TP3      O24967   0.490   3.610   9.733  0.0044  0.2486  0.7219
 4383TP3     H124968   0.396   3.603   9.716  0.5469 -0.2611 -2.9260
 4383TP3     H224969   0.521   3.519   9.737  0.7100  0.3698 -1.1377
 4384TP3      O24970   2.443   5.096   7.174 -0.1706  0.0500 -0.1771
 4384TP3     H124971   2.538   5.092   7.186 -0.2150  0.3135  0.2946
 4384TP3     H224972   2.430   5.163   7.107 -0.0193 -0.0471 -0.3044
 4385TP3      O24973   2.449   4.528   7.634 -0.1128  0.1241 -0.1680
 4385TP3     H124974   2.475   4.610   7.593  2.3404  0.0415  1.0535
 4385TP3     H224975   2.486   4.460   7.578 -0.0988 -0.0769  0.0817
 4386TP3      O24976   2.140   0.265   8.624  0.2844  0.3539  0.4691
 4386TP3     H124977   2.053   0.287   8.592  0.6480  0.6215 -0.3582
 4386TP3     H224978   2.182   0.221   8.550  1.5377  1.9959  0.1509
 4387TP3      O24979   3.329   3.013   9.828 -0.0684 -0.2891 -0.3757
 4387TP3     H124980   3.248   3.044   9.868 -0.3459 -0.5274 -0.7481
 4387TP3     H224981   3.350   2.932   9.875  0.8451  0.6129  0.8385
 4388TP3      O24982   4.863   3.424   9.690  0.3384 -0.2937  0.0983
 4388TP3     H124983   4.779   3.453   9.655 -0.3488  0.6185  2.2825
 4388TP3     H224984   4.928   3.469   9.637 -0.6091  0.6074 -0.3328
 4389TP3      O24985   1.293   3.943   1.676  0.0763  0.3524  0.5416
 4389TP3     H124986   1.343   3.963   1.596 -0.9414 -0.6986 -0.4000
 4389TP3     H224987   1.347   3.878   1.722  0.4053  0.5431  0.4303
 4390TP3      O24988   1.789   2.804   1.691  0.2378 -0.5319  0.2414
 4390TP3     H124989   1.701   2.818   1.727  0.2355 -0.1731  0.0942
 4390TP3     H224990   1.785   2.717   1.652 -0.4703  0.0282 -1.0033
 4391TP3      O24991   3.439   1.010   0.199  0.4874 -0.0585 -0.4883
 4391TP3     H124992   3.439   1.081   0.263  1.7345  0.3269 -0.8811
 4391TP3     H224993   3.435   0.930   0.251  3.8655  0.1341  0.3262
 4392TP3      O24994   3.570   3.501   8.920  0.4491 -0.3266  0.1765
 4392TP3     H124995   3.561   3.453   8.838  2.8550 -2.6472  1.1363
 4392TP3     H224996   3.518   3.451   8.983 -0.8670  1.0882  0.2948
 4393TP3      O24997   3.236   1.868   1.925  0.8365 -0.0100  0.1957
 4393TP3     H124998   3.309   1.910   1.880 -0.2000  1.2080 -0.3988
 4393TP3     H224999   3.180   1.834   1.855 -0.9563  2.1714  0.4336
 4394TP3      O25000   4.780   0.161   3.022 -0.1599 -0.8861  0.6570
 4394TP3     H125001   4.713   0.223   3.052 -0.2472 -0.7717  0.2273
 4394TP3     H225002   4.809   0.118   3.102  0.5337  0.3422  1.1032
 4395TP3      O25003   2.924   0.306   3.338  0.5060  0.5907  0.1059
 4395TP3     H125004   2.882   0.389   3.363 -1.6481 -0.4351  0.1300
 4395TP3     H225005   2.936   0.313   3.244 -1.4008  0.2549 -0.2004
 4396TP3      O25006   4.752   0.672   8.519  0.0960 -0.1502  0.0750
 4396TP3     H125007   4.703   0.641   8.595 -0.4923 -0.5665 -0.4619
 4396TP3     H225008   4.719   0.760   8.503 -0.6783 -0.5260 -0.4421
 4397TP3      O25009   4.967   3.914   2.186  0.0292 -0.2958  0.0829
 4397TP3     H125010   5.042   3.885   2.135 -0.7954 -0.4026 -1.1083
 4397TP3     H225011   4.952   3.843   2.249  0.0889 -0.9085 -0.5833
 4398TP3      O25012   0.245   3.807   2.297 -0.1817  0.0579  0.1214
 4398TP3     H125013   0.296   3.848   2.227  0.2834  1.0827  1.0231
 4398TP3     H225014   0.274   3.716   2.299  0.3376  0.2090 -0.5268
 4399TP3      O25015   2.675   0.072   9.514 -0.0503 -0.9778 -0.2317
 4399TP3     H125016   2.703   0.065   9.605 -1.9136 -2.1764  0.3276
 4399TP3     H225017   2.607   0.005   9.506  0.4493 -1.2650 -2.6743
 4400TP3      O25018   3.769   0.034   1.857  0.0119 -0.5791 -0.1461
 4400TP3     H125019   3.764   0.087   1.778 -2.7964 -0.4634  0.0128
 4400TP3     H225020   3.684  -0.009   1.863  0.8343 -2.1177  1.7849
 4401TP3      O25021   2.752   2.412   0.818  0.7177  0.0737  0.3497
 4401TP3     H125022   2.706   2.333   0.792  1.0272 -0.0389  0.1418
 4401TP3     H225023   2.814   2.429   0.746  0.7959  0.3857  0.4874
 4402TP3      O25024   4.020   2.321   2.842  0.2291 -0.4241  0.3143
 4402TP3     H125025   4.005   2.411   2.871 -1.2072 -0.5885  0.1569
 4402TP3     H225026   4.058   2.278   2.919 -0.3100 -0.0012  0.8341
 4403TP3      O25027   2.470   4.012   8.123 -0.0627 -0.3941  0.6497
 4403TP3     H125028   2.418   3.938   8.154  0.2441 -1.2779 -0.8529
 4403TP3     H225029   2.444   4.084   8.180 -2.1652 -1.0517  0.6459
 4404TP3      O25030   1.502   3.209   8.121  0.3038 -0.4264 -0.3626
 4404TP3     H125031   1.420   3.254   8.142  0.1607 -0.3338 -1.1240
 4404TP3     H225032   1.519   3.155   8.199 -0.0284  0.1926  0.1528
 4405TP3      O25033   1.934   0.437   9.739  0.2903 -0.0634  0.2158
 4405TP3     H125034   1.914   0.525   9.706 -0.2333 -0.3800 -0.3290
 4405TP3     H225035   2.008   0.409   9.685  0.5747  0.1079  0.5121
 4406TP3      O25036   3.321   1.987   2.440 -0.5924  0.3075  0.0389
 4406TP3     H125037   3.390   1.981   2.374 -0.1893  0.8749  0.3927
 4406TP3     H225038   3.369   1.994   2.523 -1.0601 -2.2580  0.6281
 4407TP3      O25039   1.473   3.209   2.255  0.3204 -0.0321  0.7531
 4407TP3     H125040   1.513   3.141   2.308  2.3404  1.0290  0.7006
 4407TP3     H225041   1.432   3.268   2.318  0.4553 -0.1578  0.9575
 4408TP3      O25042   4.906   3.750   0.117 -0.3768  0.0430 -0.4412
 4408TP3     H125043   4.857   3.758   0.035  0.9076 -1.8982 -1.4766
 4408TP3     H225044   4.844   3.776   0.185 -1.2756  2.4094 -2.0425
 4409TP3      O25045   4.122   3.931   3.033 -0.5373  0.1240 -0.8196
 4409TP3     H125046   4.119   3.996   2.963  1.5076  1.1225 -0.0325
 4409TP3     H225047   4.153   3.978   3.110 -0.9177 -1.3662  0.3145
 4410TP3      O25048   2.792   4.061   0.996 -0.2163 -0.3761  0.3135
 4410TP3     H125049   2.726   4.002   0.959  0.4083 -1.5433  0.9713
 4410TP3     H225050   2.861   4.064   0.929 -1.2869  1.5723 -0.7754
 4411TP3      O25051   1.161   1.491   8.209 -0.3694  0.2590  0.0797
 4411TP3     H125052   1.156   1.572   8.158 -0.6405 -1.8111 -3.5665
 4411TP3     H225053   1.251   1.489   8.242  0.0372  1.4218 -0.8951
 4412TP3      O25054   0.532   4.145   1.637  0.1233 -0.2839 -0.1641
 4412TP3     H125055   0.541   4.178   1.548 -0.4328 -0.0184 -0.1296
 4412TP3     H225056   0.441   4.164   1.660  0.1534 -0.7007  0.3188
 4413TP3      O25057   4.524   5.040   2.564  0.0303 -0.2080 -0.2627
 4413TP3     H125058   4.514   4.993   2.482 -0.2334  0.8827 -0.8807
 4413TP3     H225059   4.598   5.100   2.549  0.5357 -0.5842  0.5892
 4414TP3      O25060   2.921   2.601   8.232 -0.3627  0.3876  0.2267
 4414TP3     H125061   2.985   2.661   8.193 -1.3462  1.4985  0.2453
 4414TP3     H225062   2.956   2.581   8.319  1.7807 -1.9919 -1.0668
 4415TP3      O25063   3.136   1.972   7.734 -0.5546 -0.0641 -0.3337
 4415TP3     H125064   3.166   1.882   7.740  1.5795  0.6388  0.5634
 4415TP3     H225065   3.119   1.986   7.641  2.5388 -0.4320 -1.0741
 4416TP3      O25066   2.512   2.995   1.583 -0.2606 -0.1420  0.0045
 4416TP3     H125067   2.489   3.040   1.502 -0.9630  0.3556  0.4658
 4416TP3     H225068   2.470   3.046   1.652 -1.5947 -1.8328  0.5162
 4417TP3      O25069   5.022   3.757   2.636 -0.3144 -0.1238  0.4207
 4417TP3     H125070   5.099   3.753   2.691  0.5460  0.5561 -0.6861
 4417TP3     H225071   5.050   3.718   2.553 -0.0422  3.1396 -1.1813
 4418TP3      O25072   1.615   0.014   2.485 -0.4683  0.5972  0.3224
 4418TP3     H125073   1.687  -0.026   2.437 -0.0463 -0.0026  1.4232
 4418TP3     H225074   1.596   0.095   2.437 -0.5110 -0.2946 -1.2193
 4419TP3      O25075   0.282   1.707   0.797 -0.2238 -0.3111  0.2891
 4419TP3     H125076   0.244   1.791   0.823 -0.5222 -0.6126  0.8667
 4419TP3     H225077   0.371   1.708   0.834  0.2124  0.2431 -0.7464
 4420TP3      O25078   3.429   3.970   7.560 -0.3370  0.3135 -0.2671
 4420TP3     H125079   3.411   3.993   7.651  0.7040  0.6508 -0.1332
 4420TP3     H225080   3.368   4.025   7.510 -1.1077 -0.0719  0.2233
 4421TP3      O25081   3.248   3.127   8.563 -0.2367  0.0959 -0.6831
 4421TP3     H125082   3.193   3.056   8.595  1.4796 -0.3688  1.4140
 4421TP3     H225083   3.201   3.207   8.589 -0.5070 -0.2873  0.0368
 4422TP3      O25084   3.323   4.719   0.935 -0.4759 -0.0123 -0.4091
 4422TP3     H125085   3.290   4.741   0.848 -2.3771  2.2704  0.7767
 4422TP3     H225086   3.245   4.701   0.987  0.6216 -1.3691  0.8793
 4423TP3      O25087   3.327   1.446   8.580 -0.4525 -0.2207  0.1358
 4423TP3     H125088   3.415   1.436   8.617 -1.0866 -1.9908  1.2787
 4423TP3     H225089   3.287   1.514   8.634  0.6284  1.6766 -1.3193
 4424TP3      O25090   0.221   3.025   2.121 -0.3806 -0.3984  0.5744
 4424TP3     H125091   0.280   3.089   2.081 -0.4221 -0.0849  0.9951
 4424TP3     H225092   0.157   3.079   2.168 -0.4743 -0.7491  0.8524
 4425TP3      O25093   4.676   3.364   0.183 -0.1277 -0.4062 -0.1489
 4425TP3     H125094   4.753   3.420   0.189 -1.1209  0.8530  1.9116
 4425TP3     H225095   4.703   3.281   0.222  0.5617 -0.4477 -0.7010
 4426TP3      O25096   2.062   3.899   2.668  0.6646 -0.1739  0.3693
 4426TP3     H125097   2.060   3.915   2.763 -0.8275 -2.1772  0.7446
 4426TP3     H225098   1.983   3.849   2.651  1.7700 -1.3577 -1.6602
 4427TP3      O25099   1.602   3.804   7.913 -0.1891  0.1944  0.6457
 4427TP3     H125100   1.559   3.787   7.829 -3.2264  0.0742  2.0975
 4427TP3     H225101   1.614   3.899   7.916 -1.7298  0.4074  0.7630
 4428TP3      O25102   4.144   4.140  10.223  0.5320 -0.0026  0.6306
 4428TP3     H125103   4.226   4.185  10.202  0.6323 -0.5633 -0.2135
 4428TP3     H225104   4.162   4.048  10.205 -0.5001 -0.0419 -0.2574
 4429TP3      O25105   2.588   2.061   8.353  0.1287  0.9303 -0.5892
 4429TP3     H125106   2.621   2.040   8.440 -1.0127  0.3191 -0.2821
 4429TP3     H225107   2.577   2.156   8.354 -3.0507  0.6856  1.1838
 4430TP3      O25108   4.238   4.281   9.800  0.4281 -0.2196  0.3547
 4430TP3     H125109   4.289   4.354   9.835  0.2229 -0.0535  0.3049
 4430TP3     H225110   4.299   4.207   9.802  0.9408  0.1621 -0.4780
 4431TP3      O25111   5.139   1.489   9.138 -0.0262  0.1812  0.1557
 4431TP3     H125112   5.230   1.502   9.112  0.2200  0.8357  1.2580
 4431TP3     H225113   5.090   1.554   9.088  0.3669  1.0845  0.9275
 4432TP3      O25114   1.187   0.826   7.072  0.7765  0.3336 -0.2520
 4432TP3     H125115   1.234   0.899   7.113  0.8467 -0.1566  0.5631
 4432TP3     H225116   1.256   0.762   7.051  0.6575  0.2854 -0.4964
 4433TP3      O25117   5.223   5.209   3.670  0.3946 -1.0801  0.1684
 4433TP3     H125118   5.170   5.244   3.598 -2.1893 -1.8359  1.5774
 4433TP3     H225119   5.171   5.136   3.704  1.7183 -0.9899  2.5613
 4434TP3      O25120   4.643   4.114   8.994  0.1872  0.0628 -0.4903
 4434TP3     H125121   4.583   4.119   8.920  0.5145  3.0574 -0.6483
 4434TP3     H225122   4.729   4.097   8.954 -0.1393 -1.9428 -0.4383
 4435TP3      O25123   3.514   2.845   3.282  0.0351  0.1837 -0.0710
 4435TP3     H125124   3.515   2.772   3.220 -0.4022 -0.1056  0.2583
 4435TP3     H225125   3.569   2.816   3.354 -1.3612 -0.4515  0.7633
 4436TP3      O25126   4.935   3.408   0.468  0.6616  0.1104 -0.6726
 4436TP3     H125127   4.974   3.330   0.508 -0.1423 -0.1949 -0.4589
 4436TP3     H225128   4.953   3.400   0.375  1.2893  0.0807 -0.5471
 4437TP3      O25129   3.090   2.067   7.475  0.2305 -0.1872  0.3642
 4437TP3     H125130   3.077   2.147   7.525 -2.0760  0.2181 -0.7430
 4437TP3     H225131   3.158   2.089   7.411 -1.2459  1.3575 -0.7456
 4438TP3      O25132   5.096   5.051   1.464 -0.1383 -0.0658  0.2319
 4438TP3     H125133   5.136   5.027   1.380 -0.2751 -1.2960  0.5055
 4438TP3     H225134   5.170   5.056   1.524 -0.0712  0.5585  0.1055
 4439TP3      O25135   0.553   4.104  10.127  0.5321 -0.2442  0.2596
 4439TP3     H125136   0.529   4.184  10.080  0.7881  0.2818  0.9997
 4439TP3     H225137   0.644   4.119  10.154  0.2736 -0.3686  1.2410
 4440TP3      O25138   0.250   4.030   0.130 -0.5249 -0.2893  0.0060
 4440TP3     H125139   0.316   3.998   0.191 -1.1072 -1.5182  0.0130
 4440TP3     H225140   0.172   4.043   0.183 -0.8583 -0.7775 -0.3596
 4441TP3      O25141   4.787   2.395   7.469 -0.1381  0.1529  0.4229
 4441TP3     H125142   4.739   2.313   7.468  0.1698 -0.0418  0.9811
 4441TP3     H225143   4.811   2.411   7.378 -2.1352  0.7845 -0.0386
 4442TP3      O25144   1.759   0.242   1.286 -0.5079  0.0754  0.2649
 4442TP3     H125145   1.743   0.331   1.319  1.9417  1.7860 -2.6232
 4442TP3     H225146   1.853   0.241   1.266 -0.0302 -3.8634  1.8413
 4443TP3      O25147   4.376   1.986  10.125 -0.4252 -0.4654 -0.5779
 4443TP3     H125148   4.336   2.069  10.099  1.0225 -0.2678 -2.2859
 4443TP3     H225149   4.305   1.939  10.171 -1.5660  1.2535 -0.5050
 4444TP3      O25150   2.217   3.942   7.661  0.0171  0.4723  0.5324
 4444TP3     H125151   2.134   3.896   7.669  0.7195 -0.8315  0.6744
 4444TP3     H225152   2.277   3.894   7.719  1.5382 -0.2754 -1.5196
 4445TP3      O25153   0.913   3.347   9.508  0.0602  0.7665  0.3915
 4445TP3     H125154   0.908   3.381   9.419 -0.9282 -1.1346 -0.3369
 4445TP3     H225155   0.933   3.254   9.497 -1.5341  0.1544  2.0503
 4446TP3      O25156   2.156   2.305   9.259  0.0964 -0.2212 -0.1290
 4446TP3     H125157   2.157   2.279   9.351  2.1355  0.0705 -0.0159
 4446TP3     H225158   2.112   2.234   9.213 -1.6133 -0.0333  1.1331
 4447TP3      O25159   1.959   3.550   1.980  0.4522  0.0431  0.1966
 4447TP3     H125160   1.939   3.584   1.892 -1.1472 -0.1208  0.4677
 4447TP3     H225161   1.963   3.455   1.969  0.8474  0.0552  0.2048
 4448TP3      O25162   2.744   3.527   0.276  0.3219  0.1680 -0.5026
 4448TP3     H125163   2.779   3.585   0.344  0.3771  0.6426 -0.9218
 4448TP3     H225164   2.698   3.587   0.216 -0.3153 -0.3268 -0.5078
 4449TP3      O25165   4.048   0.401  10.221 -0.5214 -0.0610  0.0023
 4449TP3     H125166   4.048   0.482  10.169 -0.6301 -0.0716 -0.0160
 4449TP3     H225167   3.961   0.401  10.263 -0.6632 -0.3533 -0.2907
 4450TP3      O25168   0.725   5.208   8.468  0.0301  0.0190  0.2380
 4450TP3     H125169   0.767   5.147   8.407  3.0502 -0.0531  2.1902
 4450TP3     H225170   0.644   5.163   8.493  0.8278 -1.9382 -0.4588
 4451TP3      O25171   3.489   0.776   3.351 -0.2543 -0.0966  0.2611
 4451TP3     H125172   3.527   0.767   3.439  2.8262 -1.9384 -1.0868
 4451TP3     H225173   3.506   0.691   3.310 -3.5465 -0.0421 -1.4876
 4452TP3      O25174   0.441   2.356   1.710  0.0300  0.3463 -0.1068
 4452TP3     H125175   0.440   2.332   1.802  1.5455  0.4030 -0.0538
 4452TP3     H225176   0.495   2.434   1.706 -0.2376  0.5008 -1.0197
 4453TP3      O25177   1.102   2.869   1.015 -0.5554 -0.1973 -0.0622
 4453TP3     H125178   1.044   2.804   0.975 -0.1475 -0.4309 -0.2775
 4453TP3     H225179   1.188   2.853   0.976 -0.1328 -0.4521  0.9359
 4454TP3      O25180   0.835   4.011   7.919 -0.1205  0.1229 -0.2999
 4454TP3     H125181   0.744   4.019   7.891  0.1820 -1.2421 -1.8548
 4454TP3     H225182   0.886   4.049   7.847  0.5642  0.0597  0.1442
 4455TP3      O25183   2.133   4.738   1.345  0.8810  0.1907 -0.0393
 4455TP3     H125184   2.106   4.784   1.424  2.0020  1.6862 -0.4708
 4455TP3     H225185   2.195   4.673   1.375  1.5653  0.9828  0.3076
 4456TP3      O25186   3.875   2.459   8.077  0.0476  0.5818  0.0568
 4456TP3     H125187   3.949   2.514   8.104  1.1677 -0.9904  0.3269
 4456TP3     H225188   3.834   2.432   8.159 -0.1293  0.5196 -0.0517
 4457TP3      O25189   4.665   1.867   1.760 -0.0549  0.2495  0.7553
 4457TP3     H125190   4.740   1.839   1.813  0.0668  0.2761  0.5992
 4457TP3     H225191   4.596   1.806   1.783  0.2608 -0.2900  0.2924
 4458TP3      O25192   5.196   3.011   0.311  0.4042 -0.0033  1.0737
 4458TP3     H125193   5.273   2.964   0.343  1.6277  1.9144  1.1233
 4458TP3     H225194   5.138   2.942   0.279  2.1283 -1.5348  1.0311
 4459TP3      O25195   3.869   5.092   2.426 -0.3307  0.1403 -0.1983
 4459TP3     H125196   3.825   5.142   2.357 -0.2433  0.2293 -0.1890
 4459TP3     H225197   3.951   5.064   2.386 -0.1057  0.5190 -0.0022
 4460TP3      O25198   2.458   0.975   7.824  0.7687 -0.2562  0.3031
 4460TP3     H125199   2.472   0.929   7.907  0.5653  0.4982  0.7652
 4460TP3     H225200   2.482   1.066   7.842 -3.2799  0.9161  0.7934
 4461TP3      O25201   1.153   0.818   3.267  0.1871  0.2414  0.1614
 4461TP3     H125202   1.172   0.746   3.327 -2.0487 -1.0069 -0.5488
 4461TP3     H225203   1.079   0.864   3.306 -1.3312 -0.6101 -1.5610
 4462TP3      O25204   0.103   1.111   0.919 -0.0989 -0.2067  0.2921
 4462TP3     H125205   0.091   1.078   0.830  0.0809 -0.1653  0.2529
 4462TP3     H225206   0.065   1.043   0.975 -2.2038  0.7176  0.0906
 4463TP3      O25207   1.797   0.906   1.115 -0.1950 -0.4003  0.1085
 4463TP3     H125208   1.708   0.888   1.087 -0.0685 -0.8939  0.0060
 4463TP3     H225209   1.805   0.861   1.199  0.6934 -2.4576 -0.9976
 4464TP3      O25210   3.905   0.802   7.313  0.0711  0.0978 -0.0514
 4464TP3     H125211   3.973   0.755   7.264 -0.8730 -0.3289 -0.9852
 4464TP3     H225212   3.946   0.821   7.398  1.0730 -0.8687 -0.2927
 4465TP3      O25213   2.471   4.428   0.455 -0.4680  0.6588  0.3359
 4465TP3     H125214   2.516   4.353   0.415 -2.0940 -0.9530  1.3703
 4465TP3     H225215   2.476   4.497   0.389  1.0970 -0.3443 -0.6567
 4466TP3      O25216   1.389   5.111   9.822  0.3868 -0.8397 -0.2040
 4466TP3     H125217   1.375   5.180   9.887  1.2206 -1.2657  0.4486
 4466TP3     H225218   1.393   5.157   9.738 -1.5898 -0.3762 -0.0908
 4467TP3      O25219   3.023   1.056   0.824  0.3299  0.7095  0.0212
 4467TP3     H125220   3.117   1.056   0.804  0.1221  1.8833 -1.0309
 4467TP3     H225221   2.986   1.126   0.770 -1.4193 -0.7969 -0.8577
 4468TP3      O25222   5.073   3.244   2.675 -0.0427  0.2451 -0.2489
 4468TP3     H125223   5.154   3.291   2.690  1.0429 -2.0039  1.6949
 4468TP3     H225224   5.052   3.205   2.760 -1.4771 -1.7608 -1.4177
 4469TP3      O25225   2.739   1.631   1.406  0.0019 -0.4913  0.2429
 4469TP3     H125226   2.660   1.658   1.359  0.4814 -1.2914 -1.0693
 4469TP3     H225227   2.755   1.542   1.376  1.2260 -0.4473  0.7418
 4470TP3      O25228   0.209   0.529   9.544 -0.2152  0.1435 -0.0217
 4470TP3     H125229   0.264   0.453   9.526 -0.7007 -0.3884  0.7145
 4470TP3     H225230   0.162   0.544   9.462  0.5664  0.2368 -0.4675
 4471TP3      O25231   1.804   0.721   8.354  0.6465 -0.1852 -0.3665
 4471TP3     H125232   1.734   0.729   8.289  2.1342 -1.5173 -2.2675
 4471TP3     H225233   1.767   0.664   8.422 -0.6452  0.5137 -0.4471
 4472TP3      O25234   3.872   2.104   2.105 -0.1563  0.1434 -0.0657
 4472TP3     H125235   3.866   2.013   2.075 -0.5443 -0.0861  0.6847
 4472TP3     H225236   3.960   2.132   2.079  0.5400 -0.9394  1.0211
 4473TP3      O25237   0.858   0.360  10.078 -0.0360 -0.3738  0.1822
 4473TP3     H125238   0.871   0.267  10.094  0.7584 -0.1535  0.8766
 4473TP3     H225239   0.795   0.388  10.144  0.6438 -0.1793  0.7639
 4474TP3      O25240   3.477   3.196   8.838  0.5725  0.1824  0.4146
 4474TP3     H125241   3.414   3.253   8.795  0.9887 -0.8467 -1.6761
 4474TP3     H225242   3.438   3.109   8.833  1.4781 -0.2339  0.4408
 4475TP3      O25243   2.595   2.692   8.364  0.0798  0.2345  0.0745
 4475TP3     H125244   2.634   2.727   8.445 -0.2652 -0.1572  0.4178
 4475TP3     H225245   2.504   2.721   8.366 -0.1992 -0.6093  0.3412
 4476TP3      O25246   3.807   2.620   9.391 -0.2144  0.0925  0.0821
 4476TP3     H125247   3.862   2.646   9.464  0.0990  0.1708 -0.1791
 4476TP3     H225248   3.770   2.535   9.417 -0.2715  0.2208  0.4163
 4477TP3      O25249   0.747   4.676   8.264 -0.2572 -0.1826 -0.0724
 4477TP3     H125250   0.839   4.702   8.268 -0.2971  0.3462 -1.6611
 4477TP3     H225251   0.705   4.721   8.337  0.3655  1.3454 -0.6165
 4478TP3      O25252   2.568   3.480   2.013  0.0046 -0.1230  0.3342
 4478TP3     H125253   2.515   3.406   2.041  0.5866  0.0011  1.8617
 4478TP3     H225254   2.656   3.459   2.042  0.4346  0.5624 -0.4346
 4479TP3      O25255   3.270   3.193   1.069 -0.2352  0.3110  0.3331
 4479TP3     H125256   3.226   3.135   1.131 -0.3306  0.8287  0.7596
 4479TP3     H225257   3.362   3.165   1.070 -0.5941 -1.0866 -0.9128
 4480TP3      O25258   2.796   4.301   3.678 -0.0326  0.0369  0.1190
 4480TP3     H125259   2.758   4.385   3.704  1.0724  0.1060  1.7213
 4480TP3     H225260   2.810   4.309   3.584 -1.6266  0.9297 -0.0747
 4481TP3      O25261   3.994   0.237   7.576 -0.2036  0.3654  0.4548
 4481TP3     H125262   3.946   0.280   7.506 -0.6621  1.1493  1.2349
 4481TP3     H225263   4.029   0.157   7.536  0.1345  1.1460 -0.8491
 4482TP3      O25264   0.405   4.290   0.258  0.1027  0.1263  0.4108
 4482TP3     H125265   0.435   4.221   0.198 -0.0346 -0.5931  1.1426
 4482TP3     H225266   0.315   4.307   0.232  1.0824  2.3872 -1.8797
 4483TP3      O25267   2.105   4.454   1.297  0.4667 -0.2159  0.1989
 4483TP3     H125268   2.124   4.452   1.203 -1.2823  0.7130 -0.2154
 4483TP3     H225269   2.064   4.369   1.314  3.4868 -1.6889  0.8351
 4484TP3      O25270   1.683   2.061   7.517 -0.3076 -0.3938 -0.7412
 4484TP3     H125271   1.643   2.131   7.568 -0.0448  0.2475 -1.3884
 4484TP3     H225272   1.629   1.984   7.535  0.1436 -0.3582  0.9865
 4485TP3      O25273   2.444   5.000   3.156  0.4604 -0.0510 -0.1824
 4485TP3     H125274   2.444   4.908   3.130 -1.3204  0.6412 -3.0926
 4485TP3     H225275   2.533   5.031   3.138  0.7604 -0.9359 -0.2352
 4486TP3      O25276   5.065   1.073   0.731  1.0214 -0.0286  0.0137
 4486TP3     H125277   5.127   1.115   0.672  0.5696  0.7349  0.0632
 4486TP3     H225278   5.073   1.123   0.813 -0.6685  1.0190 -0.4196
 4487TP3      O25279   1.973   0.250   0.444 -0.3037  0.6687 -0.1451
 4487TP3     H125280   1.891   0.201   0.445 -0.0476  0.2403  0.1493
 4487TP3     H225281   1.951   0.334   0.403 -1.1673  1.0664  1.0870
 4488TP3      O25282   0.803   1.377   7.419 -0.6088  0.3523 -0.0181
 4488TP3     H125283   0.739   1.443   7.393  0.6234  1.4892 -0.2745
 4488TP3     H225284   0.814   1.390   7.513  0.0349  0.8988 -0.1618
 4489TP3      O25285   2.670   1.427   3.026 -0.4201  0.2836  0.0846
 4489TP3     H125286   2.652   1.428   2.932  1.7942 -0.8609 -0.4063
 4489TP3     H225287   2.584   1.440   3.066 -1.6129 -0.4153 -2.0751
 4490TP3      O25288   2.789   5.210   0.967  0.2003 -0.1285 -0.2399
 4490TP3     H125289   2.805   5.275   1.035  2.6236 -1.0250  0.1405
 4490TP3     H225290   2.841   5.241   0.892  1.6776 -1.7240  0.0629
 4491TP3      O25291   0.451   1.260   1.379 -0.4851  0.1963  0.0694
 4491TP3     H125292   0.500   1.213   1.446 -2.3474 -1.4832  0.3686
 4491TP3     H225293   0.465   1.209   1.299 -1.1411  0.1084  0.0047
 4492TP3      O25294   3.674   2.410   9.128  0.6825 -0.1886  0.2120
 4492TP3     H125295   3.617   2.369   9.193 -0.3493  0.4271 -0.2931
 4492TP3     H225296   3.710   2.337   9.078 -1.7057 -0.5109 -1.1663
 4493TP3      O25297   5.039   3.248   0.108  0.1572  0.1682  0.1834
 4493TP3     H125298   4.948   3.218   0.118  0.0444  0.3496 -0.2648
 4493TP3     H225299   5.086   3.171   0.075  0.5126 -0.4034  1.9295
 4494TP3      O25300   3.866   3.517  10.259  0.1200 -0.3946  0.2214
 4494TP3     H125301   3.842   3.440  10.208 -0.4163 -0.6668  0.8583
 4494TP3     H225302   3.912   3.574  10.198  1.0126 -1.4607 -0.1293
 4495TP3      O25303   1.879   1.849   9.951 -0.4078  0.6348 -0.0113
 4495TP3     H125304   1.794   1.868   9.990  0.1987  2.3132  0.6065
 4495TP3     H225305   1.924   1.797  10.017 -0.7456  0.2561 -0.0816
 4496TP3      O25306   4.792   1.451   1.571 -0.3727  0.4512  0.1026
 4496TP3     H125307   4.788   1.545   1.553 -1.9670  0.4672  0.4164
 4496TP3     H225308   4.772   1.443   1.664 -1.5306 -0.2718 -0.1902
 4497TP3      O25309   1.604   0.594   1.766  0.7346  0.1076 -0.0843
 4497TP3     H125310   1.594   0.647   1.686 -0.3479  1.8445  1.1298
 4497TP3     H225311   1.690   0.553   1.757  1.2114  1.3444 -1.5299
 4498TP3      O25312   0.063   1.163   2.104 -0.1001  0.2054 -0.3795
 4498TP3     H125313   0.053   1.254   2.076  0.7912  0.8802  1.3285
 4498TP3     H225314   0.156   1.154   2.125  0.0425 -1.4348 -1.4883
 4499TP3      O25315   0.161   1.410   2.217 -0.1514 -0.4317 -0.1878
 4499TP3     H125316   0.249   1.389   2.249  0.3550  0.4080 -1.0086
 4499TP3     H225317   0.163   1.504   2.201 -1.9856  0.1048  2.1792
 4500TP3      O25318   1.617   4.565   1.137  0.0862 -0.2757 -0.2479
 4500TP3     H125319   1.648   4.522   1.217 -1.1568 -0.1239  0.3252
 4500TP3     H225320   1.556   4.502   1.098 -0.8416  0.4620 -0.0166
 4501TP3      O25321   0.646   1.683   9.262  0.2371 -0.2490  0.0892
 4501TP3     H125322   0.714   1.658   9.324 -0.1148  1.1553  1.1086
 4501TP3     H225323   0.602   1.757   9.304 -1.5528 -0.7470 -0.7837
 4502TP3      O25324   0.674   1.382   9.383 -0.0274  0.3527 -0.3085
 4502TP3     H125325   0.594   1.406   9.335 -1.8836 -0.0955  2.3051
 4502TP3     H225326   0.698   1.462   9.430 -0.3587 -0.1267  0.7088
 4503TP3      O25327   3.424   3.428   1.247  0.4491 -0.2883 -0.2795
 4503TP3     H125328   3.350   3.381   1.209  0.9581 -0.3521 -1.2469
 4503TP3     H225329   3.384   3.502   1.293 -0.2175 -0.1932 -0.9742
 4504TP3      O25330   0.279   3.220   1.533  0.4519 -0.1494  0.0883
 4504TP3     H125331   0.198   3.272   1.537  0.2536 -0.4518  0.0059
 4504TP3     H225332   0.276   3.165   1.611  0.2697 -0.6126 -0.2424
 4505TP3      O25333   2.686   4.516   8.269  0.8360  0.6981  0.5339
 4505TP3     H125334   2.760   4.475   8.314 -0.2544 -1.0016  0.8606
 4505TP3     H225335   2.636   4.559   8.339 -0.2991 -1.0750  0.8883
 4506TP3      O25336   2.017   4.810   1.595  0.9218 -0.1437 -0.4871
 4506TP3     H125337   1.944   4.811   1.658  0.1047 -0.4014 -1.4091
 4506TP3     H225338   2.027   4.901   1.569 -0.4006 -0.3372 -1.8216
 4507TP3      O25339   1.936   4.660   0.511  0.5802 -0.1052 -0.5553
 4507TP3     H125340   1.960   4.607   0.586 -2.3247 -2.9842 -1.4002
 4507TP3     H225341   2.016   4.670   0.461  1.3316 -4.0507 -0.4234
 4508TP3      O25342   0.950   0.482   9.063  0.0861 -0.4774  0.4456
 4508TP3     H125343   0.857   0.462   9.054  0.0980  0.0504 -1.0876
 4508TP3     H225344   0.954   0.540   9.139 -0.8286 -0.5186  0.5423
 4509TP3      O25345   0.179   3.705   9.476  0.2350  0.7345 -0.1754
 4509TP3     H125346   0.097   3.676   9.436  0.4915  1.2245 -1.0575
 4509TP3     H225347   0.175   3.800   9.474 -0.3238  0.8301  2.1595
 4510TP3      O25348   5.051   2.205   9.278  0.2385  0.3366  0.4430
 4510TP3     H125349   4.979   2.155   9.317  0.3373  1.2059  1.8071
 4510TP3     H225350   5.029   2.211   9.185 -0.6002 -0.8081  0.5459
 4511TP3      O25351   1.133   0.741   2.581  0.4786  0.2246  0.2662
 4511TP3     H125352   1.041   0.714   2.589  0.4965  0.0912  0.0094
 4511TP3     H225353   1.174   0.709   2.662 -0.0050  1.5242  1.0612
 4512TP3      O25354   4.848   0.074   1.179 -0.2091 -0.1895 -0.1615
 4512TP3     H125355   4.883  -0.015   1.189 -1.8471 -0.9861 -1.1635
 4512TP3     H225356   4.756   0.061   1.156 -0.0976  1.7233 -1.9409
 4513TP3      O25357   2.528   3.284   0.032 -0.2527  0.3602  0.1905
 4513TP3     H125358   2.450   3.320  -0.009 -0.4092  0.8342  0.8997
 4513TP3     H225359   2.521   3.308   0.124 -0.1231 -1.0707  0.6034
 4514TP3      O25360   2.360   1.625   8.249  0.4603 -0.1138 -0.4961
 4514TP3     H125361   2.428   1.692   8.248  2.5214 -2.0906 -1.5958
 4514TP3     H225362   2.391   1.560   8.312 -2.9602  1.1690  2.9086
 4515TP3      O25363   0.993   0.490   3.315  0.1547  0.0634 -0.1892
 4515TP3     H125364   1.048   0.548   3.367  0.0319 -1.0024  1.2019
 4515TP3     H225365   0.985   0.533   3.230  1.0578  1.4528  0.4038
 4516TP3      O25366   1.933   0.824   8.567  0.5492 -0.1392 -0.0160
 4516TP3     H125367   1.998   0.868   8.512 -1.7975  2.0329 -1.3065
 4516TP3     H225368   1.866   0.795   8.505 -1.7146  1.5199  1.4863
 4517TP3      O25369   2.191   3.687   8.930 -0.0879  0.1013 -0.0024
 4517TP3     H125370   2.236   3.603   8.930 -1.4628 -0.6575  0.0947
 4517TP3     H225371   2.150   3.693   9.016 -0.4211  0.6459 -0.1934
 4518TP3      O25372   0.477   0.948   2.826  0.2871 -0.3733 -0.2232
 4518TP3     H125373   0.464   0.974   2.735 -0.6254 -1.7135 -0.5050
 4518TP3     H225374   0.431   1.015   2.877  0.9203  0.4619 -0.7089
 4519TP3      O25375   0.533   4.179   0.656  0.7221  0.0227  0.6536
 4519TP3     H125376   0.492   4.258   0.692  0.8216  1.3928 -1.9899
 4519TP3     H225377   0.466   4.112   0.666 -0.2025  0.9647  1.0388
 4520TP3      O25378   2.758   3.374   2.233  0.0955 -0.1983  0.6702
 4520TP3     H125379   2.810   3.424   2.170 -0.1094  0.5513  1.0781
 4520TP3     H225380   2.822   3.319   2.279  0.3785 -0.0399  0.4674
 4521TP3      O25381   0.180   0.595   0.769 -0.1793  0.1192 -0.1482
 4521TP3     H125382   0.095   0.638   0.764 -0.7938 -1.1283 -1.3655
 4521TP3     H225383   0.238   0.659   0.809 -1.4394  1.4190 -0.3411
 4522TP3      O25384   2.428   4.961   8.369  0.4131 -0.1992 -0.2739
 4522TP3     H125385   2.449   5.040   8.418  0.9646 -1.1085  0.9987
 4522TP3     H225386   2.340   4.937   8.397  1.2646 -1.5165  1.4266
 4523TP3      O25387   4.281   1.637   2.898 -0.1257  0.6805  0.0112
 4523TP3     H125388   4.232   1.555   2.890  2.2028 -0.7522 -0.7233
 4523TP3     H225389   4.216   1.701   2.927 -1.7440 -1.7312  2.1596
 4524TP3      O25390   4.611   1.170   8.610  0.2484  0.1971 -0.3694
 4524TP3     H125391   4.515   1.169   8.621 -0.1730 -0.3881 -3.2346
 4524TP3     H225392   4.625   1.223   8.532  2.2487 -0.0150 -0.1868
 4525TP3      O25393   4.516   4.425   3.236  0.0837  0.3026  0.3644
 4525TP3     H125394   4.547   4.335   3.247 -1.0962 -0.0038  1.3033
 4525TP3     H225395   4.597   4.477   3.230  0.7975 -0.5396  2.1248
 4526TP3      O25396   0.319   1.430   7.987 -0.0671  0.2536 -0.3180
 4526TP3     H125397   0.311   1.341   7.954 -0.6197 -0.3985  1.5026
 4526TP3     H225398   0.413   1.444   7.997  0.0600  0.1529 -1.2511
 4527TP3      O25399   2.361   3.245   7.839 -0.3418 -0.5970  0.0840
 4527TP3     H125400   2.321   3.246   7.926 -2.8858 -0.0571 -1.0337
 4527TP3     H225401   2.354   3.335   7.808  0.2002 -0.8648 -0.8517
 4528TP3      O25402   5.223   1.141   2.712 -0.3695  0.3099 -0.2658
 4528TP3     H125403   5.298   1.119   2.767 -0.6836 -1.4077 -0.4517
 4528TP3     H225404   5.245   1.225   2.673  2.3903 -1.0122 -1.8511
 4529TP3      O25405   3.143   5.061   9.860 -0.1006  0.1140  0.0724
 4529TP3     H125406   3.174   4.992   9.919  2.6607 -0.0785 -1.4428
 4529TP3     H225407   3.211   5.127   9.862 -1.1734  1.3083 -0.9599
 4530TP3      O25408   0.855   2.161   0.065 -0.4647  0.1707 -0.1591
 4530TP3     H125409   0.818   2.116   0.141  0.6439  1.3038  1.1072
 4530TP3     H225410   0.899   2.091   0.016 -1.7993 -0.6954 -0.1661
 4531TP3      O25411   2.961   1.001   2.636 -0.0255 -0.2681 -0.4081
 4531TP3     H125412   2.872   1.030   2.659 -0.1552 -1.2179  0.3433
 4531TP3     H225413   3.013   1.022   2.713 -0.3434 -2.9407  0.6597
 4532TP3      O25414   4.163   0.041   2.760 -0.5335 -0.2080  0.3254
 4532TP3     H125415   4.067   0.045   2.766 -0.5515 -0.0064 -0.0552
 4532TP3     H225416   4.183  -0.051   2.750 -0.8191 -0.0865 -1.6321
 4533TP3      O25417   4.891   2.570   9.398 -0.1257 -0.7365 -0.1275
 4533TP3     H125418   4.955   2.623   9.445 -1.5055  0.8491  0.0321
 4533TP3     H225419   4.929   2.559   9.310  0.0541  0.8189 -0.2750
 4534TP3      O25420   3.271   3.312   2.593  0.3004 -0.5820  0.4459
 4534TP3     H125421   3.186   3.352   2.575 -0.5037 -2.4021 -0.0251
 4534TP3     H225422   3.287   3.331   2.686 -0.0130  0.8326  0.2237
 4535TP3      O25423   3.528   4.107   9.904  0.0143  0.4977  0.1728
 4535TP3     H125424   3.609   4.058   9.918 -0.8168 -0.7689  0.7492
 4535TP3     H225425   3.489   4.067   9.826 -1.5315 -1.0373  1.6402
 4536TP3      O25426   3.837   1.521   0.739  0.5255 -0.2033  0.0722
 4536TP3     H125427   3.894   1.566   0.678  0.2065  1.5087  0.9724
 4536TP3     H225428   3.881   1.529   0.824 -1.1826  1.6207  0.8947
 4537TP3      O25429   1.394   3.939   2.826  0.0652  0.3675  0.1861
 4537TP3     H125430   1.328   3.986   2.775  1.0846  1.0002 -0.6165
 4537TP3     H225431   1.465   4.003   2.836  1.1441 -0.7283 -0.2087
 4538TP3      O25432   0.875   3.705   1.524 -0.5489  0.0123  0.3249
 4538TP3     H125433   0.789   3.674   1.550 -0.4721 -1.3465 -0.9059
 4538TP3     H225434   0.858   3.779   1.466 -0.9591 -0.8725 -0.7214
 4539TP3      O25435   1.584   4.588   3.075  0.3123 -0.3234  0.0017
 4539TP3     H125436   1.511   4.528   3.065  0.2592 -0.5724  1.6660
 4539TP3     H225437   1.543   4.672   3.097  0.3981  0.3214 -2.0649
 4540TP3      O25438   5.121   4.824   0.780 -0.2022  0.4571 -0.2911
 4540TP3     H125439   5.147   4.877   0.855 -1.2707 -2.1696  2.1471
 4540TP3     H225440   5.203   4.797   0.740  0.4825  0.6072  0.9583
 4541TP3      O25441   4.244   0.722   7.377 -0.2996  0.2699 -0.1753
 4541TP3     H125442   4.303   0.764   7.315 -0.2137  0.0525 -0.2431
 4541TP3     H225443   4.169   0.694   7.324 -0.1905  0.0144 -0.1968
 4542TP3      O25444   3.138   1.876   9.452  0.5917 -0.6822  0.3467
 4542TP3     H125445   3.100   1.865   9.365  1.4582 -0.9346 -0.0092
 4542TP3     H225446   3.079   1.938   9.496  0.6384  0.1490 -0.7250
 4543TP3      O25447   1.221   4.110   7.627 -0.0120 -0.5145  0.5501
 4543TP3     H125448   1.293   4.093   7.566 -0.1715  2.0902 -0.4875
 4543TP3     H225449   1.257   4.172   7.691 -0.7205 -0.8557  1.3053
 4544TP3      O25450   0.737   4.019   8.357 -0.1648 -0.1546 -0.0852
 4544TP3     H125451   0.796   4.094   8.366  0.2633 -0.4257 -0.5642
 4544TP3     H225452   0.689   4.016   8.440  0.2373  0.2916  0.1691
 4545TP3      O25453   2.519   4.194   8.454 -0.1327  0.4624  0.4467
 4545TP3     H125454   2.446   4.133   8.447  0.0143  0.3220  0.0991
 4545TP3     H225455   2.520   4.239   8.369  1.1942 -0.6848 -0.1663
 4546TP3      O25456   4.258   1.187   3.320  0.8306  0.7369  0.1302
 4546TP3     H125457   4.256   1.282   3.308  0.4310  0.8878  1.2502
 4546TP3     H225458   4.351   1.163   3.314  0.9228  1.1807 -0.2387
 4547TP3      O25459   0.986   2.092   9.649 -0.5357 -0.0723  0.0087
 4547TP3     H125460   0.933   2.099   9.570 -0.5691 -0.2797  0.0132
 4547TP3     H225461   0.926   2.058   9.715 -1.6060  3.5397  1.1686
 4548TP3      O25462   4.838   0.658   3.433  1.1191  0.1348  0.0199
 4548TP3     H125463   4.783   0.655   3.512  3.3261 -2.9114  1.6442
 4548TP3     H225464   4.777   0.642   3.361 -0.6942  1.1070  1.2597
 4549TP3      O25465   4.931   5.170  10.301 -0.1514  0.1947  0.6142
 4549TP3     H125466   4.948   5.134  10.388  0.2682  0.8751  0.8213
 4549TP3     H225467   4.952   5.263  10.309 -0.9114  0.4350  0.0080
 4550TP3      O25468   2.506   3.484   3.247 -0.2211  0.3976  0.0450
 4550TP3     H125469   2.443   3.429   3.295 -0.1680  1.0512  0.8842
 4550TP3     H225470   2.591   3.445   3.267 -0.4049 -2.3927 -3.5031
 4551TP3      O25471   0.741   1.209   9.168 -0.4960  0.3633 -0.0281
 4551TP3     H125472   0.819   1.154   9.178  0.0164  0.8964 -0.9457
 4551TP3     H225473   0.727   1.246   9.255 -0.8367 -1.1764  0.6043
 4552TP3      O25474   4.341   2.417   8.766 -0.0746 -0.3742  0.5527
 4552TP3     H125475   4.399   2.400   8.841 -0.0063 -1.2687  0.3131
 4552TP3     H225476   4.359   2.345   8.706 -0.1061  0.3581 -0.3503
 4553TP3      O25477   2.939   1.629   3.632  0.5400 -0.0413  0.2053
 4553TP3     H125478   3.002   1.609   3.563  0.7912 -0.0936  0.4482
 4553TP3     H225479   2.985   1.610   3.713  0.1713 -0.1993  0.3849
 4554TP3      O25480   1.366   3.513   8.734 -0.2055 -0.1785 -0.2453
 4554TP3     H125481   1.397   3.597   8.768  0.2730 -0.7590  0.8057
 4554TP3     H225482   1.399   3.510   8.644 -0.6538  0.9671 -0.4621
 4555TP3      O25483   3.877   4.726   9.107 -0.5224 -0.0768 -0.3967
 4555TP3     H125484   3.808   4.660   9.118 -0.0855 -0.7255 -1.4278
 4555TP3     H225485   3.953   4.677   9.076  0.1521  0.7602 -0.1214
 4556TP3      O25486   4.232   2.057   2.729  0.1739 -0.2589 -0.1872
 4556TP3     H125487   4.226   2.121   2.800 -1.2211  0.1311 -0.6117
 4556TP3     H225488   4.141   2.041   2.705  0.6127  0.8406 -2.9598
 4557TP3      O25489   0.464   0.418   8.606  0.2010 -0.3763  0.1075
 4557TP3     H125490   0.458   0.506   8.569 -2.4438 -0.8121 -0.7469
 4557TP3     H225491   0.554   0.391   8.590  0.5295  1.4165 -1.3899
 4558TP3      O25492   0.924   3.976  10.301  0.6478 -0.1518 -0.2191
 4558TP3     H125493   0.868   3.941  10.370  0.6950  0.2044  0.0079
 4558TP3     H225494   0.914   3.915  10.228  0.1633 -0.2303 -0.0928
 4559TP3      O25495   1.218   0.842   0.691 -0.7482 -0.5469 -0.1858
 4559TP3     H125496   1.284   0.807   0.751 -0.1322 -0.9639 -1.0996
 4559TP3     H225497   1.135   0.814   0.729 -0.4405  0.2622  1.1599
 4560TP3      O25498   3.908   0.978  10.064 -0.0141 -0.4648 -0.7649
 4560TP3     H125499   3.871   1.015   9.983 -0.9448  1.2272  0.3674
 4560TP3     H225500   3.833   0.975  10.124  0.3935 -2.8068 -0.2911
 4561TP3      O25501   4.911   0.578   2.563  0.0255  0.0692  0.1094
 4561TP3     H125502   4.917   0.599   2.656 -0.2373 -0.5835  0.2811
 4561TP3     H225503   4.856   0.647   2.526 -1.1999 -0.5381  0.7397
 4562TP3      O25504   5.004   5.049   8.725  0.1180 -0.7352 -0.3965
 4562TP3     H125505   5.017   5.048   8.631  0.2952  3.4533 -0.5948
 4562TP3     H225506   4.916   5.085   8.738  0.9322  0.9623  0.9325
 4563TP3      O25507   1.187   3.388   1.315  0.1245 -0.5508 -0.3649
 4563TP3     H125508   1.132   3.417   1.388  1.3675 -0.1141  0.4331
 4563TP3     H225509   1.219   3.302   1.341  0.5927 -0.3841 -0.3820
 4564TP3      O25510   0.965   2.799   8.710 -0.4252 -0.0459  0.6157
 4564TP3     H125511   0.934   2.840   8.790 -0.9181  1.0833 -0.1210
 4564TP3     H225512   1.050   2.839   8.693  0.1187 -0.9959  1.0864
 4565TP3      O25513   0.994   1.677   6.789  0.5673 -0.2014  0.4605
 4565TP3     H125514   0.982   1.596   6.739  1.6332  1.3516 -2.5525
 4565TP3     H225515   0.905   1.712   6.801  0.2282 -1.0417  0.4504
 4566TP3      O25516   4.736   1.132  10.367 -0.5313  0.4712 -0.3705
 4566TP3     H125517   4.761   1.216  10.403 -1.2392  1.2874 -1.7011
 4566TP3     H225518   4.650   1.114  10.404 -0.7211  0.7183 -0.6856
 4567TP3      O25519   5.034   3.433  10.256  0.0341 -0.4833 -0.6047
 4567TP3     H125520   4.952   3.480  10.272  0.3259 -0.4267  0.7669
 4567TP3     H225521   5.009   3.341  10.258 -0.1377 -0.4529 -1.0710
 4568TP3      O25522   2.481   2.634   3.239  0.2792 -0.2885  0.5343
 4568TP3     H125523   2.498   2.562   3.178 -0.0581 -0.1310  0.2462
 4568TP3     H225524   2.559   2.638   3.294  1.1324  0.3483 -0.6630
 4569TP3      O25525   2.392   4.822   9.145  0.1328 -0.3433 -1.0106
 4569TP3     H125526   2.397   4.906   9.100  2.6876 -0.0356 -0.2815
 4569TP3     H225527   2.368   4.845   9.235 -1.4254 -0.6519 -1.3107
 4570TP3      O25528   0.629   3.702   9.953  0.0724  0.6408 -0.8003
 4570TP3     H125529   0.559   3.709   9.887  0.1992  1.5654 -0.8486
 4570TP3     H225530   0.599   3.755  10.026  0.5449  0.7113 -0.6536
 4571TP3      O25531   3.232   1.484   1.843 -0.0670 -0.0815 -0.5203
 4571TP3     H125532   3.215   1.399   1.803 -0.8619  0.5512 -1.5797
 4571TP3     H225533   3.243   1.465   1.936 -2.0643 -1.1380 -0.4482
 4572TP3      O25534   4.973   5.171   7.968  0.1464 -0.6348 -0.4968
 4572TP3     H125535   4.998   5.248   7.917  0.5460  0.7987  1.7631
 4572TP3     H225536   4.930   5.206   8.046  1.0320 -2.6632  0.9839
 4573TP3      O25537   0.574   3.897   2.805  0.1284 -0.2231  0.2186
 4573TP3     H125538   0.500   3.940   2.762 -0.0236  0.8031  1.4248
 4573TP3     H225539   0.613   3.842   2.737 -1.3008 -0.2331 -0.6369
 4574TP3      O25540   2.453   3.878   2.421  0.0907  0.3052 -0.5667
 4574TP3     H125541   2.547   3.876   2.440 -0.0799  1.0218  0.4515
 4574TP3     H225542   2.423   3.789   2.439  0.3685  0.3810  0.3196
 4575TP3      O25543   1.725   0.482   7.757  0.5255  0.1176 -0.6369
 4575TP3     H125544   1.762   0.416   7.699  0.4607  1.3298 -2.1060
 4575TP3     H225545   1.632   0.481   7.738  0.3032 -0.3564  0.4007
 4576TP3      O25546   4.958   3.169   7.808 -0.1568  0.1552 -0.4767
 4576TP3     H125547   4.922   3.127   7.885  2.2866  0.9583  1.2206
 4576TP3     H225548   4.888   3.228   7.778 -0.8976  0.4200  1.6188
 4577TP3      O25549   1.595   1.884   7.946  0.0462 -0.2499 -0.6548
 4577TP3     H125550   1.545   1.917   7.871 -0.3037  0.6042 -0.0679
 4577TP3     H225551   1.682   1.923   7.937 -0.3425  0.8092 -0.0068
 4578TP3      O25552   5.226   0.446   0.301 -0.2372  0.3183  0.5873
 4578TP3     H125553   5.310   0.423   0.261 -0.1671  0.4115  0.6816
 4578TP3     H225554   5.228   0.404   0.387 -0.4347  0.0227  0.4492
 4579TP3      O25555   1.652   3.685   1.021  0.4148 -0.3607 -0.2666
 4579TP3     H125556   1.669   3.641   0.938  3.1946 -3.2032  1.5980
 4579TP3     H225557   1.558   3.671   1.036 -0.2032  0.4185 -2.9277
 4580TP3      O25558   3.842   0.368   9.335  0.0521 -0.2611  0.4698
 4580TP3     H125559   3.759   0.325   9.312  0.0290 -0.1867  0.4127
 4580TP3     H225560   3.898   0.297   9.366  0.4195 -0.5304 -0.7257
 4581TP3      O25561   3.320   1.577   0.410  0.4342 -0.3334  0.3008
 4581TP3     H125562   3.320   1.483   0.392  1.5666 -0.3142  0.0911
 4581TP3     H225563   3.413   1.601   0.410  0.2858  0.4389  2.1783
 4582TP3      O25564   1.186   0.114   0.798 -0.0400  0.1870  0.1651
 4582TP3     H125565   1.200   0.022   0.817  0.0489  0.3683  1.0441
 4582TP3     H225566   1.256   0.137   0.737  0.2987 -0.1804  0.4122
 4583TP3      O25567   0.065   0.861   0.506  0.2666  0.1974  0.7350
 4583TP3     H125568   0.056   0.814   0.423  1.8872  0.0828  0.6095
 4583TP3     H225569  -0.013   0.836   0.556 -0.7942  0.3584 -0.7742
 4584TP3      O25570   5.040   1.317   8.686  0.7122  0.3226  0.6864
 4584TP3     H125571   4.996   1.295   8.769 -0.4089 -0.6466 -0.1300
 4584TP3     H225572   4.974   1.365   8.636  2.2154  3.2240  1.3117
 4585TP3      O25573   4.309   3.722   1.340  0.2739  0.2004 -0.3064
 4585TP3     H125574   4.237   3.660   1.342  0.6211 -0.1932  1.2963
 4585TP3     H225575   4.370   3.686   1.275 -0.0661 -0.5121 -0.2395
 4586TP3      O25576   2.733   4.405   7.773  0.2619  0.1309 -0.1268
 4586TP3     H125577   2.812   4.402   7.719  0.4459  1.5819  0.0168
 4586TP3     H225578   2.684   4.327   7.748  2.0824 -1.2494  0.3295
 4587TP3      O25579   3.366   2.445   0.184  0.1568  0.3466 -0.2918
 4587TP3     H125580   3.290   2.444   0.242  0.2757  0.4091 -0.1358
 4587TP3     H225581   3.367   2.533   0.148 -0.7488 -0.0944 -1.4867
 4588TP3      O25582   3.400   4.561   1.372  0.3287 -0.0608  0.4249
 4588TP3     H125583   3.416   4.467   1.378  1.1728 -0.0182 -0.8664
 4588TP3     H225584   3.485   4.599   1.351 -0.0787  0.9625  0.5626
 4589TP3      O25585   1.899   1.400   0.937  0.3395 -0.2770 -0.6752
 4589TP3     H125586   1.875   1.384   0.845  2.1505  0.1742 -1.2690
 4589TP3     H225587   1.912   1.313   0.974 -0.1900 -0.4551 -0.8947
 4590TP3      O25588   0.715   0.814   0.032  0.6668  0.3483  0.0720
 4590TP3     H125589   0.777   0.792  -0.037 -0.8256 -0.7659 -0.9562
 4590TP3     H225590   0.769   0.856   0.100  2.6031 -0.9292 -0.6030
 4591TP3      O25591   4.561   0.365   3.376  0.5618  0.2362 -0.2497
 4591TP3     H125592   4.520   0.448   3.354  0.9709  0.6555  0.5282
 4591TP3     H225593   4.625   0.387   3.444 -0.1888 -0.8878  0.8835
 4592TP3      O25594   2.370   3.721   7.766 -0.1371 -0.1102 -0.0357
 4592TP3     H125595   2.323   3.640   7.787  0.4082 -0.4137  0.0441
 4592TP3     H225596   2.435   3.695   7.701  0.0505  0.2646 -0.0028
 4593TP3      O25597   1.187   4.878   0.255  0.3539 -0.3392 -0.0431
 4593TP3     H125598   1.234   4.953   0.219  0.4309 -0.5590 -0.3992
 4593TP3     H225599   1.119   4.917   0.311 -0.5763  0.0458 -1.3980
 4594TP3      O25600   0.246   1.720   0.410 -0.3967 -0.2280  0.5428
 4594TP3     H125601   0.269   1.803   0.368  1.3938 -0.1258  1.6041
 4594TP3     H225602   0.185   1.744   0.479 -0.7439  0.0541  0.1383
 4595TP3      O25603   2.445   3.829   8.618  0.3312 -0.3612 -0.3508
 4595TP3     H125604   2.426   3.920   8.594  0.5570  1.0539  4.0000
 4595TP3     H225605   2.360   3.791   8.637  0.4384 -0.1048  0.6659
 4596TP3      O25606   1.027   0.772   9.457 -0.2549  0.1498 -0.0311
 4596TP3     H125607   1.007   0.865   9.464 -0.0643  0.2358 -0.5453
 4596TP3     H225608   1.020   0.738   9.546 -1.4938  0.4142 -0.0070
 4597TP3      O25609   2.327   4.568   8.192  0.0910 -0.1037 -0.2086
 4597TP3     H125610   2.367   4.596   8.274  1.5513 -0.3102 -0.8211
 4597TP3     H225611   2.369   4.621   8.125 -0.1161 -0.8528 -0.9533
 4598TP3      O25612   5.141   4.816   9.121  0.2698 -0.2604  0.1886
 4598TP3     H125613   5.116   4.757   9.050  1.3323  0.0546 -0.4776
 4598TP3     H225614   5.166   4.897   9.076 -0.9472  0.6452  1.0638
 4599TP3      O25615   3.952   2.712   7.429 -0.4204 -0.2449 -0.0537
 4599TP3     H125616   3.917   2.647   7.367  1.6579 -1.7408  0.2531
 4599TP3     H225617   4.046   2.712   7.413 -0.0744  0.7939  1.7879
 4600TP3      O25618   0.520   0.912   9.686  0.7263  0.2010  0.0176
 4600TP3     H125619   0.505   0.834   9.739 -0.6832  0.5488  0.1698
 4600TP3     H225620   0.523   0.984   9.749 -1.7877  0.7259 -0.3602
 4601TP3      O25621   3.580   5.092   0.642 -0.2693  0.2766 -0.6529
 4601TP3     H125622   3.487   5.096   0.619 -0.1737  0.1788 -1.0627
 4601TP3     H225623   3.623   5.057   0.563 -0.0533 -0.9187 -0.0354
 4602TP3      O25624   4.370   2.699   9.663  0.1848 -0.0753 -0.3560
 4602TP3     H125625   4.360   2.749   9.744 -2.2945 -1.2801  0.1945
 4602TP3     H225626   4.387   2.609   9.691  0.0492 -0.3761 -1.1813
 4603TP3      O25627   4.227   4.873  10.395  0.2858 -0.7305 -0.4150
 4603TP3     H125628   4.312   4.869  10.351  1.4666 -1.1418  1.7784
 4603TP3     H225629   4.248   4.890  10.487 -2.1260  1.4193 -0.1523
 4604TP3      O25630   1.138   0.370   9.584  0.1431  0.6002  0.3578
 4604TP3     H125631   1.194   0.352   9.508 -0.5186 -1.5766  0.3220
 4604TP3     H225632   1.198   0.368   9.659  0.3073 -0.6181  0.2113
 4605TP3      O25633   4.565   0.301   9.595 -0.2095 -0.7047 -0.8255
 4605TP3     H125634   4.637   0.273   9.538  0.5392  0.6128 -0.5582
 4605TP3     H225635   4.593   0.276   9.682  0.5095  0.8794 -0.5716
 4606TP3      O25636   0.770   3.360   3.064  0.0598  0.3104 -0.0492
 4606TP3     H125637   0.685   3.366   3.110 -0.6962 -0.5880 -1.2883
 4606TP3     H225638   0.828   3.317   3.127 -0.1346  1.6613  1.1306
 4607TP3      O25639   1.614   3.047   2.438 -0.1257 -0.1984  0.0519
 4607TP3     H125640   1.639   2.968   2.485 -1.1162 -0.2183  0.5544
 4607TP3     H225641   1.690   3.067   2.383 -0.4587 -2.3902 -1.2981
 4608TP3      O25642   1.345   3.245   3.597 -0.7110 -1.0023 -0.1260
 4608TP3     H125643   1.337   3.310   3.667 -1.6261 -1.6542  0.3926
 4608TP3     H225644   1.334   3.296   3.517  3.7942  0.3726 -0.1066
 4609TP3      O25645   4.460   4.167   2.303  0.2032  0.1253 -0.4026
 4609TP3     H125646   4.484   4.229   2.373 -1.6881 -0.4071  0.7766
 4609TP3     H225647   4.376   4.199   2.270  0.0795 -0.8033 -1.0229
 4610TP3      O25648   2.914   4.982   8.707  0.2518 -0.2080  0.4520
 4610TP3     H125649   2.981   4.957   8.644 -0.1295 -0.4436  0.1393
 4610TP3     H225650   2.898   5.075   8.689  0.4553 -0.1648  0.4922
 4611TP3      O25651   1.103   4.659   0.627  0.5292  0.1651  0.2197
 4611TP3     H125652   1.042   4.665   0.701 -0.0373 -1.6107 -0.0550
 4611TP3     H225653   1.181   4.617   0.664  0.5225 -0.0589 -0.0155
 4612TP3      O25654   0.648   4.822   7.980  0.0672 -0.3099  0.2058
 4612TP3     H125655   0.589   4.868   8.040  0.5582 -0.8730  1.1469
 4612TP3     H225656   0.660   4.736   8.019  1.7628 -0.1115  0.2258
 4613TP3      O25657   2.615   4.735   1.563 -0.9298  0.2182 -0.3937
 4613TP3     H125658   2.691   4.723   1.506 -1.4288  1.7588 -1.4678
 4613TP3     H225659   2.647   4.714   1.650 -0.0617 -1.9601 -1.1626
 4614TP3      O25660   4.296   1.267   8.429  0.6912  0.1934  0.8190
 4614TP3     H125661   4.334   1.243   8.344  0.3129 -2.0573  1.2320
 4614TP3     H225662   4.207   1.294   8.408  0.9816  0.8538  0.3875
 4615TP3      O25663   4.507   1.011   7.981  0.1838 -0.1669  0.0655
 4615TP3     H125664   4.569   1.040   7.914  0.5582  0.8478  0.8273
 4615TP3     H225665   4.464   0.935   7.942 -0.0187  0.7360 -1.5451
 4616TP3      O25666   1.768   4.579   2.271 -0.7935  0.2835 -0.3882
 4616TP3     H125667   1.760   4.624   2.356 -1.5846 -1.9733  0.8120
 4616TP3     H225668   1.704   4.623   2.215 -0.1704  1.9033  0.0914
 4617TP3      O25669   2.482   1.280   9.598 -0.2697  0.0526 -0.4022
 4617TP3     H125670   2.400   1.299   9.644 -0.2012  0.1221 -0.3096
 4617TP3     H225671   2.471   1.321   9.512 -0.2132  0.3084 -0.2847
 4618TP3      O25672   0.870   3.702   3.089  0.7449 -0.3049 -0.6503
 4618TP3     H125673   0.871   3.652   3.007 -0.8452  0.2202 -1.0390
 4618TP3     H225674   0.858   3.635   3.157  2.0850 -0.7466 -0.8306
 4619TP3      O25675   0.192   1.652   3.970  0.2946  0.1826 -0.3801
 4619TP3     H125676   0.150   1.738   3.981  0.1720  0.0171  0.5568
 4619TP3     H225677   0.284   1.668   3.992  0.6349  0.4353 -1.9236
 4620TP3      O25678   1.880   1.336   9.587  0.0769  0.5559 -0.4417
 4620TP3     H125679   1.816   1.374   9.527  0.5557 -0.0594 -1.3526
 4620TP3     H225680   1.871   1.388   9.667 -1.2369  0.7636 -0.7112
 4621TP3      O25681   2.053   0.429   2.051  0.3192  0.0771 -0.3914
 4621TP3     H125682   2.113   0.412   2.124 -0.5339 -1.6411 -0.0474
 4621TP3     H225683   2.093   0.384   1.976 -0.5303 -1.1159 -0.1495
 4622TP3      O25684   3.179   0.184   3.044 -0.2717 -0.1445 -0.2035
 4622TP3     H125685   3.243   0.178   3.115  1.0991 -1.0062 -1.4388
 4622TP3     H225686   3.219   0.243   2.981 -0.1346 -1.5922 -1.5155
 4623TP3      O25687   4.540   3.905   2.227 -0.0527 -0.5870 -0.3993
 4623TP3     H125688   4.586   3.902   2.144 -2.6175 -2.8269 -1.9074
 4623TP3     H225689   4.520   3.997   2.241 -0.7063 -0.2568 -3.0246
 4624TP3      O25690   0.138   4.682   0.138 -0.3035  0.3977  0.4566
 4624TP3     H125691   0.201   4.617   0.107 -1.3249 -1.2503  1.6442
 4624TP3     H225692   0.146   4.754   0.077  0.0598 -1.3283 -1.6428
 4625TP3      O25693   3.863   3.383   0.144 -0.6320 -0.7003  0.3111
 4625TP3     H125694   3.892   3.302   0.185  0.1126  0.0527  1.3130
 4625TP3     H225695   3.942   3.438   0.139 -1.3139  0.3561  0.6318
 4626TP3      O25696   4.541   1.465   0.018  0.1940 -0.5066  0.1559
 4626TP3     H125697   4.578   1.417   0.092  0.4930 -1.2454 -0.4601
 4626TP3     H225698   4.525   1.553   0.052  0.7942 -0.6958  0.9545
 4627TP3      O25699   3.732   1.670   1.413 -0.1606  0.1894 -0.1349
 4627TP3     H125700   3.691   1.602   1.360  1.8535 -1.7573  0.6284
 4627TP3     H225701   3.707   1.649   1.503  0.0650  0.7841  0.0765
 4628TP3      O25702   4.136   4.227   1.231  0.0906 -1.0099  0.0162
 4628TP3     H125703   4.168   4.145   1.270  0.3014 -0.9324  0.0052
 4628TP3     H225704   4.058   4.248   1.282  0.1849 -1.0782  0.1910
 4629TP3      O25705   1.547   0.465   3.018 -0.5298 -0.3851 -0.5072
 4629TP3     H125706   1.626   0.471   3.070  0.5889 -1.7912 -1.9294
 4629TP3     H225707   1.553   0.538   2.956 -0.6174 -0.1930 -0.2922
 4630TP3      O25708   2.837   3.384   1.678 -0.1593  0.2934  0.3047
 4630TP3     H125709   2.886   3.315   1.723 -0.5403  0.4499  0.9823
 4630TP3     H225710   2.781   3.338   1.616  0.4789  0.0812 -0.1275
 4631TP3      O25711   0.923   5.128   9.762  0.3667  0.0113 -0.1162
 4631TP3     H125712   0.941   5.035   9.747 -0.4323 -0.5882  2.3006
 4631TP3     H225713   0.978   5.152   9.836  0.6346  1.5362 -0.7544
 4632TP3      O25714   4.735   0.018   2.547  0.1519 -0.0239 -0.2415
 4632TP3     H125715   4.701   0.096   2.589 -2.1197  0.1464 -2.2272
 4632TP3     H225716   4.829   0.019   2.568 -0.5073  0.8840  3.2989
 4633TP3      O25717   1.862   2.010  10.354 -0.6564  0.0684  0.2220
 4633TP3     H125718   1.799   2.078  10.377 -0.1434  0.3749  0.7430
 4633TP3     H225719   1.942   2.034  10.400 -0.2499 -0.4958 -0.1667
 4634TP3      O25720   0.603   4.625   1.590 -0.1704 -0.1324 -0.1196
 4634TP3     H125721   0.566   4.695   1.538  1.4314 -0.4073 -1.7384
 4634TP3     H225722   0.638   4.669   1.668  0.8292  0.9236 -1.1135
 4635TP3      O25723   2.640   1.786   0.854  0.0687  0.0550  0.5015
 4635TP3     H125724   2.702   1.805   0.924 -0.1318 -3.4259  1.8226
 4635TP3     H225725   2.641   1.691   0.847 -1.0678  0.1766 -3.2676
 4636TP3      O25726   3.495   1.960   0.894  0.6892  0.8905  0.0359
 4636TP3     H125727   3.563   1.938   0.830  2.0951 -0.9403  1.9874
 4636TP3     H225728   3.417   1.915   0.862  1.3103  0.1612 -0.5280
 4637TP3      O25729   0.351   0.396   7.985  0.3500  0.1132  0.4182
 4637TP3     H125730   0.317   0.467   8.039  2.7007 -0.1122  2.3626
 4637TP3     H225731   0.383   0.332   8.047 -1.2256 -2.5293 -1.2782
 4638TP3      O25732   4.031   3.500   1.942  0.2141  0.2891 -0.5203
 4638TP3     H125733   4.110   3.456   1.911 -0.5996 -1.7031  0.0908
 4638TP3     H225734   3.974   3.429   1.973 -0.4082  1.8783  2.2990
 4639TP3      O25735   2.933   3.418   1.979  0.3851  0.2788  0.3653
 4639TP3     H125736   2.939   3.355   1.907  0.5025 -0.1737  0.7693
 4639TP3     H225737   2.898   3.497   1.938 -1.9309 -0.7252  0.2743
 4640TP3      O25738   2.540   5.135   2.634  0.0246  0.3978  0.3703
 4640TP3     H125739   2.521   5.042   2.639  0.3132  0.2648 -0.8815
 4640TP3     H225740   2.619   5.146   2.687  2.6170 -0.8617 -2.8838
 4641TP3      O25741   4.925   4.373   7.533 -0.1347  0.4277  0.0318
 4641TP3     H125742   4.846   4.360   7.586 -0.1287  1.2585  0.2568
 4641TP3     H225743   4.908   4.454   7.485 -0.1579 -0.3338 -1.2964
 4642TP3      O25744   4.426   4.667   0.091 -0.1711  0.1206  0.5812
 4642TP3     H125745   4.421   4.732   0.161 -0.1871 -0.8936  1.5466
 4642TP3     H225746   4.469   4.591   0.131 -1.1243 -0.8624 -0.1910
 4643TP3      O25747   4.686   3.549  10.082 -0.5163  0.3715 -0.0591
 4643TP3     H125748   4.664   3.637  10.049 -4.0263 -0.4260 -0.2153
 4643TP3     H225749   4.643   3.490  10.021 -1.1120 -1.3526  1.9319
 4644TP3      O25750   4.801   2.981   9.553  0.4826  0.1931 -0.1694
 4644TP3     H125751   4.797   3.039   9.628 -0.2221  0.0661 -0.1103
 4644TP3     H225752   4.747   2.906   9.577  0.0310  0.2735 -0.9042
 4645TP3      O25753   3.281   0.093   9.310  0.5959  0.3164  0.2069
 4645TP3     H125754   3.204   0.119   9.259  0.2106 -0.5409  0.3310
 4645TP3     H225755   3.316   0.175   9.344  0.8653  0.9165 -1.4185
 4646TP3      O25756   3.471   4.020   1.570 -0.4503  0.0306 -0.7335
 4646TP3     H125757   3.385   4.062   1.569 -0.8439 -0.7256 -0.2021
 4646TP3     H225758   3.469   3.960   1.495 -0.4641 -0.1242 -0.6105
 4647TP3      O25759   4.357   4.084   2.016  0.5354  0.1946  0.2038
 4647TP3     H125760   4.333   4.013   2.076  0.0924  0.0764 -0.1088
 4647TP3     H225761   4.346   4.047   1.929  0.5011  0.5854  0.0398
 4648TP3      O25762   3.771   2.335   1.938 -0.3910  0.0153 -0.6488
 4648TP3     H125763   3.851   2.306   1.894  0.9508  3.1182 -0.5169
 4648TP3     H225764   3.773   2.293   2.024  1.9563  1.1452 -0.0757
 4649TP3      O25765   2.143   4.199   8.020  0.7096  0.1162  0.8681
 4649TP3     H125766   2.140   4.179   8.114  1.1022 -2.3079  0.4269
 4649TP3     H225767   2.058   4.168   7.987  0.8996  0.2086  0.2902
 4650TP3      O25768   4.104   2.661   2.045 -0.5033 -0.0924  0.1246
 4650TP3     H125769   4.013   2.632   2.035 -0.7480  0.6954  0.0295
 4650TP3     H225770   4.109   2.742   1.995  0.3462 -0.3062 -0.1524
 4651TP3      O25771   2.927   0.225   2.610 -0.4398 -0.2795 -0.7711
 4651TP3     H125772   2.918   0.308   2.657 -0.3671  0.2007 -1.5918
 4651TP3     H225773   2.982   0.172   2.667  1.3443  1.0083 -1.2034
 4652TP3      O25774   2.088   2.833   1.306 -0.4192 -0.2465  0.2640
 4652TP3     H125775   2.090   2.835   1.402 -0.0161  1.2341  0.2545
 4652TP3     H225776   2.179   2.822   1.280 -0.2800  1.2093  0.0635
 4653TP3      O25777   3.016   2.720   7.790 -0.1893  0.1755 -0.1516
 4653TP3     H125778   3.054   2.808   7.793 -1.6722  1.0291 -3.0289
 4653TP3     H225779   2.922   2.735   7.782 -0.4344 -1.6679 -1.0962
 4654TP3      O25780   3.322   2.216   0.576 -0.0299 -0.2133 -0.4658
 4654TP3     H125781   3.271   2.142   0.542 -0.9710  0.0335  0.3680
 4654TP3     H225782   3.412   2.197   0.548 -0.1631 -1.9280  0.1501
 4655TP3      O25783   1.061   1.394   9.343 -0.1363 -0.0085  0.4438
 4655TP3     H125784   1.069   1.311   9.390 -0.7596  0.9207  2.2916
 4655TP3     H225785   1.047   1.368   9.252  2.1814 -1.8669  0.5099
 4656TP3      O25786   4.022   3.041   3.377  0.0719 -0.3418  0.3541
 4656TP3     H125787   4.095   3.101   3.386 -1.0832  1.7838 -2.6604
 4656TP3     H225788   3.947   3.089   3.412 -0.9267  0.3119 -2.3829
 4657TP3      O25789   1.682   5.082   2.063  0.3519 -0.3472 -0.3098
 4657TP3     H125790   1.679   5.059   1.970  3.1073  2.6144 -1.3369
 4657TP3     H225791   1.606   5.138   2.077  0.3739 -0.1227 -1.0468
 4658TP3      O25792   3.123   4.794   3.107  0.5188  0.2252 -0.1694
 4658TP3     H125793   3.200   4.794   3.049 -0.1511  1.9813 -1.1270
 4658TP3     H225794   3.050   4.772   3.049  0.1988 -0.7613  0.5979
 4659TP3      O25795   0.323   4.977   2.769 -0.8928 -0.3810  0.3595
 4659TP3     H125796   0.333   4.923   2.848 -0.8058 -0.3406  0.3761
 4659TP3     H225797   0.371   4.930   2.701 -1.0571 -0.4696  0.3037
 4660TP3      O25798   0.541   1.527   1.147 -0.5198  0.0915 -0.3706
 4660TP3     H125799   0.603   1.455   1.134 -1.8830 -1.2548  0.3024
 4660TP3     H225800   0.591   1.594   1.195 -0.0186 -1.6910  1.7457
 4661TP3      O25801   1.615   4.575  10.327 -0.3200 -0.2392  0.4130
 4661TP3     H125802   1.670   4.567  10.405 -0.3743 -0.2194  0.4533
 4661TP3     H225803   1.530   4.541  10.354 -0.3840 -0.0836  0.4113
 4662TP3      O25804   0.894   5.057  10.335 -0.8517  0.3006 -0.3932
 4662TP3     H125805   0.799   5.070  10.337 -0.7383  1.6655 -1.8302
 4662TP3     H225806   0.925   5.091  10.419 -1.6532 -0.5578  0.2708
 4663TP3      O25807   0.761   3.998   7.487  0.0043  0.1115 -0.3018
 4663TP3     H125808   0.759   4.073   7.427 -1.8975 -0.2920 -0.8267
 4663TP3     H225809   0.827   4.021   7.552  0.1160  1.8309 -0.9625
 4664TP3      O25810   2.077   2.362   1.328  0.7541 -0.6888  0.7206
 4664TP3     H125811   2.046   2.453   1.335 -0.3762 -1.1641  3.4164
 4664TP3     H225812   2.038   2.329   1.248 -0.6125  0.5997  0.8090
 4665TP3      O25813   0.914   2.056   3.091 -0.6510 -0.0231 -0.4452
 4665TP3     H125814   0.920   2.062   3.186 -1.6525 -1.3583 -0.2758
 4665TP3     H225815   0.958   1.974   3.069  2.5425  1.8111 -1.5076
 4666TP3      O25816   0.527   0.206   0.253  0.1571  0.3617  0.8889
 4666TP3     H125817   0.510   0.271   0.322 -0.2546 -0.9134  2.0377
 4666TP3     H225818   0.620   0.186   0.261  0.5364  1.5741 -0.1903
 4667TP3      O25819   5.048   1.636   1.769 -0.3366 -0.1246  0.3332
 4667TP3     H125820   4.980   1.700   1.751  0.9718  1.1157 -0.4296
 4667TP3     H225821   5.031   1.564   1.708 -0.8645  0.2561  0.0303
 4668TP3      O25822   0.998   4.821   8.736 -0.2232 -0.1769 -0.0967
 4668TP3     H125823   0.927   4.781   8.787  0.9095 -0.6457  1.1547
 4668TP3     H225824   1.019   4.901   8.784 -0.2321  0.2191 -0.7483
 4669TP3      O25825   0.775   2.845   8.505 -0.1262 -0.5509  0.1268
 4669TP3     H125826   0.857   2.831   8.552  0.0693 -2.3605 -0.6578
 4669TP3     H225827   0.785   2.930   8.462  0.5649  0.1065  1.5265
 4670TP3      O25828   0.043   2.524   8.034  0.2908  0.6078  0.8777
 4670TP3     H125829  -0.003   2.569   7.963 -1.3634  0.4610  1.8110
 4670TP3     H225830  -0.017   2.529   8.108  0.7328 -1.7864  1.4559
 4671TP3      O25831   5.056   4.740  10.280 -0.5056  0.3942  0.0633
 4671TP3     H125832   5.092   4.803  10.218 -1.3585 -0.0716 -0.9426
 4671TP3     H225833   5.010   4.676  10.225  0.1653 -1.0032  1.0545
 4672TP3      O25834   4.615   3.179   9.096 -0.2845 -0.1009  0.2192
 4672TP3     H125835   4.665   3.175   9.177  0.6313 -1.2063 -0.3708
 4672TP3     H225836   4.605   3.273   9.078  0.5871  0.1416  0.9483
 4673TP3      O25837   1.113   2.313   2.430  0.2354 -0.0512 -0.4148
 4673TP3     H125838   1.094   2.244   2.494 -0.4160  0.8152  0.3637
 4673TP3     H225839   1.058   2.386   2.458  0.1725  0.4559 -1.7981
 4674TP3      O25840   1.544   4.485   0.309 -0.4616 -0.0943  0.0047
 4674TP3     H125841   1.480   4.555   0.323 -0.4779 -0.2260  0.6109
 4674TP3     H225842   1.491   4.406   0.297 -0.4547  0.0455 -1.0312
 4675TP3      O25843   3.122   0.430   2.901 -0.1400  0.1099 -1.0531
 4675TP3     H125844   3.175   0.445   2.822 -0.0056 -2.9645 -1.6481
 4675TP3     H225845   3.184   0.441   2.973  0.3689  0.3247 -1.5111
 4676TP3      O25846   1.305   0.311   2.634 -0.2799 -0.7103 -0.3248
 4676TP3     H125847   1.256   0.286   2.555  1.4506 -2.7570 -0.8245
 4676TP3     H225848   1.382   0.357   2.600  1.2067 -2.8538  0.0266
 4677TP3      O25849   1.245   1.794   0.192  0.3674  0.1985  0.1323
 4677TP3     H125850   1.251   1.760   0.103 -1.3125 -1.7173  0.6424
 4677TP3     H225851   1.173   1.856   0.189 -1.4723 -1.7798  0.5667
 4678TP3      O25852   4.421   4.130   9.401  0.1437  0.0157  0.3655
 4678TP3     H125853   4.399   4.216   9.366  1.1671  0.6076  1.1162
 4678TP3     H225854   4.486   4.094   9.340 -2.0401 -1.3139 -1.3073
 4679TP3      O25855   2.043   5.004   0.451  0.3351 -0.0802 -0.0749
 4679TP3     H125856   2.020   5.084   0.499 -0.3924  0.1984 -0.8675
 4679TP3     H225857   1.959   4.961   0.435  0.5963 -0.3427 -0.7881
 4680TP3      O25858   2.095   4.107   0.735  0.3373 -0.2614  0.4110
 4680TP3     H125859   2.067   4.094   0.826 -0.0283  2.4529  0.7833
 4680TP3     H225860   2.043   4.182   0.705  3.0179  1.2142 -0.8483
 4681TP3      O25861   1.755   3.415   3.058 -0.1917 -0.0795  0.0083
 4681TP3     H125862   1.816   3.364   3.111  0.6607  0.9578  0.0520
 4681TP3     H225863   1.671   3.404   3.101  0.4839  0.7470  1.6059
 4682TP3      O25864   4.007   0.035   1.954 -0.5433 -0.2433 -1.2168
 4682TP3     H125865   3.942   0.041   1.884  1.2195  1.4461 -2.8331
 4682TP3     H225866   4.028  -0.058   1.959 -2.2584 -0.6742 -1.3868
 4683TP3      O25867   0.920   0.700   8.276 -0.1818  0.2387 -0.2910
 4683TP3     H125868   0.990   0.751   8.316 -0.8467  1.4581 -0.6374
 4683TP3     H225869   0.946   0.609   8.289  1.3924  0.6659 -0.3041
 4684TP3      O25870   0.498   1.057   8.750 -0.1131  0.2727  0.1732
 4684TP3     H125871   0.461   1.107   8.677 -1.2840  0.7271  1.0507
 4684TP3     H225872   0.460   0.970   8.741 -1.7912  0.8445  1.2998
 4685TP3      O25873   1.830   3.569   9.826 -0.3802  0.3868 -0.0838
 4685TP3     H125874   1.871   3.495   9.870 -1.6942  0.8261  2.0766
 4685TP3     H225875   1.816   3.540   9.736  1.3610 -1.0332  0.0602
 4686TP3      O25876   4.351   0.479   9.322 -0.2090  0.0497 -0.1501
 4686TP3     H125877   4.374   0.472   9.414 -1.5065 -2.0689  0.0656
 4686TP3     H225878   4.283   0.547   9.319  1.0693  1.3958  0.1478
 4687TP3      O25879   3.889   0.437   1.237  0.1269  0.2607 -0.1351
 4687TP3     H125880   3.855   0.355   1.201 -0.9587  0.8761 -0.5519
 4687TP3     H225881   3.966   0.456   1.182 -0.9607  0.6973 -1.5826
 4688TP3      O25882   0.667   1.778   3.375  0.1945 -0.3016  0.0303
 4688TP3     H125883   0.650   1.710   3.311  0.1710 -0.3498  0.0871
 4688TP3     H225884   0.662   1.733   3.460 -3.6720  0.3972  0.3909
 4689TP3      O25885   3.562   3.631   7.948  0.1538 -0.2102  0.3535
 4689TP3     H125886   3.602   3.652   7.863  0.8110  0.2557  0.7678
 4689TP3     H225887   3.484   3.685   7.952  0.9708  0.9818  0.7162
 4690TP3      O25888   4.357   2.849   9.912  0.2780  0.0591  0.2149
 4690TP3     H125889   4.442   2.862   9.955 -1.2302  1.0904  3.1633
 4690TP3     H225890   4.302   2.809   9.980 -2.0205  0.8800 -1.0772
 4691TP3      O25891   4.746   1.109   1.759  0.7288 -0.5463 -0.9741
 4691TP3     H125892   4.676   1.084   1.819  2.9609 -2.3758  1.0754
 4691TP3     H225893   4.824   1.115   1.814  2.5928 -0.5606 -3.4338
 4692TP3      O25894   3.495   0.497   9.452 -0.1061 -0.4043  0.5259
 4692TP3     H125895   3.543   0.415   9.438  0.6396 -0.1278  1.3853
 4692TP3     H225896   3.432   0.476   9.520  0.0949 -0.2621  0.7569
 4693TP3      O25897   4.928   1.324   2.453 -0.1708 -0.4319  0.0100
 4693TP3     H125898   4.959   1.236   2.473  1.1574  0.1405  0.6153
 4693TP3     H225899   4.978   1.350   2.375 -0.6137 -0.2352 -0.2135
 4694TP3      O25900   3.676   1.597   1.673 -0.2701  0.2576  0.0338
 4694TP3     H125901   3.745   1.607   1.738 -0.1229  0.9883 -0.2308
 4694TP3     H225902   3.595   1.593   1.723  0.0023 -1.2989  0.3975
 4695TP3      O25903   1.830   4.749   7.946  0.0231  0.9988  0.2484
 4695TP3     H125904   1.810   4.826   8.000  2.2431  1.8298 -0.0122
 4695TP3     H225905   1.925   4.750   7.937 -0.1236 -0.0677 -2.3187
 4696TP3      O25906   4.644   0.645   3.226  0.0638 -0.1674  0.2897
 4696TP3     H125907   4.660   0.731   3.188  2.7321 -0.2375  1.0852
 4696TP3     H225908   4.566   0.658   3.280  0.9742  2.0573  1.1956
 4697TP3      O25909   0.285   0.918   7.264  0.3953  0.8694 -0.2896
 4697TP3     H125910   0.301   0.897   7.172 -0.6730  0.4254 -0.3797
 4697TP3     H225911   0.347   0.863   7.312  0.9440  1.0892 -0.7373
 4698TP3      O25912   1.340   4.285   1.578 -0.1582 -0.1502  0.5272
 4698TP3     H125913   1.248   4.299   1.557 -0.4657 -0.3633  1.6283
 4698TP3     H225914   1.357   4.194   1.554 -0.4393 -0.3220  0.9649
 4699TP3      O25915   3.601   0.980   7.502 -0.0275  0.3613 -0.3009
 4699TP3     H125916   3.512   1.015   7.503  0.2256  1.0004  0.4646
 4699TP3     H225917   3.604   0.925   7.424 -0.3045  2.4037 -1.8189
 4700TP3      O25918   0.451   4.699   9.099 -0.7743  0.0621 -0.3540
 4700TP3     H125919   0.365   4.713   9.138  0.3463  1.0568  1.9740
 4700TP3     H225920   0.510   4.753   9.152  1.4725 -1.6190 -0.9922
 4701TP3      O25921   2.108   1.476   7.396 -0.2726  0.0053 -0.2702
 4701TP3     H125922   2.155   1.559   7.385  0.2723 -0.3243 -0.4573
 4701TP3     H225923   2.049   1.472   7.321 -0.4197  0.3022 -0.1720
 4702TP3      O25924   4.677   0.461   9.890  0.2924 -0.0459 -0.4135
 4702TP3     H125925   4.635   0.539   9.853  1.4233  0.5225 -0.5291
 4702TP3     H225926   4.690   0.483   9.982  0.0819 -0.3337 -0.3152
 4703TP3      O25927   2.957   0.969   9.284 -0.1343  0.0154  0.1028
 4703TP3     H125928   2.977   1.050   9.331  1.6244 -0.6078  0.5122
 4703TP3     H225929   2.973   0.991   9.192 -0.8713  0.4535  0.0664
 4704TP3      O25930   1.329   3.317   1.043 -0.2306 -0.3747 -0.4328
 4704TP3     H125931   1.320   3.354   1.131 -0.6228  0.2454 -0.7307
 4704TP3     H225932   1.261   3.250   1.038  1.0995 -1.8597  0.4541
 4705TP3      O25933   4.139   2.103   2.020  0.2199 -0.0608 -0.0082
 4705TP3     H125934   4.156   2.042   1.949 -0.3751  1.4466 -1.5393
 4705TP3     H225935   4.202   2.080   2.088  1.9332 -0.5413 -1.6672
 4706TP3      O25936   1.458   3.567   2.552  0.2786 -0.0893  0.1032
 4706TP3     H125937   1.407   3.634   2.507  0.1632  0.9916  1.7560
 4706TP3     H225938   1.549   3.588   2.531  0.1579 -1.3691 -1.9611
 4707TP3      O25939   3.407   2.161   7.611  0.4706 -0.5474  0.3412
 4707TP3     H125940   3.433   2.125   7.526 -0.4653 -0.1436 -0.1290
 4707TP3     H225941   3.420   2.088   7.672  1.8328 -0.6271 -0.0041
 4708TP3      O25942   2.030   1.661   0.332 -0.4443  0.0416 -0.0746
 4708TP3     H125943   1.961   1.727   0.336 -0.8561 -0.4021  0.5608
 4708TP3     H225944   2.100   1.696   0.386 -0.7899 -0.1623  0.5267
 4709TP3      O25945   2.599   3.736   2.141 -0.1535 -0.4180  0.7625
 4709TP3     H125946   2.569   3.669   2.081  0.7734 -0.5897  0.4771
 4709TP3     H225947   2.519   3.767   2.185 -0.6183 -1.4751  0.6756
 4710TP3      O25948   1.977   3.398   0.814  0.7544 -0.2778 -0.4381
 4710TP3     H125949   1.970   3.359   0.727  1.6892 -2.6830  0.4753
 4710TP3     H225950   2.071   3.401   0.831  0.6231  1.0830  0.1275
 4711TP3      O25951   0.371   1.929  10.351  0.4079 -0.5833 -0.0856
 4711TP3     H125952   0.467   1.930  10.348  0.4160 -0.6768  0.1331
 4711TP3     H225953   0.346   2.019  10.332  0.4352 -1.1182 -3.3750
 4712TP3      O25954   4.699   4.056   8.180  0.3638  0.2638 -0.5966
 4712TP3     H125955   4.792   4.042   8.195 -0.2517 -1.7240  2.0373
 4712TP3     H225956   4.679   4.004   8.102  1.0763 -0.9866  0.0414
 4713TP3      O25957   4.927   0.952   0.288 -0.0661 -0.1214  0.7997
 4713TP3     H125958   4.883   0.876   0.326  0.0406 -0.5929 -0.0126
 4713TP3     H225959   4.857   1.004   0.250 -0.0235 -0.3744  0.3755
 4714TP3      O25960   0.424   2.183   2.831  0.0598 -0.4901 -0.5638
 4714TP3     H125961   0.377   2.187   2.914  0.4058 -0.0655 -0.3815
 4714TP3     H225962   0.504   2.134   2.852 -0.7643 -2.1391 -1.1113
 4715TP3      O25963   1.506   4.165   8.073  0.3130 -0.3964  0.0935
 4715TP3     H125964   1.486   4.242   8.126 -3.9111 -0.5270 -0.9850
 4715TP3     H225965   1.486   4.090   8.130 -0.9401 -0.5710 -0.5447
 4716TP3      O25966   2.401   4.117   0.994  0.2016  0.3706 -0.3682
 4716TP3     H125967   2.420   4.129   1.087  0.2091  2.1923 -0.5681
 4716TP3     H225968   2.462   4.176   0.950 -2.0748  2.1746 -1.3150
 4717TP3      O25969   0.394   2.931   8.305 -0.2627 -0.0791  0.7957
 4717TP3     H125970   0.368   2.844   8.335  0.4472 -1.0709 -1.3204
 4717TP3     H225971   0.486   2.923   8.282 -0.2862  1.1382  0.1842
 4718TP3      O25972   4.182   1.684   8.302  0.0164 -0.1385  0.2983
 4718TP3     H125973   4.206   1.595   8.274  0.3345  0.0098  0.0912
 4718TP3     H225974   4.266   1.729   8.312 -0.1518  0.2046  0.1828
 4719TP3      O25975   4.561   2.659   0.281  0.1837  0.0845 -0.9671
 4719TP3     H125976   4.487   2.701   0.325  1.0065 -0.0857  0.6651
 4719TP3     H225977   4.521   2.598   0.219 -1.2757 -2.9777  2.5610
 4720TP3      O25978   2.302   1.349   8.580 -0.5995  0.4973 -0.4485
 4720TP3     H125979   2.312   1.258   8.608 -0.6668  1.3101  2.5082
 4720TP3     H225980   2.379   1.366   8.526 -0.9768 -1.4869 -1.7420
 4721TP3      O25981   1.566   2.685   3.430  0.0758  0.4983 -0.5499
 4721TP3     H125982   1.543   2.592   3.433 -3.0393  1.1718 -0.4882
 4721TP3     H225983   1.583   2.708   3.521 -0.0185  0.1777 -0.4502
 4722TP3      O25984   3.227   2.613   9.394 -0.4657  0.9665  0.2686
 4722TP3     H125985   3.247   2.549   9.462  0.9030  1.9021  0.7972
 4722TP3     H225986   3.139   2.590   9.364 -0.8613  0.1662  1.9297
 4723TP3      O25987   0.048   5.067   7.847 -0.2215 -0.0077 -0.2021
 4723TP3     H125988  -0.041   5.078   7.881 -0.4441  1.5195 -1.1847
 4723TP3     H225989   0.101   5.126   7.900 -0.1782  0.6834 -0.9992
 4724TP3      O25990   2.353   1.084   0.693 -0.1747 -0.3563  0.2539
 4724TP3     H125991   2.297   1.081   0.770 -1.3728 -2.0713 -0.6021
 4724TP3     H225992   2.438   1.054   0.724 -0.4574 -0.3672  1.0395
 4725TP3      O25993   4.147   5.001   9.850  0.1957  0.0970  0.7816
 4725TP3     H125994   4.099   5.072   9.894  0.0385 -1.2843  3.0175
 4725TP3     H225995   4.081   4.933   9.838  0.6168 -0.1434 -0.2427
 4726TP3      O25996   4.590   0.491   2.454  0.1520  0.5000 -0.3812
 4726TP3     H125997   4.638   0.557   2.404  1.0441  1.8810  2.0676
 4726TP3     H225998   4.500   0.523   2.456  0.2347  0.7474 -0.5871
 4727TP3      O25999   0.596   4.830   0.684  0.1188  0.0424  0.4655
 4727TP3     H126000   0.558   4.851   0.769 -2.6699  0.1661 -0.7175
 4727TP3     H226001   0.614   4.737   0.687 -3.2383 -0.7448  0.1378
 4728TP3      O26002   0.377   1.192   2.824  0.6037  0.3596 -1.0864
 4728TP3     H126003   0.453   1.184   2.767  0.6460 -3.5349 -0.7694
 4728TP3     H226004   0.310   1.233   2.770  1.1215 -1.7167 -3.4943
 4729TP3      O26005   4.391   4.243   8.608  0.0058 -0.3668  0.3770
 4729TP3     H126006   4.356   4.252   8.519 -2.0587  2.5662  1.3096
 4729TP3     H226007   4.323   4.194   8.655  0.1765 -0.2330  0.7642
 4730TP3      O26008   5.062   0.154   2.193 -0.1367 -0.1157 -0.6324
 4730TP3     H126009   4.985   0.211   2.204  1.2204  1.8759 -1.0221
 4730TP3     H226010   5.062   0.133   2.099  0.7757  1.4133 -1.0067
 4731TP3      O26011   3.855   3.713   1.804  0.0182  0.3095  0.3184
 4731TP3     H126012   3.905   3.635   1.782 -1.4240 -0.5888  0.1054
 4731TP3     H226013   3.887   3.739   1.891 -1.0199 -1.8652  1.4192
 4732TP3      O26014   2.574   2.387   9.220  0.7271  0.8620  0.3033
 4732TP3     H126015   2.541   2.338   9.294  2.2618  0.8967  1.0532
 4732TP3     H226016   2.496   2.415   9.172 -0.2227 -1.6988  0.2117
 4733TP3      O26017   4.459   2.065   0.502  0.0141 -0.2376 -0.2581
 4733TP3     H126018   4.426   1.976   0.491 -1.5926  0.2602  0.2782
 4733TP3     H226019   4.517   2.060   0.578 -1.3954 -0.5193  0.8341
 4734TP3      O26020   4.645   4.551   8.964  0.2910 -0.3124  0.0947
 4734TP3     H126021   4.642   4.485   9.034  0.5653  0.9735  1.3690
 4734TP3     H226022   4.598   4.511   8.891 -0.6932 -1.4079  1.2774
 4735TP3      O26023   2.982   4.677   8.219  0.1027  0.0019  0.0124
 4735TP3     H126024   3.067   4.684   8.175 -0.4770 -2.1499 -1.6245
 4735TP3     H226025   2.919   4.712   8.156 -0.3986  0.0575  0.5344
 4736TP3      O26026   0.025   2.880   8.238  0.0055 -0.5998  0.3142
 4736TP3     H126027   0.074   2.799   8.240  0.1989 -0.6057 -1.8214
 4736TP3     H226028  -0.065   2.853   8.218 -0.3525 -0.3993  1.5649
 4737TP3      O26029   3.315   0.468   1.409  0.0281 -0.3730 -0.2993
 4737TP3     H126030   3.222   0.468   1.432 -0.7002 -0.5481 -2.8943
 4737TP3     H226031   3.338   0.561   1.403  0.0985 -0.3281  0.5508
 4738TP3      O26032   0.608   4.030   2.363  0.6413 -0.7339  1.0688
 4738TP3     H126033   0.542   4.059   2.427 -1.4022  1.2664 -1.7051
 4738TP3     H226034   0.692   4.051   2.404 -0.6156  2.7861  2.1987
 4739TP3      O26035   2.985   2.645   1.488 -0.0910 -0.4225 -0.0516
 4739TP3     H126036   3.010   2.703   1.417  0.5323  0.1989  0.6522
 4739TP3     H226037   3.049   2.574   1.485  0.6973  0.2328  0.6228
 4740TP3      O26038   5.055   4.503   7.132 -0.1517 -0.1922 -0.3048
 4740TP3     H126039   5.145   4.517   7.162  0.2795 -2.3270 -0.4641
 4740TP3     H226040   5.061   4.501   7.037 -0.3632 -0.4233 -0.3132
 4741TP3      O26041   0.132   4.218   2.188 -0.4644  0.4317  0.5849
 4741TP3     H126042   0.052   4.266   2.213  0.6275  2.8713 -0.2807
 4741TP3     H226043   0.185   4.217   2.267  0.4747  2.8794  0.1019
 4742TP3      O26044   0.842   2.379   2.517  0.0740  0.2425 -0.2293
 4742TP3     H126045   0.771   2.443   2.520  0.5461  0.7562  2.1544
 4742TP3     H226046   0.817   2.319   2.447 -2.7049  0.4159  0.4848
 4743TP3      O26047   4.328   1.184   9.450 -0.1761 -0.0805 -0.0509
 4743TP3     H126048   4.232   1.193   9.451 -0.1882  0.0425  1.6807
 4743TP3     H226049   4.353   1.199   9.541  1.4865 -0.2894 -0.4570
 4744TP3      O26050   0.164   3.720  10.378  0.2269 -0.0396 -1.0283
 4744TP3     H126051   0.109   3.660  10.429  0.4049  0.9309  0.3785
 4744TP3     H226052   0.111   3.799  10.367  1.1743  0.7924  0.0820
 4745TP3      O26053   1.572   3.733   0.097 -0.0259 -0.1644 -0.2945
 4745TP3     H126054   1.523   3.674   0.042  1.7247  1.9626 -4.6106
 4745TP3     H226055   1.526   3.816   0.091  2.2138  1.0882 -1.9681
 4746TP3      O26056   3.349   1.788   0.691  0.2269  0.0059  0.7176
 4746TP3     H126057   3.395   1.854   0.640 -0.3085  0.9418  1.4113
 4746TP3     H226058   3.345   1.711   0.634  0.9860  0.5263 -0.0458
 4747TP3      O26059   4.622   4.118   8.714 -0.3872 -0.1220  0.0990
 4747TP3     H126060   4.551   4.181   8.726  1.9286  2.3098  2.5118
 4747TP3     H226061   4.621   4.097   8.621 -2.4784  2.0108 -0.4418
 4748TP3      O26062   4.411   0.522   9.600 -0.2915  0.0634 -0.4673
 4748TP3     H126063   4.450   0.440   9.631  1.0038  0.9940  0.4301
 4748TP3     H226064   4.373   0.561   9.678  1.6850  1.7111 -0.2568
 4749TP3      O26065   3.962   3.195   1.452 -0.7373 -0.1567 -0.1047
 4749TP3     H126066   3.915   3.180   1.370 -0.8761  0.5512 -0.1604
 4749TP3     H226067   4.006   3.112   1.470 -1.7673 -0.7379 -0.2115
 4750TP3      O26068   4.480   5.168   1.425 -0.0535 -0.0933  0.0973
 4750TP3     H126069   4.494   5.116   1.346  1.2311 -0.0022  0.2481
 4750TP3     H226070   4.544   5.238   1.419 -1.1046  0.9136  0.3932
 4751TP3      O26071   2.633   1.953   0.616  0.4708 -0.0250 -0.1447
 4751TP3     H126072   2.722   1.923   0.602  0.2280 -0.7036 -0.2855
 4751TP3     H226073   2.599   1.896   0.685  0.8197  1.6107  1.4404
 4752TP3      O26074   2.967   4.668   2.499 -0.7647  0.1453  0.3351
 4752TP3     H126075   2.897   4.609   2.526 -0.2345 -0.0363  1.4029
 4752TP3     H226076   2.984   4.645   2.408 -1.5845 -0.3145  0.2846
 4753TP3      O26077   4.502   4.218   0.701  0.9123  0.2629  0.0181
 4753TP3     H126078   4.581   4.226   0.754  0.7541 -0.3905  0.3630
 4753TP3     H226079   4.443   4.165   0.754 -0.1349  1.5495  0.1836
 4754TP3      O26080   4.868   3.485   3.319 -0.1914 -0.5748  0.4766
 4754TP3     H126081   4.926   3.544   3.366 -0.6504  1.2183 -1.1067
 4754TP3     H226082   4.801   3.462   3.384 -0.6745  1.6255  0.8455
 4755TP3      O26083   4.316   1.390   8.685  0.1256 -0.3164 -0.5512
 4755TP3     H126084   4.385   1.454   8.666 -0.0331  0.4329  1.2639
 4755TP3     H226085   4.319   1.330   8.610  0.7594  1.3689 -1.9505
 4756TP3      O26086   4.709   2.608   2.823 -0.1857  0.4637 -0.1473
 4756TP3     H126087   4.668   2.637   2.742 -0.7088 -0.4074 -0.2035
 4756TP3     H226088   4.638   2.570   2.875  0.2801  0.2819  0.3814
 4757TP3      O26089   1.940   2.869   9.658 -0.2502 -0.3251  0.0940
 4757TP3     H126090   1.918   2.781   9.689 -0.7359 -0.5455 -0.8261
 4757TP3     H226091   1.906   2.928   9.725  2.1062 -0.8805  1.8911
 4758TP3      O26092   0.564   1.686   2.544 -0.2829 -0.1353 -0.6170
 4758TP3     H126093   0.624   1.729   2.483  1.2775 -0.6540  0.4710
 4758TP3     H226094   0.591   1.718   2.630 -2.5314  0.7019 -0.1647
 4759TP3      O26095   1.919   0.024   1.916 -0.0475  0.2339 -0.7404
 4759TP3     H126096   1.965   0.056   1.994 -0.2574  0.0844 -0.5503
 4759TP3     H226097   1.841  -0.019   1.952 -0.2771  0.3914 -1.0494
 4760TP3      O26098   3.085   2.366   9.563  0.7396 -0.2325  0.6932
 4760TP3     H126099   3.170   2.343   9.599  0.9591  1.6858  1.4816
 4760TP3     H226100   3.082   2.319   9.479  2.0102 -1.3330  1.2164
 4761TP3      O26101   0.258   4.343   1.980  0.0005 -0.4480  0.3241
 4761TP3     H126102   0.354   4.344   1.984 -0.0329  0.5427  1.0933
 4761TP3     H226103   0.233   4.278   2.046  0.1279 -0.5505  0.2738
 4762TP3      O26104   3.787   2.764   7.163  0.5217 -0.8275 -0.2184
 4762TP3     H126105   3.785   2.680   7.118 -1.4997 -0.3960 -1.0697
 4762TP3     H226106   3.738   2.823   7.105  0.5084  0.5308  1.0984
 4763TP3      O26107   1.649   3.365   1.539 -0.5632 -0.3871  0.4108
 4763TP3     H126108   1.717   3.377   1.605 -0.4996 -0.2991  0.3301
 4763TP3     H226109   1.617   3.276   1.553 -0.5257 -0.3802  0.5375
 4764TP3      O26110   1.004   3.506   1.150 -0.5272  0.7280 -0.6688
 4764TP3     H126111   1.054   3.439   1.197  0.1994 -0.2019 -2.6418
 4764TP3     H226112   1.069   3.575   1.132 -0.7147  0.9274 -0.5761
 4765TP3      O26113   1.000   1.017   8.660  0.4535 -0.0592  0.0397
 4765TP3     H126114   1.094   1.017   8.645  0.1444 -1.3334 -2.4871
 4765TP3     H226115   0.963   1.058   8.581 -1.1559 -0.3916  0.5711
 4766TP3      O26116   2.118   1.889   3.282 -0.0372  0.3332 -0.6310
 4766TP3     H126117   2.172   1.816   3.251 -0.1002  0.5955 -1.3769
 4766TP3     H226118   2.074   1.855   3.360  0.4664 -0.1974 -0.5741
 4767TP3      O26119   2.935   3.655   1.548 -0.5015 -0.2336  0.1939
 4767TP3     H126120   2.878   3.578   1.541 -0.7801  0.0892 -4.3938
 4767TP3     H226121   3.021   3.619   1.570 -0.4619 -2.0976 -2.5169
 4768TP3      O26122   2.595   2.188   0.761  0.5986  0.0065  0.4291
 4768TP3     H126123   2.605   2.100   0.724  2.7237  0.7327 -0.9359
 4768TP3     H226124   2.503   2.210   0.746  0.2142 -1.6690  0.0999
 4769TP3      O26125   3.902   3.992  10.039 -0.3688  0.7592  0.1105
 4769TP3     H126126   3.934   4.005  10.128 -1.7464  1.8744  0.4931
 4769TP3     H226127   3.977   4.013   9.983  0.9136 -1.2249  0.9810
 4770TP3      O26128   3.615   0.894   2.250 -0.1038 -0.5682  0.1132
 4770TP3     H126129   3.619   0.806   2.213  1.4162  0.2661 -1.8803
 4770TP3     H226130   3.523   0.906   2.274 -0.2513 -2.8438  0.9155
 4771TP3      O26131   2.641   0.868   9.821  0.2516  0.1753 -0.2718
 4771TP3     H126132   2.698   0.802   9.860 -1.8268 -1.8361 -0.4423
 4771TP3     H226133   2.661   0.865   9.727  0.2236 -0.1696 -0.2682
 4772TP3      O26134   0.420   0.110   1.524  0.1837 -0.0511 -1.1938
 4772TP3     H126135   0.391   0.101   1.614 -1.8212 -0.9337 -1.8676
 4772TP3     H226136   0.424   0.205   1.509  1.2272  0.1137 -0.0208
 4773TP3      O26137   1.812   2.236   8.655 -0.1201  0.1204 -0.1212
 4773TP3     H126138   1.731   2.212   8.699  1.1559  0.6867  2.7450
 4773TP3     H226139   1.786   2.301   8.589 -1.9471  0.5993  1.0158
 4774TP3      O26140   2.220   2.662   7.838 -0.5482  0.0860  0.4824
 4774TP3     H126141   2.184   2.602   7.904 -1.3587 -0.3469 -0.3360
 4774TP3     H226142   2.212   2.748   7.878 -1.3432 -0.1380  0.8392
 4775TP3      O26143   2.652   1.873   0.061  0.4043  0.2680 -0.6768
 4775TP3     H126144   2.671   1.886  -0.032 -1.5568 -1.2315 -1.3632
 4775TP3     H226145   2.693   1.789   0.082 -0.1828  0.0063 -0.5447
 4776TP3      O26146   4.786   2.642   7.125 -0.1542 -0.1416  0.1464
 4776TP3     H126147   4.713   2.583   7.147  0.6351 -2.0629 -1.9190
 4776TP3     H226148   4.864   2.597   7.157  0.2940  1.0050  0.7035
 4777TP3      O26149   1.661   4.633   7.639  0.1841  0.7405 -0.2291
 4777TP3     H126150   1.730   4.641   7.705 -0.6577  0.4920  0.6999
 4777TP3     H226151   1.653   4.539   7.623 -0.9363  0.6480  0.7677
 4778TP3      O26152   3.453   3.697   2.177  0.2888  0.3611 -0.1059
 4778TP3     H126153   3.419   3.783   2.154  0.9605  0.5449 -0.4237
 4778TP3     H226154   3.430   3.687   2.270 -0.3857  0.5910 -0.2430
 4779TP3      O26155   5.159   2.182   1.186  0.0260  0.4392 -0.1480
 4779TP3     H126156   5.119   2.150   1.267 -0.3582  1.9301  0.2820
 4779TP3     H226157   5.122   2.269   1.174  1.6052  1.0570 -0.8441
 4780TP3      O26158   0.446   1.501   9.219  0.3103  0.3200  0.0161
 4780TP3     H126159   0.521   1.560   9.228  2.5877 -2.6560  3.1586
 4780TP3     H226160   0.382   1.535   9.281  0.1652  1.3220 -0.6572
 4781TP3      O26161   3.635   2.240   8.069  0.0517  0.3334 -0.8436
 4781TP3     H126162   3.675   2.229   7.983 -0.9303  0.0404 -1.2714
 4781TP3     H226163   3.558   2.295   8.052 -0.8837 -0.8085 -0.3653
 4782TP3      O26164   0.647   1.277   1.683  0.0646 -0.1843 -0.3492
 4782TP3     H126165   0.685   1.287   1.595  0.7054  1.3528  0.0773
 4782TP3     H226166   0.675   1.355   1.730 -1.1336 -0.4892  0.9226
 4783TP3      O26167   1.707   1.847   2.408  0.2560 -0.0046 -0.8387
 4783TP3     H126168   1.649   1.922   2.398  2.3386  1.8159  0.0290
 4783TP3     H226169   1.760   1.867   2.485  0.3996 -2.7428 -0.1151
 4784TP3      O26170   5.090   1.874   2.123 -0.1246 -0.2999 -0.1303
 4784TP3     H126171   5.122   1.917   2.202 -1.9172  0.9264 -0.0053
 4784TP3     H226172   5.085   1.944   2.058 -1.3927 -0.6719 -0.4648
 4785TP3      O26173   3.814   2.820   8.678 -0.2248 -0.1243 -0.0252
 4785TP3     H126174   3.827   2.725   8.675 -2.1248 -0.4068 -1.0275
 4785TP3     H226175   3.739   2.832   8.735 -0.1249  0.7758 -0.0718
 4786TP3      O26176   1.736   2.537   7.455  0.1200 -0.3974 -0.0427
 4786TP3     H126177   1.781   2.597   7.396  1.2907 -0.5821  0.6400
 4786TP3     H226178   1.801   2.515   7.521 -1.0906 -0.3881  1.1840
 4787TP3      O26179   0.752   3.441   6.715  0.2237  0.8568  0.4021
 4787TP3     H126180   0.787   3.500   6.782  0.6111  0.9499  0.1190
 4787TP3     H226181   0.727   3.363   6.764  0.4546  0.9428  0.6654
 4788TP3      O26182   4.842   1.189   1.078  0.2966 -0.2851  0.0581
 4788TP3     H126183   4.754   1.163   1.053  0.4981 -1.7285  0.7844
 4788TP3     H226184   4.880   1.112   1.120  1.7838  0.4171  0.0911
 4789TP3      O26185   2.527   4.804   7.601  0.1708  0.5126 -0.0557
 4789TP3     H126186   2.538   4.822   7.508  0.5620  1.1013  0.0981
 4789TP3     H226187   2.616   4.792   7.634 -0.0009 -0.4576  0.1034
 4790TP3      O26188   1.251   2.194   8.278 -0.3593  0.1988 -0.4110
 4790TP3     H126189   1.176   2.203   8.337 -0.9277  0.4119 -1.1687
 4790TP3     H226190   1.288   2.108   8.300 -1.7758 -0.6240 -1.1194
 4791TP3      O26191   2.024   4.028   2.385 -0.5302 -0.0893  0.1524
 4791TP3     H126192   1.937   3.994   2.363  0.2754 -3.2718  1.3319
 4791TP3     H226193   2.048   3.982   2.465  1.8100  1.6018  0.5212
 4792TP3      O26194   0.787   2.480   1.191 -0.1333 -0.0864 -0.1566
 4792TP3     H126195   0.781   2.575   1.178 -1.4425 -0.3407 -1.7844
 4792TP3     H226196   0.696   2.449   1.181  0.4392 -1.6344 -0.9516
 4793TP3      O26197   4.971   2.560   0.856 -0.0294 -0.0308 -0.0789
 4793TP3     H126198   4.981   2.642   0.904  0.8754 -1.1126  1.7150
 4793TP3     H226199   5.049   2.554   0.801  1.4282 -0.9662  1.9519
 4794TP3      O26200   3.241   5.008   3.602 -0.7057  0.1032  0.2009
 4794TP3     H126201   3.185   5.048   3.669 -0.0372 -1.2909  1.6785
 4794TP3     H226202   3.329   5.036   3.625  0.1283 -3.7077  2.7213
 4795TP3      O26203   4.914   5.155   9.052  0.3642  0.3854  0.3478
 4795TP3     H126204   4.852   5.156   8.979 -1.1447  0.5874  1.5802
 4795TP3     H226205   4.955   5.241   9.049 -0.4438  0.7806  0.3347
 4796TP3      O26206   3.146   0.105   8.177  0.1191  0.1339  0.2253
 4796TP3     H126207   3.109   0.039   8.236 -0.2759  0.8257  0.7624
 4796TP3     H226208   3.157   0.183   8.231 -0.0330  0.7123 -0.5571
 4797TP3      O26209   0.750   3.325   8.103  0.2506  0.4028 -0.1308
 4797TP3     H126210   0.757   3.390   8.033  1.6574  3.2177  2.3859
 4797TP3     H226211   0.657   3.306   8.109  0.1005 -0.0223 -2.7784
 4798TP3      O26212   2.986   0.668   3.450  0.1618 -0.2171  0.4391
 4798TP3     H126213   2.936   0.742   3.484 -0.1920 -0.4728  0.4819
 4798TP3     H226214   3.068   0.669   3.501  0.0457 -0.0206  0.6264
 4799TP3      O26215   1.732   4.112   9.568  0.3720 -0.0977 -0.1799
 4799TP3     H126216   1.736   4.069   9.482 -0.8111  1.9900 -1.3721
 4799TP3     H226217   1.675   4.187   9.554  0.7400  0.7265  2.2890
 4800TP3      O26218   4.872   2.011   3.717 -0.0333  0.2181  0.2569
 4800TP3     H126219   4.944   1.955   3.688  0.0129  0.0432  0.7020
 4800TP3     H226220   4.856   1.985   3.808 -0.9833 -0.0913  0.0123
 4801TP3      O26221   1.281   0.085   7.568  0.4559 -0.4793  0.4573
 4801TP3     H126222   1.274   0.010   7.509  2.0208 -0.9387  0.8248
 4801TP3     H226223   1.220   0.150   7.532  0.5744 -1.1593 -1.0221
 4802TP3      O26224   3.252   4.273   0.930  0.1036 -0.0618 -0.4390
 4802TP3     H126225   3.199   4.259   1.009  0.5006 -0.2348 -0.2012
 4802TP3     H226226   3.279   4.365   0.935  0.8618 -0.3004  0.0899
 4803TP3      O26227   2.284   3.381   2.843  0.7809  0.0592  1.0068
 4803TP3     H126228   2.244   3.303   2.803 -0.4062  2.3870 -2.9135
 4803TP3     H226229   2.209   3.436   2.867  1.5873  0.9433  1.5520
 4804TP3      O26230   0.319   4.996   8.346  0.0682 -0.0753  0.4915
 4804TP3     H126231   0.261   5.070   8.324  0.0417 -0.1211  0.4046
 4804TP3     H226232   0.375   5.030   8.416 -0.1070 -0.0522  0.6212
 4805TP3      O26233   2.816   1.514   1.042 -0.3864  0.0850 -0.2105
 4805TP3     H126234   2.779   1.511   0.954 -2.2880 -0.4898  0.5616
 4805TP3     H226235   2.803   1.604   1.071  1.0261  0.5151 -0.7764
 4806TP3      O26236   4.157   4.570   1.233 -0.5310 -0.2771  0.3889
 4806TP3     H126237   4.194   4.553   1.320  2.1304  1.8640 -0.1947
 4806TP3     H226238   4.233   4.579   1.176 -2.1322  0.3573 -1.7692
 4807TP3      O26239   4.191   2.711   0.027 -0.0805 -0.1534  0.5090
 4807TP3     H126240   4.280   2.678   0.040  0.3216  0.6850 -0.0116
 4807TP3     H226241   4.148   2.699   0.112  0.1412 -1.6824  0.4297
 4808TP3      O26242   3.589   1.782   2.233 -0.0845  0.2268  0.3991
 4808TP3     H126243   3.588   1.726   2.155  0.9229  0.1157  0.4508
 4808TP3     H226244   3.583   1.871   2.198  3.9636  0.4789 -0.1755
 4809TP3      O26245   1.478   2.581   3.846 -0.3035 -0.7919 -0.1130
 4809TP3     H126246   1.507   2.505   3.795 -0.9588 -0.1071 -1.5899
 4809TP3     H226247   1.383   2.570   3.853 -0.4802  0.1506 -0.8375
 4810TP3      O26248   0.582   5.223   1.909 -0.0024  0.0409  0.0521
 4810TP3     H126249   0.516   5.271   1.859  0.3237  0.6653  0.2110
 4810TP3     H226250   0.664   5.243   1.865  0.5182  1.8366  1.6655
 4811TP3      O26251   0.714   2.222   1.771 -0.4910 -0.3637  0.1368
 4811TP3     H126252   0.780   2.170   1.727  1.1116  2.6628 -1.3401
 4811TP3     H226253   0.657   2.254   1.700 -1.0325  0.3969  0.8903
 4812TP3      O26254   4.126   4.269   0.098 -0.4831 -0.2618  0.1328
 4812TP3     H126255   4.143   4.362   0.082 -0.5496 -0.3489 -0.4651
 4812TP3     H226256   4.112   4.232   0.011  0.3608 -0.9914  0.2891
 4813TP3      O26257   3.336   0.373   9.647  0.0642  0.3236 -0.1127
 4813TP3     H126258   3.390   0.293   9.651  2.5336  1.8302 -1.0578
 4813TP3     H226259   3.263   0.349   9.592  0.8339 -1.2660 -0.5107
 4814TP3      O26260   4.169   1.702   0.258 -0.3588  0.0816  0.1439
 4814TP3     H126261   4.101   1.768   0.269 -0.3706 -0.0352  0.7869
 4814TP3     H226262   4.122   1.619   0.252 -0.2585 -0.0381  0.9525
 4815TP3      O26263   0.362   3.554   2.277  0.0186 -0.2765 -0.4901
 4815TP3     H126264   0.415   3.510   2.210 -0.0407  1.3710 -1.6766
 4815TP3     H226265   0.417   3.550   2.356  1.3256  0.1435 -1.3327
 4816TP3      O26266   0.442   0.418   1.610  0.6148  0.7361  0.1851
 4816TP3     H126267   0.348   0.415   1.625  0.7197  0.0063  0.7511
 4816TP3     H226268   0.454   0.489   1.546 -0.1988  1.6040  0.9614
 4817TP3      O26269   1.538   0.024  10.071 -0.5326  0.0978 -0.1529
 4817TP3     H126270   1.606  -0.007  10.012 -0.5670 -0.5954  0.1630
 4817TP3     H226271   1.583   0.038  10.155 -1.0349 -1.8486  0.4954
 4818TP3      O26272   4.148   1.904   8.988 -0.6567  0.3200 -0.1865
 4818TP3     H126273   4.127   1.932   9.077  0.1924  0.6410 -0.0731
 4818TP3     H226274   4.191   1.819   8.999  0.4463  0.8554 -0.1779
 4819TP3      O26275   4.753   2.386   9.807 -0.5808 -0.3175  0.2989
 4819TP3     H126276   4.707   2.316   9.853 -0.4093 -0.7061 -0.1114
 4819TP3     H226277   4.750   2.360   9.715  0.9109 -0.6273  0.3188
 4820TP3      O26278   1.237   2.670   1.574 -0.3194  0.3885  0.4122
 4820TP3     H126279   1.168   2.619   1.532 -0.3301  2.0506 -1.7570
 4820TP3     H226280   1.230   2.648   1.667 -1.9538 -1.5474 -0.0961
 4821TP3      O26281   4.138   1.549   7.909  0.1602  0.1718  0.2183
 4821TP3     H126282   4.192   1.557   7.988 -0.4031 -0.7696  0.7166
 4821TP3     H226283   4.171   1.471   7.866  0.5862  0.7870 -0.5896
 4822TP3      O26284   2.715   3.401   3.648  0.0517  0.2504  0.2135
 4822TP3     H126285   2.634   3.378   3.603  1.1590 -1.7578 -0.9078
 4822TP3     H226286   2.752   3.473   3.597  0.1548 -0.4694 -0.7578
 4823TP3      O26287   0.334   2.955   1.367 -0.1815  0.2546 -0.8402
 4823TP3     H126288   0.301   3.041   1.393 -3.7783 -1.3084  0.4882
 4823TP3     H226289   0.331   2.903   1.448  2.7657 -0.9541 -1.4067
 4824TP3      O26290   5.095   1.091  10.067  0.0680 -0.3774 -0.3884
 4824TP3     H126291   5.079   1.101  10.161 -0.0365  1.1088 -0.5368
 4824TP3     H226292   5.039   1.017  10.041 -0.0118 -0.7103  0.6813
 4825TP3      O26293   3.313   1.636   8.371  0.2636 -0.6717 -0.0933
 4825TP3     H126294   3.248   1.626   8.302 -1.4255 -0.1330  1.3316
 4825TP3     H226295   3.317   1.549   8.413  1.9648 -1.2615 -1.3709
 4826TP3      O26296   3.217   3.103   9.506 -0.0687 -0.2918  0.2277
 4826TP3     H126297   3.213   3.173   9.571  1.9746 -1.0552  1.2795
 4826TP3     H226298   3.308   3.073   9.509 -0.3434 -1.5029 -1.7875
 4827TP3      O26299   1.065   1.542   7.028  0.1357  0.0652 -0.0095
 4827TP3     H126300   1.054   1.572   6.937  0.5597 -1.0669 -0.4470
 4827TP3     H226301   0.976   1.542   7.064 -0.2876 -1.1970 -0.9907
 4828TP3      O26302   0.031   2.347   8.392  0.3729  0.3071  0.0239
 4828TP3     H126303   0.043   2.252   8.386  2.2948  0.5255 -0.3661
 4828TP3     H226304  -0.017   2.370   8.312  0.7401 -0.2349 -0.3633
 4829TP3      O26305   1.095   3.162   9.202 -0.5890 -0.3281  0.3965
 4829TP3     H126306   1.167   3.156   9.139 -0.6708 -2.8135  0.4299
 4829TP3     H226307   1.016   3.162   9.147 -0.6427 -1.9413  0.4228
 4830TP3      O26308   2.419   3.977   2.169  0.1445 -0.2321 -0.1586
 4830TP3     H126309   2.440   3.975   2.262 -0.5973 -0.2033  0.0186
 4830TP3     H226310   2.324   3.988   2.166  0.3037  1.2862 -0.9289
 4831TP3      O26311   2.090   1.616   8.133 -0.0115 -0.0731  0.1168
 4831TP3     H126312   2.084   1.555   8.060 -0.8431  0.8476 -0.6117
 4831TP3     H226313   2.184   1.627   8.148  0.1430 -1.3703  0.1387
 4832TP3      O26314   3.572   1.487  10.342  0.0431  0.1936 -0.2245
 4832TP3     H126315   3.489   1.485  10.294  0.8432 -0.2773 -1.6334
 4832TP3     H226316   3.592   1.580  10.352 -1.0661  0.3330  0.8989
 4833TP3      O26317   4.483   4.922   1.952 -0.5568  0.5748  0.8201
 4833TP3     H126318   4.533   5.001   1.972  0.4921  0.0736  0.2926
 4833TP3     H226319   4.491   4.912   1.857  2.7171 -2.2280  1.1728
 4834TP3      O26320   4.163   1.936   1.810  0.0044 -0.7131  0.1318
 4834TP3     H126321   4.214   1.855   1.810 -0.8504 -1.2640 -0.3591
 4834TP3     H226322   4.192   1.982   1.731  1.6587  0.2471  1.2344
 4835TP3      O26323   0.894   1.506   0.232  0.3957 -0.2228  0.7895
 4835TP3     H126324   0.943   1.578   0.273  1.1825 -0.8152  0.9110
 4835TP3     H226325   0.954   1.432   0.234  0.4875 -0.2988 -1.4046
 4836TP3      O26326   1.367   0.986   1.027 -0.3545 -0.4544 -0.1428
 4836TP3     H126327   1.295   1.032   1.070 -0.0852 -1.0026  0.9304
 4836TP3     H226328   1.391   1.042   0.953 -2.1902 -0.4828 -0.8235
 4837TP3      O26329   1.398   5.003  10.190 -0.6819  0.0192 -0.2813
 4837TP3     H126330   1.412   5.089  10.150  0.2489  1.4018  2.7228
 4837TP3     H226331   1.484   4.960  10.187 -0.9324 -0.4601 -0.9413
 4838TP3      O26332   4.231   0.736  10.101  0.1178 -0.5326  0.0571
 4838TP3     H126333   4.286   0.658  10.106 -1.5930 -1.7499  1.2829
 4838TP3     H226334   4.144   0.703  10.080 -0.6795  1.0235  0.6995
 4839TP3      O26335   4.920   0.379   1.490 -0.6594  0.3061  0.0459
 4839TP3     H126336   4.996   0.363   1.435  0.1728 -0.1433  1.2819
 4839TP3     H226337   4.850   0.327   1.450  1.2002 -4.4476  2.1863
 4840TP3      O26338   1.194   4.527   2.305  0.1635 -0.1959  0.1920
 4840TP3     H126339   1.162   4.615   2.288  1.3958  0.3786  0.7233
 4840TP3     H226340   1.205   4.523   2.400  1.1845 -0.5220  0.0738
 4841TP3      O26341   5.160   1.962   8.585  0.3091  0.0244 -0.4253
 4841TP3     H126342   5.204   1.918   8.512  2.1093  1.0605 -0.0438
 4841TP3     H226343   5.136   1.891   8.645  2.7184 -0.5631 -0.0417
 4842TP3      O26344   1.017   5.017   9.341 -0.0118 -0.1188 -0.6580
 4842TP3     H126345   1.051   4.984   9.425 -0.5467  0.4166 -0.2281
 4842TP3     H226346   1.004   4.938   9.288 -0.5679 -0.5474  0.0990
 4843TP3      O26347   1.872   1.368   6.900 -0.3287  0.3857 -0.0808
 4843TP3     H126348   1.912   1.308   6.837  0.8833  0.8996  0.1668
 4843TP3     H226349   1.860   1.450   6.851 -0.9770  0.2711 -0.1188
 4844TP3      O26350   2.698   1.845   7.372 -0.2759 -0.6806 -0.2503
 4844TP3     H126351   2.684   1.922   7.318  1.6150 -0.7019 -0.8337
 4844TP3     H226352   2.612   1.827   7.410 -0.6770  2.0212  0.3475
 4845TP3      O26353   1.344   0.487   8.639  0.5392 -0.3344 -0.2140
 4845TP3     H126354   1.308   0.575   8.646 -0.5229 -0.7963  0.2042
 4845TP3     H226355   1.349   0.471   8.544  0.6281  0.1227 -0.2894
 4846TP3      O26356   1.221   1.438   1.746 -0.6027 -0.0713 -0.6384
 4846TP3     H126357   1.293   1.456   1.807 -0.8032  1.0358 -0.7100
 4846TP3     H226358   1.258   1.456   1.660 -1.1245  1.0580 -0.6336
 4847TP3      O26359   1.852   1.495   3.154  0.1306  0.0304 -0.4173
 4847TP3     H126360   1.861   1.405   3.123  1.5223  0.2200 -0.6212
 4847TP3     H226361   1.890   1.549   3.083 -0.5241  0.7656 -0.2229
 4848TP3      O26362   3.053   5.127   2.044  0.3512 -0.0117 -0.1968
 4848TP3     H126363   2.977   5.172   2.006  0.8305  0.3800 -0.7197
 4848TP3     H226364   3.022   5.039   2.062 -0.6132  0.5181  0.8533
 4849TP3      O26365   1.087   4.838   1.564  0.5823  0.5413  0.1163
 4849TP3     H126366   1.126   4.781   1.631 -0.0129  3.5765  3.3504
 4849TP3     H226367   0.999   4.804   1.551  0.0834  0.8149  2.3213
 4850TP3      O26368   3.826   0.557   3.136 -0.5453 -0.7386  0.3832
 4850TP3     H126369   3.903   0.554   3.078  0.1249  0.4063  1.1777
 4850TP3     H226370   3.856   0.518   3.218 -2.2228 -4.8813 -0.6824
 4851TP3      O26371   1.044   2.951   2.997 -0.0693  0.2191  0.1153
 4851TP3     H126372   1.009   2.872   2.956  1.3650 -0.5006  0.2151
 4851TP3     H226373   1.035   2.935   3.091  0.7987 -0.1111  0.1478
 4852TP3      O26374   0.037   3.938   3.090 -0.6436 -0.2208  0.6627
 4852TP3     H126375  -0.007   3.866   3.135 -0.3318 -0.7892  0.0688
 4852TP3     H226376  -0.022   3.960   3.017 -1.1152  0.6529  1.2833
 4853TP3      O26377   1.224   1.729   1.874 -0.3032  0.4455  0.1877
 4853TP3     H126378   1.257   1.752   1.787 -0.6739 -0.6083 -0.2395
 4853TP3     H226379   1.293   1.757   1.934 -0.2350  1.5928 -0.3991
 4854TP3      O26380   0.331   3.367   2.571  0.3260  0.0988 -0.3872
 4854TP3     H126381   0.407   3.323   2.532  2.4802  1.6350  1.7106
 4854TP3     H226382   0.329   3.453   2.528  1.1066  0.8169  0.9356
 4855TP3      O26383   2.796   1.022  10.020 -0.0186  0.0971 -0.4585
 4855TP3     H126384   2.748   0.969   9.957 -0.4559 -0.7583  0.5465
 4855TP3     H226385   2.845   0.957  10.072 -1.0205  0.6059  1.1819
 4856TP3      O26386   3.088   0.772   0.629  0.3627 -0.2569  0.0461
 4856TP3     H126387   3.029   0.797   0.558 -1.3845 -1.8866  0.8393
 4856TP3     H226388   3.095   0.850   0.684 -1.1842 -0.0637  0.0073
 4857TP3      O26389   0.647   1.905  10.306  0.5778 -0.0076  0.0369
 4857TP3     H126390   0.733   1.886  10.343  0.7189  0.1979 -0.1858
 4857TP3     H226391   0.645   1.855  10.225  0.3801 -0.2284  0.1760
 4858TP3      O26392   1.229   2.573   1.812 -0.1403  0.2206  0.3345
 4858TP3     H126393   1.221   2.502   1.749  0.7906 -1.5937  2.1544
 4858TP3     H226394   1.309   2.555   1.860 -0.5840  1.7513  1.7773
 4859TP3      O26395   3.698   4.916   8.502 -0.1808  0.0152  0.6014
 4859TP3     H126396   3.640   4.956   8.437  0.2325  0.0300  0.2404
 4859TP3     H226397   3.667   4.826   8.509  0.4000 -0.2733 -0.3629
 4860TP3      O26398   1.093   5.188   1.653  0.6946 -0.5453 -0.2587
 4860TP3     H126399   1.177   5.231   1.665  1.5511 -1.7485 -1.6717
 4860TP3     H226400   1.040   5.251   1.604  0.3234  0.6795  1.6149
 4861TP3      O26401   3.015   0.976   8.746 -0.1537 -0.2505 -0.1080
 4861TP3     H126402   3.071   1.053   8.739 -0.8064  0.2197 -0.3524
 4861TP3     H226403   2.972   0.986   8.831 -0.2600 -0.3294 -0.1527
 4862TP3      O26404   2.153   4.021   2.123  0.0245  0.5474 -0.4087
 4862TP3     H126405   2.102   4.089   2.078 -0.8355  0.9855  1.1311
 4862TP3     H226406   2.100   4.000   2.200  0.3844 -1.7337 -0.7216
 4863TP3      O26407   1.403   2.963  10.299  0.4074 -0.0827 -1.1099
 4863TP3     H126408   1.423   2.889  10.356  1.0516 -0.2113 -1.4882
 4863TP3     H226409   1.307   2.961  10.290  0.2395  0.2839  0.3995
 4864TP3      O26410   0.846   4.759   1.445 -0.0913 -0.6805 -0.0068
 4864TP3     H126411   0.821   4.672   1.474  1.0663 -1.1893 -0.4697
 4864TP3     H226412   0.906   4.743   1.371 -1.5764  0.5269 -1.5484
 4865TP3      O26413   0.940   3.831   0.972  0.4459  0.0893  0.1316
 4865TP3     H126414   0.979   3.855   1.056  1.9199  2.2992 -1.0839
 4865TP3     H226415   0.898   3.912   0.942  2.5063  0.3153 -2.5323
 4866TP3      O26416   3.286   3.220   7.109  0.3189 -0.0019 -0.2013
 4866TP3     H126417   3.217   3.190   7.168 -0.0853  2.5331  0.7178
 4866TP3     H226418   3.269   3.173   7.027 -0.6571 -1.6761  0.9025
 4867TP3      O26419   1.041   2.269   0.644  0.6663 -0.4780  0.9176
 4867TP3     H126420   1.068   2.242   0.556  0.0173 -2.0678  1.1862
 4867TP3     H226421   1.123   2.290   0.689  1.0787 -0.6631  0.2654
 4868TP3      O26422   2.342   2.815   9.606  0.5102 -0.0956 -0.8447
 4868TP3     H126423   2.294   2.776   9.532  1.0939 -0.3996 -1.0650
 4868TP3     H226424   2.339   2.748   9.674 -0.2362  0.2768 -0.4905
 4869TP3      O26425   1.544   5.065   1.643 -0.0405 -0.8590  0.4066
 4869TP3     H126426   1.479   5.092   1.579 -0.1953 -0.5729  0.6857
 4869TP3     H226427   1.567   5.145   1.690  0.2876 -1.0139  0.5121
 4870TP3      O26428   4.103   2.840   7.115  0.3124 -0.1721 -0.1641
 4870TP3     H126429   4.155   2.913   7.079 -0.7755 -0.8590 -3.5085
 4870TP3     H226430   4.016   2.878   7.130  0.5508 -0.0900  1.0971
 4871TP3      O26431   2.317   1.917   3.566  0.0160  0.6781 -0.1525
 4871TP3     H126432   2.296   1.988   3.505 -0.9149 -0.6286 -1.3950
 4871TP3     H226433   2.255   1.929   3.638 -1.8108 -0.2407 -1.4873
 4872TP3      O26434   1.378   5.128   0.807  0.2545  0.0418  0.1275
 4872TP3     H126435   1.385   5.106   0.714 -1.3546  0.3587 -0.0982
 4872TP3     H226436   1.394   5.045   0.852  0.5395 -0.2258 -0.4596
 4873TP3      O26437   0.462   3.630   2.536 -0.1127  0.1026 -0.6819
 4873TP3     H126438   0.499   3.599   2.619  0.5967  0.5425 -0.8255
 4873TP3     H226439   0.531   3.683   2.497 -1.1659  1.6292 -0.5773
 4874TP3      O26440   0.365   4.783   1.259 -0.6380 -0.5421  0.2904
 4874TP3     H126441   0.360   4.689   1.279  0.2046 -0.9540 -1.2879
 4874TP3     H226442   0.449   4.810   1.295 -0.6439 -0.5143  0.2833
 4875TP3      O26443   0.557   2.004   8.851 -0.6330  0.0116 -0.1843
 4875TP3     H126444   0.508   2.077   8.811  0.1802 -0.2384 -1.7093
 4875TP3     H226445   0.498   1.969   8.916 -2.2444  0.1503 -1.5026
 4876TP3      O26446   2.548   0.692   3.336 -0.5132  0.1702 -0.2005
 4876TP3     H126447   2.473   0.633   3.347  0.7269 -1.2297  1.3400
 4876TP3     H226448   2.517   0.777   3.367 -1.7747 -0.1207 -0.6150
 4877TP3      O26449   4.306   2.057   1.616 -0.0174 -0.3168 -0.0231
 4877TP3     H126450   4.254   2.135   1.602  2.0877  1.3292  0.7994
 4877TP3     H226451   4.328   2.026   1.527  0.7791  1.2295 -0.3969
 4878TP3      O26452   3.177   4.286   1.207  0.3653 -0.3007 -0.3793
 4878TP3     H126453   3.123   4.274   1.285 -0.5473  1.8834 -0.6070
 4878TP3     H226454   3.259   4.240   1.228 -0.4513 -1.1402  1.1889
 4879TP3      O26455   1.247   4.998   8.382  0.0089  0.3330  0.1578
 4879TP3     H126456   1.242   5.093   8.373 -1.1755  0.1961 -0.8435
 4879TP3     H226457   1.158   4.971   8.404 -0.3520 -0.7511 -2.2505
 4880TP3      O26458   3.549   4.045   0.136 -0.5833  0.0553  0.0749
 4880TP3     H126459   3.465   4.085   0.157 -1.2036 -0.4155 -1.3613
 4880TP3     H226460   3.574   3.998   0.216 -1.0206  1.2645  0.9534
 4881TP3      O26461   3.965   0.305   2.637 -0.0095  0.7128  0.5186
 4881TP3     H126462   3.928   0.274   2.554 -2.6213  1.7960  1.1727
 4881TP3     H226463   4.055   0.272   2.637  0.2161  0.9024 -2.8635
 4882TP3      O26464   3.750   4.219  10.251 -0.3512 -0.5152 -0.3654
 4882TP3     H126465   3.775   4.162  10.323 -0.1259 -0.3229 -0.2890
 4882TP3     H226466   3.833   4.257  10.221 -0.3534 -1.1157 -1.1700
 4883TP3      O26467   0.837   1.956   2.358 -0.0311 -0.6722  0.2033
 4883TP3     H126468   0.828   1.962   2.453  1.0141 -1.9364  0.4105
 4883TP3     H226469   0.810   1.867   2.336 -2.3515  0.2293 -1.0014
 4884TP3      O26470   3.515   3.223   0.709 -0.0867 -0.5301  0.3485
 4884TP3     H126471   3.521   3.318   0.701 -1.0029 -0.4799  0.1987
 4884TP3     H226472   3.592   3.199   0.761 -0.7987  0.4774  1.9320
 4885TP3      O26473   0.064   1.148   3.248 -0.3857  0.1899 -0.1536
 4885TP3     H126474   0.113   1.163   3.329  0.4099 -0.4816 -0.4906
 4885TP3     H226475  -0.028   1.144   3.275 -0.0368 -1.2535  0.9036
 4886TP3      O26476   4.286   1.462   3.281 -0.0907 -0.3103  0.2934
 4886TP3     H126477   4.220   1.469   3.212  0.0405 -0.1287  0.1855
 4886TP3     H226478   4.301   1.553   3.308  1.5787 -0.1382 -1.0537
 4887TP3      O26479   2.921   1.396   3.132  0.0937  0.0754 -0.0742
 4887TP3     H126480   2.961   1.310   3.124 -0.0862  0.0827 -1.3970
 4887TP3     H226481   2.834   1.386   3.093 -0.3362  0.5968  0.7279
 4888TP3      O26482   1.655   5.020   0.984 -0.5297  0.1524 -0.1625
 4888TP3     H126483   1.679   5.112   0.990 -0.0021  0.1116 -1.4940
 4888TP3     H226484   1.738   4.972   0.990 -0.8212 -0.2757  0.8160
 4889TP3      O26485   1.060   0.864   2.235  0.2292  0.3875 -0.0408
 4889TP3     H126486   1.145   0.831   2.204 -0.3276 -2.1195  0.8736
 4889TP3     H226487   1.069   0.869   2.330 -0.4771  0.5552  0.0226
 4890TP3      O26488   4.763   1.609   2.650 -0.1180  0.0938 -0.4784
 4890TP3     H126489   4.831   1.604   2.717 -0.5672  0.0795 -0.0149
 4890TP3     H226490   4.810   1.627   2.569  0.2797  2.2313  0.1594
 4891TP3      O26491   4.371   0.517   0.196 -0.2919 -0.2147  0.5630
 4891TP3     H126492   4.384   0.575   0.271 -1.4791 -0.2729  0.8296
 4891TP3     H226493   4.281   0.534   0.168  0.0800 -0.3212 -0.7446
 4892TP3      O26494   2.344   4.411  10.301  0.6610 -0.0622  0.4697
 4892TP3     H126495   2.391   4.481  10.347  0.9218 -0.1656  0.3653
 4892TP3     H226496   2.408   4.340  10.293  1.3628  0.7328 -1.9335
 4893TP3      O26497   1.310   3.205  10.017  1.0079  0.2303  0.1732
 4893TP3     H126498   1.234   3.234  10.067  2.3660  1.9396  1.3685
 4893TP3     H226499   1.310   3.260   9.939  0.5192 -0.4029 -0.2763
 4894TP3      O26500   0.080   1.330   9.439 -0.2970  0.2171 -0.3048
 4894TP3     H126501  -0.007   1.360   9.465  0.0359  0.6019  0.3717
 4894TP3     H226502   0.072   1.234   9.433 -0.9668  0.3124 -1.0125
 4895TP3      O26503   2.937   1.316   0.372 -0.1286 -0.8311  0.5663
 4895TP3     H126504   2.845   1.325   0.348  0.2368 -1.1864 -1.1238
 4895TP3     H226505   2.967   1.406   0.384 -0.0391 -0.4686 -1.7555
 4896TP3      O26506   1.811   0.379   8.506 -0.1850 -0.5179 -0.6724
 4896TP3     H126507   1.770   0.405   8.423  0.5319  1.8684 -0.3512
 4896TP3     H226508   1.764   0.430   8.572  0.4115 -1.0918  0.2116
 4897TP3      O26509   1.275   1.092   7.817  0.8746 -0.2736 -0.0885
 4897TP3     H126510   1.290   1.044   7.899  3.1208  1.4376  0.6016
 4897TP3     H226511   1.304   1.181   7.836  1.2798  0.2277 -2.7038
 4898TP3      O26512   2.921   5.168   0.598 -0.1893  0.3035 -0.1094
 4898TP3     H126513   2.867   5.089   0.599  0.4108 -0.1524  1.8556
 4898TP3     H226514   2.930   5.190   0.506 -1.2840 -1.2990 -0.6411
 4899TP3      O26515   0.992   2.959   1.268 -0.1783  0.1802 -0.7939
 4899TP3     H126516   1.032   2.957   1.181  2.8910  1.0535  0.4427
 4899TP3     H226517   0.936   3.036   1.267 -0.0566  0.2739 -1.9166
 4900TP3      O26518   1.854   2.324   7.739  0.3924 -0.2580  0.3906
 4900TP3     H126519   1.904   2.280   7.671 -0.1874  0.1528 -0.3128
 4900TP3     H226520   1.911   2.322   7.816  1.5824  0.3812 -0.4379
 4901TP3      O26521   0.225   0.067   9.056  0.0770 -0.2437 -0.1025
 4901TP3     H126522   0.203  -0.010   9.109 -1.1220  0.3092  0.2430
 4901TP3     H226523   0.271   0.126   9.117  0.3359 -0.3732 -0.1710
 4902TP3      O26524   2.349   3.843   2.853 -0.7235 -0.3504 -0.2846
 4902TP3     H126525   2.394   3.795   2.923 -1.0752 -1.5570 -0.8499
 4902TP3     H226526   2.261   3.857   2.887 -0.0378  1.9136  0.7765
 4903TP3      O26527   0.481   1.057   2.568 -0.0952  0.4365 -0.1196
 4903TP3     H126528   0.416   1.051   2.498  0.1587 -1.2452 -0.2678
 4903TP3     H226529   0.549   1.114   2.533 -0.6385  0.7564 -0.6781
 4904TP3      O26530   1.189   0.679   2.893  0.2205 -0.1077  0.8231
 4904TP3     H126531   1.266   0.681   2.836 -0.5476 -2.1747 -0.3876
 4904TP3     H226532   1.203   0.601   2.948 -1.7354 -1.5584 -0.6016
 4905TP3      O26533   0.310   2.428   0.733 -0.3147 -0.0543 -0.5505
 4905TP3     H126534   0.369   2.361   0.766  0.5192 -0.3301 -2.4503
 4905TP3     H226535   0.308   2.494   0.802  1.0389 -0.7329  0.1903
 4906TP3      O26536   2.605   5.039   1.815  0.0015 -0.2640 -0.0764
 4906TP3     H126537   2.578   5.120   1.773 -0.9000 -1.1941 -1.4055
 4906TP3     H226538   2.563   4.970   1.762 -0.2115 -1.5518  1.6845
 4907TP3      O26539   1.210   5.209   3.304 -0.0390  0.1609  0.3296
 4907TP3     H126540   1.120   5.178   3.295 -0.1994  0.1310  1.8495
 4907TP3     H226541   1.264   5.133   3.283 -0.3778 -0.0363  0.1686
 4908TP3      O26542   1.182   4.649   9.125  0.2245  0.2830 -0.4715
 4908TP3     H126543   1.158   4.650   9.218 -2.5717  2.8635 -1.0590
 4908TP3     H226544   1.107   4.607   9.082  0.0084  1.9183 -1.7888
 4909TP3      O26545   4.091   1.459   0.246 -0.1790  0.0333  0.0831
 4909TP3     H126546   4.146   1.425   0.176  1.8278 -0.5802  1.8592
 4909TP3     H226547   4.006   1.417   0.233  0.5405 -1.1023 -1.1664
 4910TP3      O26548   4.833   3.651   8.159 -0.1443 -0.0833  0.6916
 4910TP3     H126549   4.890   3.671   8.085 -0.5323  0.2657  0.4769
 4910TP3     H226550   4.847   3.722   8.221 -0.7387  0.2999  0.3984
 4911TP3      O26551   4.732   4.679   9.548 -0.1483 -0.0479 -0.3885
 4911TP3     H126552   4.714   4.722   9.465  1.8249 -1.4322 -1.6175
 4911TP3     H226553   4.795   4.736   9.592 -1.0695  0.6037  0.1059
 4912TP3      O26554   4.245   0.629   9.791  0.3303 -0.3141 -0.0078
 4912TP3     H126555   4.159   0.605   9.757  0.9070  0.5653 -2.2698
 4912TP3     H226556   4.236   0.720   9.819  0.1798 -0.6471  1.0308
 4913TP3      O26557   4.270   4.405   3.134  0.5825 -0.0057  0.7068
 4913TP3     H126558   4.352   4.377   3.174 -0.2407 -0.6800  1.9710
 4913TP3     H226559   4.202   4.361   3.185 -0.5265 -1.5848 -1.9316
 4914TP3      O26560   0.551   3.213   8.970  0.2924  0.1735 -0.2722
 4914TP3     H126561   0.525   3.305   8.969  0.1766  0.1356 -0.5890
 4914TP3     H226562   0.475   3.168   9.007  1.2959  0.5024  2.4541
 4915TP3      O26563   1.736   5.088   0.414 -0.0379 -0.0364 -0.3780
 4915TP3     H126564   1.716   5.057   0.326  0.1436  0.5088 -0.6183
 4915TP3     H226565   1.714   5.015   0.472 -1.2736  0.0034 -0.7663
 4916TP3      O26566   0.179   4.193   7.517  0.0941  0.0303  0.0504
 4916TP3     H126567   0.201   4.257   7.586  1.9194 -0.3618 -0.1266
 4916TP3     H226568   0.103   4.232   7.473 -0.5997  0.7011  1.7244
 4917TP3      O26569   0.235   3.516   7.675  0.1907  0.1648  0.4171
 4917TP3     H126570   0.220   3.551   7.588  0.0729  0.8384  0.6967
 4917TP3     H226571   0.314   3.462   7.667  0.2094  0.2701 -0.0914
 4918TP3      O26572   2.424   4.892   1.674 -0.0887  0.5517 -0.5895
 4918TP3     H126573   2.357   4.897   1.605 -0.3921 -0.2443 -0.3663
 4918TP3     H226574   2.494   4.840   1.636  0.3616  1.2936 -0.7833
 4919TP3      O26575   3.704   3.813  10.078 -0.5924 -0.1285  0.2767
 4919TP3     H126576   3.667   3.849  10.160  0.3358  0.8142  0.3007
 4919TP3     H226577   3.779   3.869  10.059 -1.2090  0.1319 -1.6225
 4920TP3      O26578   2.389   3.244   3.056  0.1855  0.0331  0.0030
 4920TP3     H126579   2.359   3.311   2.994 -0.0846  1.2986  1.4695
 4920TP3     H226580   2.329   3.251   3.130  0.1164 -1.8829  0.1921
 4921TP3      O26581   0.024   2.421   3.490  0.2170  0.1586  0.5167
 4921TP3     H126582  -0.055   2.368   3.475  0.0816  0.7456 -0.9862
 4921TP3     H226583   0.001   2.507   3.456  1.5580  0.3029 -0.0535
 4922TP3      O26584   1.790   1.849   7.691  0.3606 -0.9188  0.9868
 4922TP3     H126585   1.696   1.866   7.687  0.7131  1.3337 -2.8682
 4922TP3     H226586   1.813   1.818   7.604  3.1376 -2.0534  1.9958
 4923TP3      O26587   2.670   1.007   8.068 -0.6039  1.0120 -0.1989
 4923TP3     H126588   2.739   0.977   8.128 -0.4214  0.7500 -0.5328
 4923TP3     H226589   2.630   0.926   8.036 -0.1013  1.1093 -1.1190
 4924TP3      O26590   1.269   0.460   3.026 -0.1312  0.7207 -0.8272
 4924TP3     H126591   1.364   0.460   3.018  0.1182  0.3609  1.4593
 4924TP3     H226592   1.249   0.388   3.086 -1.9504  0.1955 -1.9692
 4925TP3      O26593   3.512   2.650   1.066  0.1483 -0.3406  0.0638
 4925TP3     H126594   3.433   2.639   1.013  1.7738 -0.8578 -2.4169
 4925TP3     H226595   3.481   2.644   1.157 -2.3956 -2.3852 -0.8148
 4926TP3      O26596   2.294   0.958   1.668  0.0228 -0.3184  0.0208
 4926TP3     H126597   2.278   1.052   1.671  1.0554 -0.1507  0.7374
 4926TP3     H226598   2.209   0.920   1.645 -0.7567  0.6877  1.1110
 4927TP3      O26599   0.008   3.772   2.810 -0.2958 -0.2328 -0.1382
 4927TP3     H126600   0.074   3.709   2.837 -0.1206 -0.1858 -0.4514
 4927TP3     H226601   0.045   3.815   2.733  0.7803  2.1658  1.5771
 4928TP3      O26602   5.050   0.827  10.362 -0.1552 -0.2740  0.7462
 4928TP3     H126603   5.065   0.777  10.281 -2.4699 -0.5507  0.4211
 4928TP3     H226604   5.131   0.876  10.374  1.4506 -2.5249 -0.0403
 4929TP3      O26605   3.371   0.836   0.867 -0.3668 -0.4731 -0.0282
 4929TP3     H126606   3.351   0.882   0.786 -0.0515 -0.1219  0.0879
 4929TP3     H226607   3.384   0.906   0.931 -0.9309 -0.7561  0.4029
 4930TP3      O26608   1.299   0.077   3.067  0.6602 -0.1652  0.2708
 4930TP3     H126609   1.247   0.060   3.146 -1.2971  1.1510 -0.6583
 4930TP3     H226610   1.282   0.001   3.011  0.0500  0.0736  0.1279
 4931TP3      O26611   4.007   3.048  10.303  0.0474 -0.8819  0.3948
 4931TP3     H126612   3.924   3.094  10.311  0.9140  0.8828 -0.2929
 4931TP3     H226613   4.047   3.056  10.389  0.4677  0.2305  0.1048
 4932TP3      O26614   1.834   3.257   9.540  0.2121  0.5317  0.3131
 4932TP3     H126615   1.853   3.195   9.470 -0.2347  1.3346 -0.5295
 4932TP3     H226616   1.915   3.258   9.593  0.6235  0.0741 -0.2902
 4933TP3      O26617   0.014   3.085   0.759  0.2927 -0.2945 -0.1946
 4933TP3     H126618   0.075   3.012   0.769 -0.8180 -1.1474  0.6789
 4933TP3     H226619  -0.068   3.052   0.796 -0.3487  1.2595 -0.1762
 4934TP3      O26620   2.515   0.785   8.019 -0.1417  0.0694  0.2188
 4934TP3     H126621   2.569   0.709   8.040 -0.2135  0.2680  1.1561
 4934TP3     H226622   2.430   0.766   8.058 -0.8336 -0.3112 -1.3815
 4935TP3      O26623   3.274   0.488   0.695 -0.5599  0.1094  0.8747
 4935TP3     H126624   3.366   0.512   0.684 -0.0525 -1.3651  1.6225
 4935TP3     H226625   3.226   0.570   0.680  0.8694  0.9253  0.5498
 4936TP3      O26626   4.390   2.598   1.977 -0.6298 -0.6982  0.4292
 4936TP3     H126627   4.405   2.506   2.000 -0.9643 -0.8314  0.1219
 4936TP3     H226628   4.295   2.606   1.969 -0.6592 -0.1064  1.3221
 4937TP3      O26629   1.670   3.326   9.148 -0.1169 -0.2840  0.0051
 4937TP3     H126630   1.700   3.408   9.185  0.0211 -1.1908  2.0581
 4937TP3     H226631   1.574   3.331   9.152 -0.1020 -0.4291  0.6641
 4938TP3      O26632   0.607   0.563   8.121 -0.3249 -0.2066 -0.0213
 4938TP3     H126633   0.529   0.604   8.160  0.2579  0.8751  0.0414
 4938TP3     H226634   0.626   0.488   8.178 -1.1176 -0.2843  0.1526
 4939TP3      O26635   4.953   3.879   0.689 -0.4455  0.7164 -0.3256
 4939TP3     H126636   5.014   3.841   0.753 -0.6334  1.3479  0.2434
 4939TP3     H226637   4.946   3.813   0.620  0.8022  0.5819 -0.3527
 4940TP3      O26638   0.432   5.073   9.280 -0.1525 -0.0280  0.5502
 4940TP3     H126639   0.500   5.009   9.301  0.0846 -1.6093 -4.0072
 4940TP3     H226640   0.479   5.141   9.230 -1.5542 -0.1895 -1.0562
 4941TP3      O26641   2.223   3.502   1.357  0.1459  0.4236 -0.5186
 4941TP3     H126642   2.269   3.469   1.435  0.5895  1.9360 -0.1163
 4941TP3     H226643   2.172   3.427   1.327  0.9545 -0.5743  0.4780
 4942TP3      O26644   4.958   0.546   0.969 -0.1042 -0.1977  0.1091
 4942TP3     H126645   4.911   0.502   1.040 -0.4968  0.0578  0.0142
 4942TP3     H226646   4.987   0.475   0.912 -0.3505 -0.3653  0.1873
 4943TP3      O26647   1.143   5.119   2.759  0.0603 -0.1177  0.1719
 4943TP3     H126648   1.201   5.065   2.813 -1.1280 -1.3280  0.3059
 4943TP3     H226649   1.188   5.127   2.675  1.2048  0.4461  0.8244
 4944TP3      O26650   2.077   5.010   2.540 -0.6744  0.2317 -0.5018
 4944TP3     H126651   2.025   4.957   2.600  1.2004 -1.8920 -0.6114
 4944TP3     H226652   2.029   5.006   2.457 -1.0426 -0.5252 -0.2641
 4945TP3      O26653   0.854   2.946   7.539  0.5318  0.8907 -0.6340
 4945TP3     H126654   0.941   2.921   7.510  0.6866  0.8828 -0.1748
 4945TP3     H226655   0.801   2.868   7.527  0.9909  0.3385  0.7082
 4946TP3      O26656   1.605   0.030   7.376  0.2921  0.3673 -0.5990
 4946TP3     H126657   1.639  -0.031   7.442 -0.3665  0.2612 -0.3488
 4946TP3     H226658   1.584  -0.026   7.301  1.1182  0.4988 -0.9379
 4947TP3      O26659   2.231   0.263   1.631 -0.2911  0.0044 -0.2567
 4947TP3     H126660   2.284   0.184   1.616 -0.6934 -0.0395 -1.5123
 4947TP3     H226661   2.205   0.256   1.723 -0.0565 -1.1761 -0.2551
 4948TP3      O26662   3.447   1.136   0.860  0.1393  0.2733  0.1621
 4948TP3     H126663   3.513   1.205   0.869 -0.5641  0.8420  1.0835
 4948TP3     H226664   3.436   1.102   0.949 -0.5256 -0.0993 -0.0569
 4949TP3      O26665   4.780   2.853   8.352 -0.0588  0.5949 -0.0111
 4949TP3     H126666   4.769   2.941   8.389  0.4518  0.1460  1.2680
 4949TP3     H226667   4.768   2.795   8.427  1.4824 -0.3389 -0.4514
 4950TP3      O26668   3.836   3.228   1.878 -0.1595 -0.0711 -0.1872
 4950TP3     H126669   3.809   3.288   1.808 -0.8397 -0.4261 -0.2315
 4950TP3     H226670   3.760   3.172   1.892 -0.1540  0.2006  1.0606
 4951TP3      O26671   0.415   3.611   1.764  0.1278 -0.2918 -0.1240
 4951TP3     H126672   0.350   3.682   1.763 -0.2461 -0.6230 -1.3618
 4951TP3     H226673   0.458   3.619   1.848 -2.5921 -1.0068  1.4580
 4952TP3      O26674   1.450   4.027   8.829 -0.0735  0.4190  0.2340
 4952TP3     H126675   1.537   4.022   8.788 -0.3979 -0.9500 -0.3630
 4952TP3     H226676   1.394   3.974   8.772 -1.1430  0.6780  1.0128
 4953TP3      O26677   4.732   4.211   0.849  0.3028 -0.3353 -0.0304
 4953TP3     H126678   4.755   4.304   0.852  3.2594 -0.9315 -0.8776
 4953TP3     H226679   4.730   4.183   0.940 -1.8861  0.7419  0.3289
 4954TP3      O26680   4.373   0.488  10.150 -0.4502  0.1672  0.2808
 4954TP3     H126681   4.468   0.483  10.151 -0.4559  0.0224  0.1273
 4954TP3     H226682   4.344   0.403  10.184 -0.5394 -0.7393 -1.8886
 4955TP3      O26683   3.635   5.196   8.722  0.1346 -0.3236 -0.2565
 4955TP3     H126684   3.711   5.241   8.685 -0.3902  1.3069  0.5181
 4955TP3     H226685   3.584   5.168   8.646 -0.0284  1.3681 -0.8168
 4956TP3      O26686   1.063   2.723   7.863  0.0460  0.0402  0.2526
 4956TP3     H126687   1.043   2.657   7.930 -1.5805 -0.0095 -0.2275
 4956TP3     H226688   1.156   2.710   7.844  0.0490 -1.3265  1.0080
 4957TP3      O26689   5.185   1.552   2.428  0.0597  0.5496 -0.6642
 4957TP3     H126690   5.245   1.497   2.479  0.9097  0.1766 -2.0072
 4957TP3     H226691   5.239   1.587   2.358 -1.1393  0.7779 -1.4992
 4958TP3      O26692   4.686   3.397   3.488 -0.0428 -0.2110 -0.1992
 4958TP3     H126693   4.606   3.357   3.454  0.0732  0.7491 -1.6927
 4958TP3     H226694   4.729   3.328   3.538 -1.4564 -0.9432  0.0346
 4959TP3      O26695   5.087   3.998   2.889 -0.2709 -0.0170 -0.6632
 4959TP3     H126696   5.125   3.965   2.808 -1.4726  0.2395 -1.3543
 4959TP3     H226697   4.999   4.026   2.865  0.1237  2.2144  0.2134
 4960TP3      O26698   4.736   1.434   7.189  0.1879 -0.7036 -0.6101
 4960TP3     H126699   4.685   1.482   7.253  0.7138 -0.7277 -0.1624
 4960TP3     H226700   4.781   1.502   7.138  1.7997 -0.7003  0.7371
 4961TP3      O26701   0.236   0.703  10.107 -0.1204  0.1149 -0.4080
 4961TP3     H126702   0.274   0.663  10.030  0.6591 -0.1835  0.1194
 4961TP3     H226703   0.189   0.779  10.074  1.5308  0.9175 -1.0149
 4962TP3      O26704   1.596   4.606   6.639  0.0782 -0.3481 -0.3845
 4962TP3     H126705   1.532   4.566   6.579 -1.2735  1.2704 -0.0989
 4962TP3     H226706   1.544   4.635   6.714  1.4709 -0.6758  0.7554
 4963TP3      O26707   4.592   1.004   2.770  0.3350 -0.6524  0.2721
 4963TP3     H126708   4.628   0.922   2.805 -0.7498 -0.8686  0.9231
 4963TP3     H226709   4.539   1.039   2.842  0.8935  0.6986  0.0495
 4964TP3      O26710   2.245   4.749   2.740 -0.7322  0.2715 -0.3894
 4964TP3     H126711   2.288   4.679   2.690  1.6981  2.1238 -1.1141
 4964TP3     H226712   2.152   4.736   2.723 -0.2681 -1.8422 -1.7685
 4965TP3      O26713   2.217   4.589   3.533 -0.2949 -0.0332  0.3275
 4965TP3     H126714   2.260   4.625   3.455  0.6296 -2.0584 -0.1665
 4965TP3     H226715   2.241   4.496   3.533 -0.6495 -0.1902  2.7913
 4966TP3      O26716   4.834   2.252   0.997 -0.4042  0.4803 -0.5363
 4966TP3     H126717   4.846   2.194   1.072 -1.3564  0.6454 -0.2359
 4966TP3     H226718   4.882   2.210   0.926 -0.9931 -0.6311 -0.2968
 4967TP3      O26719   4.297   4.107   8.119  0.0165 -0.5014  0.3303
 4967TP3     H126720   4.287   4.037   8.054 -1.4025  1.0334 -1.2253
 4967TP3     H226721   4.379   4.150   8.096 -0.1240 -0.4169 -0.0339
 4968TP3      O26722   2.164   3.467   8.116  0.1113  0.4306  0.2273
 4968TP3     H126723   2.206   3.496   8.196 -2.0391  0.4245  1.4358
 4968TP3     H226724   2.076   3.504   8.120 -0.0959  0.3770 -2.1172
 4969TP3      O26725   0.643   1.670   1.736 -0.1871  0.3629 -0.1453
 4969TP3     H126726   0.702   1.601   1.706  1.1864  1.5230 -0.2494
 4969TP3     H226727   0.701   1.735   1.776 -1.3388  1.8246 -0.7587
 4970TP3      O26728   3.348   1.224   8.016  0.1721  0.4435 -0.5039
 4970TP3     H126729   3.260   1.188   8.015  0.5214 -0.5236  1.0162
 4970TP3     H226730   3.337   1.316   8.042 -0.3933  0.3922 -0.5593
 4971TP3      O26731   3.104   4.682  10.150 -0.1756  0.3065 -0.2957
 4971TP3     H126732   3.112   4.671  10.244  2.0948  2.9715 -0.0388
 4971TP3     H226733   3.091   4.594  10.116  1.6737 -1.0809  2.2839
 4972TP3      O26734   4.295   0.222   9.274  0.6394  0.6126 -0.3103
 4972TP3     H126735   4.385   0.203   9.300  0.4826  0.6908  0.3004
 4972TP3     H226736   4.288   0.318   9.280  0.6992  0.6630 -0.9738
 4973TP3      O26737   2.817   1.525   2.313  0.4178  0.3381 -0.0508
 4973TP3     H126738   2.888   1.578   2.277  1.9963 -2.2682 -1.0216
 4973TP3     H226739   2.858   1.443   2.338 -2.2091 -1.2352 -0.4872
 4974TP3      O26740   0.248   2.512   0.481 -0.1638  0.5782  0.2955
 4974TP3     H126741   0.163   2.527   0.440  0.1665 -1.4790 -1.2935
 4974TP3     H226742   0.228   2.456   0.557 -0.2009 -0.5216 -0.4968
 4975TP3      O26743   1.780   3.389   8.650  0.4708  0.1013  1.1788
 4975TP3     H126744   1.722   3.439   8.593  1.2815  2.0371  1.9693
 4975TP3     H226745   1.756   3.297   8.635 -2.2257  0.7829  0.8997
 4976TP3      O26746   1.690   4.169   1.881 -0.0557 -0.3899 -0.1812
 4976TP3     H126747   1.721   4.176   1.791  0.6523 -1.0626 -0.0042
 4976TP3     H226748   1.596   4.154   1.873  0.1531 -1.4460 -0.8554
 4977TP3      O26749   4.148   4.834   8.386 -0.1968  0.7424  0.7544
 4977TP3     H126750   4.224   4.892   8.393  1.2475 -0.9253 -0.1715
 4977TP3     H226751   4.185   4.751   8.355 -2.7316  0.5970 -2.2851
 4978TP3      O26752   2.189   2.003   2.225 -0.0834 -0.1336 -0.4548
 4978TP3     H126753   2.102   1.978   2.193 -1.0735  0.8702  1.2540
 4978TP3     H226754   2.230   1.921   2.251 -1.1417 -0.4989  0.1157
 4979TP3      O26755   1.856   2.571  10.272 -0.0525  0.3291 -0.1410
 4979TP3     H126756   1.825   2.602  10.357  1.0815  2.2306 -0.3561
 4979TP3     H226757   1.944   2.608  10.264  1.0022 -2.1579 -0.9502
 4980TP3      O26758   0.411   1.929   9.122 -0.1285  0.6622  0.4172
 4980TP3     H126759   0.445   1.911   9.210  1.5541  1.6449  0.0168
 4980TP3     H226760   0.382   2.020   9.126 -3.5727 -0.3263  0.9397
 4981TP3      O26761   4.566   3.156   0.986  0.0748  0.2046  0.3206
 4981TP3     H126762   4.618   3.237   0.991  0.9113 -0.2522 -0.6125
 4981TP3     H226763   4.498   3.175   0.922 -0.7118  0.6814  1.2727
 4982TP3      O26764   3.465   4.111   3.054 -0.0632  0.5305 -0.1057
 4982TP3     H126765   3.468   4.158   3.137  0.7236  0.2079  0.0558
 4982TP3     H226766   3.405   4.038   3.070 -1.2336  1.4046 -0.3358
 4983TP3      O26767   0.556   2.785   9.181 -0.1537  0.6171  0.0218
 4983TP3     H126768   0.590   2.874   9.191 -1.2397  1.0437  0.0904
 4983TP3     H226769   0.462   2.797   9.170 -0.2832 -0.5174 -0.2084
 4984TP3      O26770   1.057   1.748   1.129  0.3134 -0.2089  1.0597
 4984TP3     H126771   1.116   1.708   1.194  2.2152  1.9385  0.7605
 4984TP3     H226772   1.087   1.838   1.122 -1.8635  0.4547 -0.5438
 4985TP3      O26773   1.651   4.107   9.022  0.1116 -0.3344 -0.2239
 4985TP3     H126774   1.718   4.040   9.037  0.4572 -0.5535 -2.4108
 4985TP3     H226775   1.578   4.058   8.984 -0.3921  0.2612 -0.0292
 4986TP3      O26776   2.540   2.438   1.860  0.4801 -0.3043 -0.7289
 4986TP3     H126777   2.610   2.490   1.900 -0.6569  1.3681 -0.8143
 4986TP3     H226778   2.569   2.425   1.770  2.9632 -3.9115  0.3822
 4987TP3      O26779   4.718   4.879   3.037 -0.7435  0.2554 -0.1044
 4987TP3     H126780   4.729   4.784   3.044  0.7770  0.4023 -0.1624
 4987TP3     H226781   4.726   4.911   3.127  1.6504  0.5489 -0.3361
 4988TP3      O26782   4.522   2.669   7.050 -0.0019 -0.2078 -0.1508
 4988TP3     H126783   4.516   2.726   7.128 -3.0884 -0.7532  0.1290
 4988TP3     H226784   4.495   2.725   6.978 -2.8844 -1.1477  0.0988
 4989TP3      O26785   4.847   2.958  10.122  0.4625 -0.0175  0.1066
 4989TP3     H126786   4.820   2.978  10.211 -1.0220 -0.9224 -0.1210
 4989TP3     H226787   4.770   2.976  10.068  1.3499  0.5915 -1.0259
 4990TP3      O26788   1.409   3.982   0.084  0.2328  0.5731  0.0837
 4990TP3     H126789   1.445   4.046   0.021 -0.0015  0.4995 -0.1283
 4990TP3     H226790   1.314   3.994   0.077  0.2166  1.0009  0.8806
 4991TP3      O26791   0.448   3.738   7.513  0.2042 -0.5639 -0.4174
 4991TP3     H126792   0.431   3.814   7.457  0.5786 -0.6541 -0.6523
 4991TP3     H226793   0.407   3.665   7.467 -0.8573 -0.3903  0.1923
 4992TP3      O26794   4.365   4.636  10.244 -0.9043  0.4432  0.0156
 4992TP3     H126795   4.438   4.693  10.221 -1.4177  0.5435 -1.4987
 4992TP3     H226796   4.353   4.648  10.338  1.7987 -0.5217  0.5469
 4993TP3      O26797   2.563   1.004   1.010  0.1177 -0.4531  0.2660
 4993TP3     H126798   2.594   1.094   1.010 -1.9296  0.3331 -0.6193
 4993TP3     H226799   2.478   1.008   1.054 -0.1557 -1.8962 -0.0638
 4994TP3      O26800   1.118   5.009   0.960  0.0303 -0.4915  0.2401
 4994TP3     H126801   1.210   5.028   0.978  0.2295 -0.1622 -0.9775
 4994TP3     H226802   1.071   5.087   0.989  0.0431 -0.9357  1.4911
 4995TP3      O26803   0.429   1.351   2.261 -0.3045  0.3995 -0.2834
 4995TP3     H126804   0.474   1.341   2.345  0.2029  0.8679 -0.4978
 4995TP3     H226805   0.408   1.261   2.235 -0.5869  0.2543  0.4063
 4996TP3      O26806   3.789   3.372  10.019  0.5339  0.1553  0.0412
 4996TP3     H126807   3.865   3.387   9.963  1.1065  0.5229  0.9059
 4996TP3     H226808   3.726   3.440   9.992  1.1858  0.9573  0.5096
 4997TP3      O26809   3.201   1.351   2.845  0.7702 -0.2389  0.4921
 4997TP3     H126810   3.244   1.306   2.918  0.5252 -2.6999 -0.7596
 4997TP3     H226811   3.108   1.333   2.857  0.6658 -0.0901 -0.0702
 4998TP3      O26812   0.825   3.417   2.117 -0.0569  0.0597  0.2296
 4998TP3     H126813   0.870   3.351   2.170  0.3518  0.9954  1.0854
 4998TP3     H226814   0.893   3.483   2.099 -0.6571  0.6396  0.0615
 4999TP3      O26815   1.201   1.344   0.072 -0.0727 -0.9600 -0.5087
 4999TP3     H126816   1.271   1.279   0.072  0.4411 -0.4385 -1.6326
 4999TP3     H226817   1.121   1.293   0.081  0.3997 -1.6383 -0.0898
 5000TP3      O26818   4.352   2.925   1.100  0.2886 -0.1760  0.0207
 5000TP3     H126819   4.416   2.965   1.159 -0.0996 -1.0670  1.0984
 5000TP3     H226820   4.392   2.842   1.075  0.7700  0.5127 -1.6012
 5001TP3      O26821   1.818   4.359   7.268 -0.2205  0.0110  0.0033
 5001TP3     H126822   1.899   4.310   7.253  0.2130  0.8972 -0.6624
 5001TP3     H226823   1.834   4.443   7.226 -1.1491  0.5279  0.6648
 5002TP3      O26824   2.477   3.778   9.935  0.2567 -0.0939 -0.5259
 5002TP3     H126825   2.443   3.787   9.846 -3.0547 -1.5175  0.4165
 5002TP3     H226826   2.444   3.856   9.981 -4.0702 -2.4151  0.8964
 5003TP3      O26827   4.878   4.323   1.533  0.1030  0.1866 -0.3084
 5003TP3     H126828   4.973   4.320   1.546  0.4819  2.1742 -2.0873
 5003TP3     H226829   4.866   4.299   1.441 -1.0893  0.3578 -0.2092
 5004TP3      O26830   3.165   3.719   3.387 -0.0738  0.4083  0.6191
 5004TP3     H126831   3.175   3.765   3.470  0.0307 -0.1749  0.9317
 5004TP3     H226832   3.073   3.732   3.363 -0.4892 -0.6437  1.5587
 5005TP3      O26833   3.676   3.364   1.161  0.4255  0.2085  0.2313
 5005TP3     H126834   3.689   3.411   1.079  1.6820  0.6107  0.6321
 5005TP3     H226835   3.587   3.386   1.189 -0.6826 -1.2888 -1.8543
 5006TP3      O26836   2.186   2.517  10.122  0.0865  0.1601 -0.0243
 5006TP3     H126837   2.154   2.583  10.060  0.0113  0.7559  0.6323
 5006TP3     H226838   2.200   2.565  10.203  0.9746 -0.4495  0.1970
 5007TP3      O26839   0.287   3.457  10.092 -0.6924  0.2068 -0.3247
 5007TP3     H126840   0.257   3.420  10.009  1.6866  0.1929 -1.2632
 5007TP3     H226841   0.275   3.386  10.156 -1.7519 -0.0760 -0.8279
 5008TP3      O26842   0.342   4.903   3.416  0.6447 -0.2616  0.1760
 5008TP3     H126843   0.276   4.925   3.482  0.8732 -0.4452  0.4658
 5008TP3     H226844   0.384   4.987   3.395  0.0750 -0.0843 -0.2786
 5009TP3      O26845   3.902   1.595   1.864  0.5780 -0.5593  0.0533
 5009TP3     H126846   3.909   1.516   1.917 -1.3262 -0.3728  0.6763
 5009TP3     H226847   3.984   1.642   1.880  1.5047 -2.1318  0.0819
 5010TP3      O26848   2.221   2.314   2.515  0.5438  0.7774  0.0501
 5010TP3     H126849   2.197   2.390   2.568 -0.1154 -0.4082  1.5153
 5010TP3     H226850   2.138   2.270   2.497  0.9910 -0.0166 -0.1057
 5011TP3      O26851   3.040   4.274   8.886 -0.4592 -0.0296  0.4527
 5011TP3     H126852   3.045   4.268   8.790 -0.9218 -1.6728  0.5001
 5011TP3     H226853   2.951   4.244   8.907  0.8430 -3.4978  1.6075
 5012TP3      O26854   1.539   2.051   2.376  0.5946 -0.1336 -0.1699
 5012TP3     H126855   1.456   2.063   2.423  1.9288 -0.3287  2.4701
 5012TP3     H226856   1.559   2.137   2.341 -0.9765 -0.2178 -1.3784
 5013TP3      O26857   3.194   5.000   1.673  0.3010 -0.2160  0.3423
 5013TP3     H126858   3.143   5.005   1.592  1.0910 -1.2180 -0.2478
 5013TP3     H226859   3.162   4.921   1.717 -0.7403  0.7919  1.4772
 5014TP3      O26860   2.028   4.705   8.327 -0.2478  0.2785 -0.3236
 5014TP3     H126861   1.945   4.746   8.350 -1.2111 -1.3255 -0.7992
 5014TP3     H226862   2.041   4.729   8.235 -0.9500 -0.6526 -0.6834
 5015TP3      O26863   1.402   4.826   8.128 -0.0617 -0.1988 -0.8525
 5015TP3     H126864   1.437   4.805   8.215 -1.3635  0.5867 -0.1121
 5015TP3     H226865   1.353   4.907   8.140 -1.5996 -0.9118 -1.9750
 5016TP3      O26866   3.031   0.326  10.414 -0.0025 -0.1975  0.0792
 5016TP3     H126867   2.967   0.395  10.432  0.0983 -0.3021  0.8570
 5016TP3     H226868   2.992   0.247  10.452  0.4704 -0.3113  0.3327
 5017TP3      O26869   4.613   3.728   1.745  0.0957  0.6600 -0.5804
 5017TP3     H126870   4.618   3.768   1.658 -0.7430  2.2544  0.0543
 5017TP3     H226871   4.645   3.796   1.804  0.4944 -0.3416  0.3870
 5018TP3      O26872   2.621   0.313   2.850  0.0749  0.3713 -0.4258
 5018TP3     H126873   2.611   0.366   2.929  0.5395  0.4885 -0.4402
 5018TP3     H226874   2.600   0.224   2.877  2.6756 -0.0703  0.4976
 5019TP3      O26875   4.412   4.604   1.113  0.0298 -0.5649 -0.9924
 5019TP3     H126876   4.440   4.516   1.088 -1.2309 -0.8977 -1.3206
 5019TP3     H226877   4.434   4.659   1.038 -2.2133 -1.2520 -2.2449
 5020TP3      O26878   2.057   5.013   6.952  0.3372  0.1013 -0.0133
 5020TP3     H126879   2.107   5.088   6.983  0.3451 -0.2453  0.8318
 5020TP3     H226880   1.974   5.018   7.000  0.3663 -0.4703  0.1028
 5021TP3      O26881   1.165   2.075   1.686  0.1797 -0.5096 -0.0903
 5021TP3     H126882   1.133   2.037   1.604 -0.2379 -0.0640 -0.1397
 5021TP3     H226883   1.248   2.030   1.703  0.8907  0.2385 -1.3946
 5022TP3      O26884   3.463   0.655   1.715 -0.5730  0.3870  0.6559
 5022TP3     H126885   3.542   0.709   1.700 -1.0520  0.7818 -0.6666
 5022TP3     H226886   3.476   0.579   1.658  0.0412 -0.9010  2.4276
 5023TP3      O26887   4.905   1.971   7.061 -0.1764 -0.1544 -0.6863
 5023TP3     H126888   4.847   1.953   6.988  0.6362 -1.1907 -1.0891
 5023TP3     H226889   4.988   1.930   7.038  0.7693  1.3648 -0.1628
 5024TP3      O26890   4.946   4.027   1.691  0.0345  0.0007 -0.0538
 5024TP3     H126891   4.993   3.959   1.738 -1.7286  1.4573  4.2531
 5024TP3     H226892   5.001   4.105   1.701 -0.8282  0.5491  0.5129
 5025TP3      O26893   4.732   1.731   2.186  0.1770  0.3391 -0.6740
 5025TP3     H126894   4.675   1.694   2.254  0.3309  0.2025 -0.6198
 5025TP3     H226895   4.685   1.808   2.155 -0.6447 -0.4677 -1.5080
 5026TP3      O26896   0.897   2.288   9.991  0.0146  0.0177  0.6304
 5026TP3     H126897   0.942   2.338  10.059 -1.7145  0.1950  1.7059
 5026TP3     H226898   0.913   2.196  10.013  0.9451  0.0781  0.2250
 5027TP3      O26899   5.093   3.086  10.036  0.4653 -0.0125 -0.8329
 5027TP3     H126900   5.066   3.049   9.952  2.4428  0.3121 -1.6677
 5027TP3     H226901   5.032   3.048  10.099  1.1389 -3.1532 -1.9014
 5028TP3      O26902   4.512   1.570   3.122 -0.1224 -0.1184  0.0028
 5028TP3     H126903   4.442   1.588   3.059  0.1736  0.5706 -0.1394
 5028TP3     H226904   4.474   1.592   3.207 -0.4782 -0.9218  0.0628
 5029TP3      O26905   3.200   3.434   7.850  0.1289 -0.2945  0.0787
 5029TP3     H126906   3.134   3.502   7.836  0.6280  0.4900  1.4077
 5029TP3     H226907   3.151   3.358   7.880 -0.2580  0.0111  0.2160
 5030TP3      O26908   3.326   1.098   2.056  0.1158 -1.1770 -0.0248
 5030TP3     H126909   3.242   1.059   2.031  0.5028 -2.8686  1.0860
 5030TP3     H226910   3.357   1.042   2.127  1.5662  0.2121  0.4838
 5031TP3      O26911   4.340   4.359  10.207 -0.1697 -0.4613 -0.1110
 5031TP3     H126912   4.424   4.365  10.161  0.5372 -2.3966  0.8602
 5031TP3     H226913   4.338   4.438  10.262  0.9468 -0.3278 -0.2329
 5032TP3      O26914   2.989   3.096   2.230 -0.1914  0.3094  0.2122
 5032TP3     H126915   2.951   3.009   2.236 -1.1161  0.7867  1.8946
 5032TP3     H226916   3.036   3.096   2.146  1.0712 -2.2480  0.8212
 5033TP3      O26917   0.417   1.174   9.502 -0.3347 -0.8534  0.3274
 5033TP3     H126918   0.417   1.251   9.559  0.3331 -0.6414  0.0622
 5033TP3     H226919   0.327   1.167   9.471 -0.4057 -0.1795  0.3681
 5034TP3      O26920   4.988   1.530   1.235  0.6215 -0.2859  0.1673
 5034TP3     H126921   4.950   1.517   1.148 -0.0318  0.4050  0.3400
 5034TP3     H226922   4.994   1.442   1.271  1.1893 -0.6152 -0.6935
 5035TP3      O26923   3.987   1.627   2.475  0.0769  0.6343  0.0146
 5035TP3     H126924   4.053   1.576   2.429  3.0287  2.1271  2.2615
 5035TP3     H226925   3.963   1.573   2.550  0.7415  1.1810  0.6243
 5036TP3      O26926   3.775   2.826  10.182 -0.5987  0.1410 -0.1265
 5036TP3     H126927   3.817   2.743  10.204 -1.6350 -0.3134  0.2030
 5036TP3     H226928   3.768   2.872  10.265  0.4543  0.8013 -0.3918
 5037TP3      O26929   2.717   3.701  10.084 -0.1648 -0.0918 -0.1833
 5037TP3     H126930   2.670   3.731  10.162  0.9364 -0.9004  0.8334
 5037TP3     H226931   2.652   3.651  10.035 -0.7378 -0.0570  0.5235
 5038TP3      O26932   0.941   0.122  10.148  0.1748  0.0034  0.0539
 5038TP3     H126933   1.027   0.158  10.172 -0.0612  0.7399 -0.1878
 5038TP3     H226934   0.958   0.029  10.132  1.1034  0.2911 -0.7813
 5039TP3      O26935   1.234   2.016   2.772  0.3496  0.5863 -0.2182
 5039TP3     H126936   1.219   2.068   2.851 -1.0228  3.0804 -1.9999
 5039TP3     H226937   1.329   2.007   2.768  0.5574  1.8893  0.8473
 5040TP3      O26938   4.202   4.789   8.844 -0.4686 -0.3996 -0.2287
 5040TP3     H126939   4.129   4.772   8.785 -0.2779  0.3214 -0.6810
 5040TP3     H226940   4.186   4.732   8.920 -0.6497 -1.4345 -1.0218
 5041TP3      O26941   1.675   4.985   8.073 -0.2659 -0.3445 -0.4556
 5041TP3     H126942   1.610   5.046   8.036 -0.3024  1.0130  1.6559
 5041TP3     H226943   1.663   4.993   8.168  2.6198 -0.4569 -0.0072
 5042TP3      O26944   2.263   3.833   3.375 -0.2487  0.4433 -0.0051
 5042TP3     H126945   2.304   3.793   3.452  0.3505  1.2893  0.1220
 5042TP3     H226946   2.321   3.905   3.351 -0.5291  0.3038 -1.1470
 5043TP3      O26947   3.334   1.186   1.742 -0.2144  0.0464  0.5636
 5043TP3     H126948   3.341   1.151   1.831  2.2807 -1.2312 -0.0474
 5043TP3     H226949   3.421   1.219   1.722 -1.0280  1.3855 -1.0328
 5044TP3      O26950   2.935   0.020   8.607 -0.1700 -0.0535 -0.7273
 5044TP3     H126951   2.913   0.084   8.539 -0.3005  0.8382  0.1460
 5044TP3     H226952   3.009   0.059   8.653 -1.0228  0.0423  0.5936
 5045TP3      O26953   2.461   0.936   3.409 -0.4002 -0.0272  0.2029
 5045TP3     H126954   2.440   0.992   3.484 -0.0726  0.6522 -0.2009
 5045TP3     H226955   2.453   0.994   3.334  2.3709  0.1377 -0.0346
 5046TP3      O26956   0.720   1.259   2.735  0.2344 -0.3666  0.1038
 5046TP3     H126957   0.762   1.185   2.780 -0.7593 -0.9243  0.1274
 5046TP3     H226958   0.706   1.323   2.804  0.6574 -0.3477  0.1770
 5047TP3      O26959   1.048   1.544   7.605  0.6285 -0.1174 -0.2198
 5047TP3     H126960   1.090   1.578   7.684  0.7849  0.3080 -0.4821
 5047TP3     H226961   1.117   1.544   7.539  0.9323 -2.0146  0.0544
 5048TP3      O26962   5.047   2.963   1.802  0.4170  0.1772  0.2513
 5048TP3     H126963   4.973   2.917   1.843 -1.0361  0.7376 -1.6171
 5048TP3     H226964   5.081   2.901   1.738 -0.1394  0.8364 -0.7176
 5049TP3      O26965   2.499   3.273   8.505 -0.1658  0.0174  0.2030
 5049TP3     H126966   2.480   3.222   8.427 -2.3846 -0.3903  0.9488
 5049TP3     H226967   2.470   3.361   8.484 -1.7524 -0.3131  0.8752
 5050TP3      O26968   4.293   2.226   6.923 -0.8613  0.0756 -0.2905
 5050TP3     H126969   4.372   2.279   6.910  0.0808 -0.2600  3.0055
 5050TP3     H226970   4.221   2.283   6.898  0.3303  0.9522 -1.9290
 5051TP3      O26971   1.727   4.893   2.392  0.0266  0.2674 -0.1178
 5051TP3     H126972   1.773   4.838   2.455  1.4338 -0.8069 -1.9727
 5051TP3     H226973   1.788   4.964   2.372 -0.6534  0.9503  0.1571
 5052TP3      O26974   2.475   4.330   8.207  0.1791 -0.0320 -0.3194
 5052TP3     H126975   2.392   4.354   8.165  1.2733  0.1491 -2.4905
 5052TP3     H226976   2.521   4.413   8.219 -0.7426  0.1442  2.8832
 5053TP3      O26977   4.015   2.917   0.251 -0.2896 -0.1444 -0.0149
 5053TP3     H126978   4.054   2.829   0.261 -1.0128 -0.2499  2.6350
 5053TP3     H226979   3.924   2.905   0.277 -0.0752  1.6052  1.7591
 5054TP3      O26980   2.633   4.095   3.373  0.0777  0.2621  0.1027
 5054TP3     H126981   2.682   4.032   3.319  0.6855 -1.1213  2.1351
 5054TP3     H226982   2.701   4.146   3.417 -0.4118  2.3508 -1.4078
 5055TP3      O26983   1.287   0.526   8.364  0.7165 -0.2318 -0.2336
 5055TP3     H126984   1.259   0.615   8.347 -0.2974 -0.5542 -0.2870
 5055TP3     H226985   1.286   0.484   8.278  1.5704 -0.2009 -0.2686
 5056TP3      O26986   5.225   4.630   2.864  0.4223  0.1350  0.0155
 5056TP3     H126987   5.281   4.592   2.932  0.4709 -1.1383 -0.7106
 5056TP3     H226988   5.261   4.596   2.782 -0.3868  0.6661 -0.5741
 5057TP3      O26989   3.959   4.965   2.834 -0.7248 -0.3579  0.0662
 5057TP3     H126990   3.965   5.050   2.877  0.3121 -2.3849  4.6253
 5057TP3     H226991   4.026   4.967   2.766  1.1296  1.6608  1.8029
 5058TP3      O26992   2.080   1.754   0.768  0.3745 -0.3879 -0.0584
 5058TP3     H126993   2.045   1.795   0.847 -0.4850  0.2723 -0.7683
 5058TP3     H226994   2.174   1.748   0.784 -0.0150 -2.3265  1.9439
 5059TP3      O26995   2.696   2.013   8.596  0.2770 -0.6125  0.0421
 5059TP3     H126996   2.787   1.987   8.581  0.5030 -1.7093  2.7386
 5059TP3     H226997   2.647   1.931   8.595 -0.5332 -0.1357 -0.3754
 5060TP3      O26998   4.765   0.398   7.653 -0.3132 -0.6878 -0.1166
 5060TP3     H126999   4.775   0.492   7.635 -0.8862 -0.9195 -1.8337
 5060TP3     H227000   4.830   0.356   7.597  0.5174 -1.3113  1.2507
 5061TP3      O27001   3.039   1.563   3.355  0.4739 -0.0890  0.3272
 5061TP3     H127002   3.100   1.495   3.384  0.0442 -0.1170  1.1982
 5061TP3     H227003   2.975   1.517   3.301  0.2388 -0.3662  0.8374
 5062TP3      O27004   3.375   4.073   1.261  0.2900  0.0541 -0.0024
 5062TP3     H127005   3.428   3.999   1.290 -0.6332  0.0004  1.6769
 5062TP3     H227006   3.294   4.033   1.229  1.0980  0.1484 -2.3638
 5063TP3      O27007   1.930   1.612   1.972  0.5015 -0.3683  0.1803
 5063TP3     H127008   1.847   1.564   1.974  0.4994 -0.4074 -0.5023
 5063TP3     H227009   1.912   1.694   2.019 -0.0290 -0.2159 -0.2793
 5064TP3      O27010   0.497   0.191   3.440  0.8034 -0.0237 -0.1328
 5064TP3     H127011   0.511   0.172   3.533 -0.0490 -2.2639 -0.4124
 5064TP3     H227012   0.556   0.133   3.394  0.7911  0.6462 -1.0264
 5065TP3      O27013   2.961   4.814   0.445 -0.4449  0.3779 -0.5621
 5065TP3     H127014   2.880   4.773   0.476 -1.6097  2.6640 -0.3910
 5065TP3     H227015   2.991   4.866   0.520  1.0568 -0.1911 -0.7347
 5066TP3      O27016   3.497   0.153   9.567  0.0510  0.2284  0.0950
 5066TP3     H127017   3.582   0.183   9.598 -0.1114 -0.5988  1.4546
 5066TP3     H227018   3.518   0.080   9.508  0.3182  1.0268 -0.8278
 5067TP3      O27019   0.921   5.091   2.291 -0.1629 -0.7687 -0.1416
 5067TP3     H127020   0.951   5.001   2.275  2.1467 -0.1358  0.2867
 5067TP3     H227021   0.875   5.115   2.211  0.6257 -1.7686 -0.9285
 5068TP3      O27022   5.174   4.447   6.903 -0.2255 -0.3632 -0.0594
 5068TP3     H127023   5.261   4.488   6.897  0.0513 -0.8896  0.2492
 5068TP3     H227024   5.192   4.358   6.933 -0.9089 -0.3473  0.4166
 5069TP3      O27025   1.386   3.940   8.212  0.0134 -0.4662  0.0258
 5069TP3     H127026   1.334   3.999   8.266  0.9346  0.7864 -0.4165
 5069TP3     H227027   1.344   3.943   8.126  0.2257 -0.2201 -0.0715
 5070TP3      O27028   3.203   4.827   9.122  0.2142 -0.2527  0.3819
 5070TP3     H127029   3.253   4.901   9.156  1.5638 -0.2599 -1.4376
 5070TP3     H227030   3.144   4.864   9.057 -0.1936 -0.5920  0.5534
 5071TP3      O27031   3.572   2.203   0.424  0.5414 -0.9485 -0.4324
 5071TP3     H127032   3.620   2.273   0.468 -0.8114 -0.7980  0.9030
 5071TP3     H227033   3.566   2.230   0.333  0.1122  0.6637  0.0479
 5072TP3      O27034   4.078   4.131   0.477 -0.8666  0.9654  0.3293
 5072TP3     H127035   3.998   4.116   0.427 -1.5989  0.1915  1.6863
 5072TP3     H227036   4.087   4.054   0.532 -0.0668  1.7635  1.3683
 5073TP3      O27037   1.687   3.831   1.597 -0.7348 -0.2192 -0.2270
 5073TP3     H127038   1.635   3.850   1.675 -1.8678 -1.9304 -0.5181
 5073TP3     H227039   1.635   3.768   1.548  0.7419 -0.4856 -1.5335
 5074TP3      O27040   4.360   2.263   9.119 -0.1610 -0.2933 -0.8062
 5074TP3     H127041   4.270   2.255   9.087 -1.0957  1.8559  1.0573
 5074TP3     H227042   4.355   2.234   9.210  0.2785  2.7201  0.2850
 5075TP3      O27043   0.697   1.996   7.705 -0.2259  0.2901 -0.3500
 5075TP3     H127044   0.701   2.036   7.618  0.2056  0.7029 -0.1483
 5075TP3     H227045   0.625   1.934   7.700 -1.9239  2.1544 -0.2385
 5076TP3      O27046   2.988   4.294   1.422 -0.2459 -0.4285  0.6915
 5076TP3     H127047   2.949   4.231   1.362 -0.7844  2.5199 -2.3327
 5076TP3     H227048   2.918   4.316   1.483 -1.6452  0.5782 -1.1655
 5077TP3      O27049   5.066   0.515   0.098 -0.2437 -0.4607  0.8196
 5077TP3     H127050   5.117   0.476   0.169  0.4518 -2.3934 -0.6437
 5077TP3     H227051   5.118   0.498   0.019  0.0595  3.4841 -0.0268
 5078TP3      O27052   2.452   0.020   6.801 -0.0950  0.0260  0.5622
 5078TP3     H127053   2.380   0.076   6.771 -2.0378 -1.5839  1.9889
 5078TP3     H227054   2.476   0.057   6.886  0.5969  0.3754  0.2248
 5079TP3      O27055   0.403   4.837   2.975  0.5734  0.3816  0.1501
 5079TP3     H127056   0.353   4.807   3.050  0.4684  0.9617  0.3183
 5079TP3     H227057   0.458   4.908   3.009  0.4912  0.6784 -0.3221
 5080TP3      O27058   1.618   2.268   0.509 -0.0812  0.6492  0.0739
 5080TP3     H127059   1.600   2.183   0.548 -3.4171  2.2126  2.4178
 5080TP3     H227060   1.603   2.256   0.416  2.1369 -1.8242 -0.0756
 5081TP3      O27061   1.024   3.766   2.244 -0.3927  0.7179 -0.5306
 5081TP3     H127062   1.017   3.671   2.252 -2.9945  0.9006 -0.0370
 5081TP3     H227063   0.972   3.787   2.167  0.1252  1.7654 -0.6076
 5082TP3      O27064   3.877   2.600  10.256 -0.0621  0.0765 -0.2541
 5082TP3     H127065   3.967   2.604  10.225 -0.3721  0.6173 -1.1215
 5082TP3     H227066   3.842   2.520  10.218  0.8259 -1.6643  2.3343
 5083TP3      O27067   3.130   4.281   2.444 -0.3663 -0.9139  0.2990
 5083TP3     H127068   3.191   4.209   2.435  1.4513  0.6642 -0.7601
 5083TP3     H227069   3.086   4.287   2.359  0.0440 -0.3471  0.1146
 5084TP3      O27070   3.203   4.910   3.359 -0.2861 -0.3469  0.3065
 5084TP3     H127071   3.287   4.866   3.345  0.1055 -0.2113  2.0057
 5084TP3     H227072   3.205   4.936   3.452 -2.3236 -0.5894  0.4568
 5085TP3      O27073   0.803   4.382   2.405 -0.1084  0.3167  0.3302
 5085TP3     H127074   0.709   4.398   2.413  0.0685  1.7965 -0.2253
 5085TP3     H227075   0.816   4.357   2.314 -0.0887 -0.9974  0.6753
 5086TP3      O27076   1.563   0.435   8.309  0.3415 -0.4195  0.8228
 5086TP3     H127077   1.549   0.508   8.249 -0.3277 -0.1310  1.3112
 5086TP3     H227078   1.513   0.363   8.271  1.5245 -0.8367 -0.0035
 5087TP3      O27079   3.653   1.339   8.824 -0.5185 -0.0210 -0.0795
 5087TP3     H127080   3.714   1.372   8.890 -1.2016  1.2713 -0.0733
 5087TP3     H227081   3.577   1.310   8.874 -0.5139 -0.2664 -0.2101
 5088TP3      O27082   2.545   5.194   0.026  0.1864  0.0308  0.6240
 5088TP3     H127083   2.580   5.173   0.113 -0.9693  0.4848  1.2226
 5088TP3     H227084   2.613   5.166  -0.035  0.8616 -0.6413  1.6577
 5089TP3      O27085   2.657   2.111   8.965  0.8769 -0.1444 -0.1118
 5089TP3     H127086   2.660   2.157   9.049  2.2214  0.2839 -0.3654
 5089TP3     H227087   2.698   2.027   8.983  0.6907 -0.2584 -0.2228
 5090TP3      O27088   2.456   0.539   2.255  0.2738  0.4156  0.1414
 5090TP3     H127089   2.436   0.567   2.344 -0.4823 -0.4998  0.2735
 5090TP3     H227090   2.481   0.447   2.263 -1.4240 -0.1787 -0.7506
 5091TP3      O27091   4.869   3.650   1.025 -1.1256  0.1055  0.1772
 5091TP3     H127092   4.798   3.708   1.053 -1.5591 -0.5894  0.5358
 5091TP3     H227093   4.943   3.709   1.010 -1.9732  0.9342 -0.9119
 5092TP3      O27094   5.040   4.313   9.708 -0.2070  0.1005  0.6337
 5092TP3     H127095   5.032   4.257   9.785 -2.2441 -1.1638 -0.4048
 5092TP3     H227096   5.013   4.399   9.738  0.8087  0.0527  1.7447
 5093TP3      O27097   4.978   3.158   2.972 -0.0398  0.3499 -0.2282
 5093TP3     H127098   4.897   3.116   2.943 -0.6546  1.4522 -0.1482
 5093TP3     H227099   4.957   3.194   3.059  1.0613 -0.8296  0.5738
 5094TP3      O27100   0.059   1.367   8.025 -0.3947  0.3593 -0.4265
 5094TP3     H127101  -0.004   1.414   7.971  0.9627  3.4534  0.4640
 5094TP3     H227102   0.145   1.400   7.998  0.5382 -0.4328  1.3408
 5095TP3      O27103   1.037   2.204   8.480  0.2982  0.0589  0.2369
 5095TP3     H127104   0.994   2.172   8.560 -1.4310  1.6695  0.0066
 5095TP3     H227105   0.969   2.199   8.413  2.2369 -3.1888 -1.7738
 5096TP3      O27106   1.121   3.455   9.661  0.1171  0.3726  0.2379
 5096TP3     H127107   1.101   3.548   9.650 -0.7376  0.4960  2.3236
 5096TP3     H227108   1.056   3.410   9.608  0.2099  0.9510 -0.3758
 5097TP3      O27109   1.118   4.999   9.588 -0.1600 -0.0676 -0.4820
 5097TP3     H127110   1.149   5.087   9.611  0.7936 -0.6280  0.4515
 5097TP3     H227111   1.179   4.940   9.633 -0.6971 -1.2072 -1.2260
 5098TP3      O27112   2.715   2.499   2.281 -0.2031 -0.2944  0.7956
 5098TP3     H127113   2.636   2.530   2.237  0.7982  0.8859 -0.2456
 5098TP3     H227114   2.761   2.447   2.215  0.1208 -0.5900  1.2443
 5099TP3      O27115   5.021   2.477  10.224  0.4148  0.0399 -0.5949
 5099TP3     H127116   5.025   2.466  10.319  0.6479  0.9555 -0.4841
 5099TP3     H227117   5.106   2.447  10.193 -0.0748 -1.3312 -0.6465
 5100TP3      O27118   2.992   1.429   8.169 -0.5490 -0.6134  0.2567
 5100TP3     H127119   3.060   1.408   8.232 -0.3544  0.3868  0.3982
 5100TP3     H227120   3.007   1.521   8.146 -0.8985 -0.8227 -0.8969
 5101TP3      O27121   4.999   1.015   3.553  0.0282 -0.3717  0.7985
 5101TP3     H127122   4.916   1.026   3.598 -0.0719 -1.1477  0.8100
 5101TP3     H227123   5.061   0.992   3.622  0.1284 -0.3954  0.7008
 5102TP3      O27124   4.478   0.204   0.996 -0.3560  0.0427  0.1598
 5102TP3     H127125   4.422   0.246   1.061 -0.4378  1.0867 -0.5665
 5102TP3     H227126   4.420   0.183   0.923 -0.6009 -2.6317  1.0441
 5103TP3      O27127   1.243   3.447  10.250 -0.2634 -0.2314 -0.1866
 5103TP3     H127128   1.176   3.513  10.269 -0.5196  0.9115 -4.1846
 5103TP3     H227129   1.194   3.374  10.213  0.5033 -0.2657 -1.1497
 5104TP3      O27130   5.150   4.059   1.389  0.0385  0.5690 -0.6717
 5104TP3     H127131   5.125   3.989   1.449  1.8376  1.6064  1.4503
 5104TP3     H227132   5.077   4.121   1.392 -0.4319  0.0069 -0.5256
 5105TP3      O27133   2.495   2.771  10.344  0.7135 -0.5880 -0.4662
 5105TP3     H127134   2.503   2.866  10.336  0.5189 -0.3743  1.3996
 5105TP3     H227135   2.514   2.753  10.436 -1.0013 -2.1564 -0.3583
 5106TP3      O27136   4.752   4.554   3.208 -0.1297 -0.4224  0.0750
 5106TP3     H127137   4.841   4.540   3.241  0.2658 -0.8256 -1.1172
 5106TP3     H227138   4.714   4.618   3.268  1.5393  1.0551 -0.3708
 5107TP3      O27139   4.914   2.793   8.985 -0.4324 -0.7867  0.3436
 5107TP3     H127140   4.904   2.715   8.930 -1.3296 -0.9564  0.7196
 5107TP3     H227141   4.853   2.856   8.948  1.4054  0.3357 -0.9266
 5108TP3      O27142   1.458   2.227   3.118  0.1950 -0.3242 -0.1453
 5108TP3     H127143   1.511   2.261   3.045  0.3146 -0.9877 -0.3734
 5108TP3     H227144   1.520   2.218   3.190  0.6762 -2.1390 -0.7223
 5109TP3      O27145   3.357   1.753   9.254 -0.4543 -0.4964 -0.2279
 5109TP3     H127146   3.346   1.840   9.291  1.0782  0.4543 -1.9048
 5109TP3     H227147   3.452   1.740   9.251 -0.6460 -2.0627 -0.4096
 5110TP3      O27148   1.374   2.578  10.288 -0.9123 -0.5248 -0.5796
 5110TP3     H127149   1.347   2.641  10.222 -2.6567  1.2288  1.6291
 5110TP3     H227150   1.324   2.499  10.268  0.7587 -1.0735 -2.9610
 5111TP3      O27151   4.726   3.363   3.078 -0.3324  0.8041 -0.5378
 5111TP3     H127152   4.774   3.390   3.156 -0.6830  0.7798 -0.3080
 5111TP3     H227153   4.775   3.400   3.005  1.0894 -0.7832 -0.4381
 5112TP3      O27154   0.144   4.280   8.283  0.1060 -0.5454 -0.7383
 5112TP3     H127155   0.077   4.218   8.254  0.3764 -1.8247  1.1595
 5112TP3     H227156   0.100   4.365   8.284 -1.8650 -1.4705  1.3080
 5113TP3      O27157   0.738   2.764  10.192 -0.3261 -0.1453  0.8480
 5113TP3     H127158   0.673   2.823  10.155  2.2930  0.8065 -2.7439
 5113TP3     H227159   0.786   2.817  10.256 -1.0653  0.0931  1.2100
 5114TP3      O27160   2.715   1.011   7.122  0.0960 -0.6404  0.5767
 5114TP3     H127161   2.803   1.022   7.159  0.4076  0.9718 -0.5301
 5114TP3     H227162   2.658   1.054   7.186  0.1760 -1.1838  1.0178
 5115TP3      O27163   1.920   2.609   1.314 -0.2289  0.1011 -0.2514
 5115TP3     H127164   1.851   2.629   1.251  0.6304 -0.3828 -1.3807
 5115TP3     H227165   1.967   2.691   1.326  0.9763 -0.2849 -1.9929
 5116TP3      O27166   3.128   4.926   2.436 -0.4404  0.4731  0.0355
 5116TP3     H127167   3.202   4.877   2.472 -0.3215  1.5526  1.3323
 5116TP3     H227168   3.051   4.875   2.463 -0.2138 -0.4813 -1.0456
 5117TP3      O27169   1.856   0.721   0.139  0.3309  0.6074  0.0905
 5117TP3     H127170   1.910   0.687   0.068 -1.3436 -0.3111 -0.7923
 5117TP3     H227171   1.768   0.730   0.101 -0.0127  2.8618  1.2304
 5118TP3      O27172   4.518   0.019  10.178 -0.1820 -0.2827 -0.5627
 5118TP3     H127173   4.463   0.046  10.105  0.9719 -0.2215 -1.4508
 5118TP3     H227174   4.487   0.070  10.253 -0.4610  0.7296 -1.3467
 5119TP3      O27175   1.643   0.997   1.382  0.5874  0.2341 -0.2524
 5119TP3     H127176   1.573   0.956   1.432  1.3948  0.7865  1.4210
 5119TP3     H227177   1.650   0.945   1.302 -1.1476 -0.3230 -0.0802
 5120TP3      O27178   4.127   0.620   9.356 -0.8488  0.6515  0.5304
 5120TP3     H127179   4.040   0.596   9.388 -1.3165 -0.2356 -1.2578
 5120TP3     H227180   4.118   0.710   9.326 -0.8216  0.9503  1.3928
 5121TP3      O27181   3.137   1.372   9.995 -0.1408 -0.0022 -0.0889
 5121TP3     H127182   3.217   1.320   9.995 -0.9242 -1.3230  1.3495
 5121TP3     H227183   3.076   1.323   9.939 -0.1502  0.6461 -0.6520
 5122TP3      O27184   1.407   4.208   3.014 -0.4895 -0.8464 -0.0345
 5122TP3     H127185   1.340   4.155   3.057  0.2773 -1.8686 -0.0550
 5122TP3     H227186   1.456   4.248   3.086  0.6145 -2.3306  0.0906
 5123TP3      O27187   4.465   4.750   8.705 -0.0213  0.2303 -0.2270
 5123TP3     H127188   4.413   4.777   8.781 -1.1120  1.5539 -1.3868
 5123TP3     H227189   4.510   4.830   8.678 -0.1889 -0.0452 -1.3713
 5124TP3      O27190   5.183   3.666   9.307  0.3023 -0.2243  0.0782
 5124TP3     H127191   5.157   3.583   9.268  0.8387  0.0652 -0.9181
 5124TP3     H227192   5.181   3.729   9.234  1.7511  0.2396  0.4186
 5125TP3      O27193   3.707   0.327   8.831 -0.1304  0.2439 -0.0588
 5125TP3     H127194   3.786   0.381   8.839  0.2170 -0.1242 -0.8409
 5125TP3     H227195   3.665   0.359   8.751 -1.4768  1.3092  1.0396
 5126TP3      O27196   3.150   3.927   1.219  0.7070 -0.0672  0.2640
 5126TP3     H127197   3.175   3.892   1.304 -0.3634 -2.5708 -0.3627
 5126TP3     H227198   3.179   3.861   1.156  0.2947  1.0969 -1.2207
 5127TP3      O27199   3.683   4.391   0.312 -0.1274  0.1601  0.3360
 5127TP3     H127200   3.604   4.346   0.281 -0.2580 -0.4798  1.5237
 5127TP3     H227201   3.733   4.409   0.233 -0.7984 -0.7104 -0.3117
 5128TP3      O27202   2.745   3.630   1.798  0.0889  0.4851  0.3611
 5128TP3     H127203   2.763   3.548   1.751  1.6336  0.7173  0.5198
 5128TP3     H227204   2.650   3.639   1.792 -0.2807 -1.9310  1.3663
 5129TP3      O27205   4.826   1.727   8.755 -0.1300  0.1132 -0.0309
 5129TP3     H127206   4.808   1.719   8.661 -3.1155  2.7847  0.1055
 5129TP3     H227207   4.768   1.662   8.796 -0.8940  0.7832 -0.0094
 5130TP3      O27208   4.825   0.251   9.414 -0.0271  0.5690 -0.2238
 5130TP3     H127209   4.854   0.161   9.400 -0.1371  0.3837  0.6718
 5130TP3     H227210   4.882   0.284   9.484 -0.0649  1.1538 -0.4667
 5131TP3      O27211   0.474   3.900   2.156 -0.4869 -0.0727  0.0983
 5131TP3     H127212   0.502   3.967   2.218  0.4742 -1.6646  1.4826
 5131TP3     H227213   0.515   3.924   2.074 -1.9489  2.2089 -0.0458
 5132TP3      O27214   4.092   2.651   0.275 -0.1541 -0.2045  0.5741
 5132TP3     H127215   4.163   2.642   0.339 -0.7145  0.0208  1.2437
 5132TP3     H227216   4.046   2.568   0.279  0.2380 -0.4615 -0.0792
 5133TP3      O27217   2.435   3.873   1.663  0.4482  0.7286  0.4924
 5133TP3     H127218   2.347   3.840   1.682  1.4044 -1.3110  1.7793
 5133TP3     H227219   2.461   3.918   1.744  0.3660  1.9052 -0.1215
 5134TP3      O27220   3.104   3.784   2.681 -0.2522  1.1551  0.1458
 5134TP3     H127221   3.086   3.716   2.617 -1.0666  2.3332 -0.9268
 5134TP3     H227222   3.198   3.801   2.673  0.2329 -0.6761  1.3289
 5135TP3      O27223   3.512   4.280  10.351 -0.4155  0.7778 -0.4375
 5135TP3     H127224   3.599   4.271  10.310 -0.2079 -1.5128  0.3318
 5135TP3     H227225   3.454   4.229  10.295 -0.5870 -0.3887  0.7301
 5136TP3      O27226   4.340   3.116   9.080  0.0019  0.0072 -0.3575
 5136TP3     H127227   4.351   3.124   9.174  0.6632  0.5853 -0.4773
 5136TP3     H227228   4.417   3.159   9.043 -0.7789  0.7372 -1.1826
 5137TP3      O27229   1.553   0.819   0.545 -0.0562  0.3972 -0.0784
 5137TP3     H127230   1.568   0.740   0.494  1.6999  0.3470  0.4520
 5137TP3     H227231   1.503   0.789   0.621  2.9138 -0.8421  1.5594
 5138TP3      O27232   3.794   0.086   0.397 -0.5407  0.1462  0.0554
 5138TP3     H127233   3.818  -0.007   0.393 -0.5310  0.1442  0.1741
 5138TP3     H227234   3.833   0.118   0.478  1.2613  0.7528 -0.9910
 5139TP3      O27235   2.003   4.770   0.160  0.1273  0.2711 -0.0912
 5139TP3     H127236   1.919   4.746   0.199 -0.6243 -0.4921 -2.0052
 5139TP3     H227237   2.061   4.696   0.179 -0.5173 -0.5439 -1.1748
 5140TP3      O27238   4.200   3.399   2.813 -0.0929 -0.5501  0.0537
 5140TP3     H127239   4.260   3.411   2.740  0.2967 -0.6878  0.3468
 5140TP3     H227240   4.119   3.367   2.773 -0.4782  1.0491 -0.5076
 5141TP3      O27241   0.826   5.223   2.055  0.1031 -0.3965  0.0154
 5141TP3     H127242   0.807   5.312   2.027  0.5409  0.2770  1.7412
 5141TP3     H227243   0.861   5.180   1.977 -1.4974  0.4746 -1.2459
 5142TP3      O27244   4.312   4.968   9.019  0.0975 -0.0089  0.0670
 5142TP3     H127245   4.278   4.957   8.930  0.1883  0.3351 -0.0106
 5142TP3     H227246   4.377   4.898   9.028  2.4524  1.8612 -1.2917
 5143TP3      O27247   1.042   2.083   2.563 -0.4040  0.0685 -0.3271
 5143TP3     H127248   0.951   2.064   2.540 -0.8423  2.6685 -1.0724
 5143TP3     H227249   1.050   2.057   2.655 -2.1763  0.6294  0.0157
 5144TP3      O27250   2.433   3.529   1.770 -0.1450  0.6636  0.2084
 5144TP3     H127251   2.458   3.521   1.862  0.7218  2.4626  0.1548
 5144TP3     H227252   2.372   3.603   1.768  0.4711  1.1674 -0.7655
 5145TP3      O27253   4.410   1.349   0.246 -0.0382  0.2121  0.0535
 5145TP3     H127254   4.376   1.364   0.335 -0.0176  0.3398  0.0392
 5145TP3     H227255   4.332   1.347   0.191  0.0492  1.7379 -0.1639
 5146TP3      O27256   3.149   3.965   9.094  0.4981 -0.2079  0.2042
 5146TP3     H127257   3.138   3.886   9.148 -2.4372  0.1709  0.3666
 5146TP3     H227258   3.201   3.936   9.019  1.3182 -1.7306  1.2968
 5147TP3      O27259   0.630   0.140   3.663  0.3347  0.2428 -0.1690
 5147TP3     H127260   0.716   0.155   3.701  1.4643 -1.4304 -1.8969
 5147TP3     H227261   0.612   0.047   3.680 -1.5287  0.7372  0.8596
 5148TP3      O27262   4.752   2.972   0.924 -0.2710  0.1924  0.8267
 5148TP3     H127263   4.695   3.039   0.963 -1.1475 -1.1398  1.9195
 5148TP3     H227264   4.693   2.901   0.899  0.8309 -0.9988  1.4886
 5149TP3      O27265   3.397   0.398   2.181  0.0706 -0.1238  0.2957
 5149TP3     H127266   3.476   0.448   2.205  0.5923 -1.0967  0.6386
 5149TP3     H227267   3.430   0.316   2.147 -0.7994 -0.4598  0.2453
 5150TP3      O27268   3.214   0.387   0.360  0.0849  0.4534 -0.0840
 5150TP3     H127269   3.239   0.325   0.292  1.7225 -1.9860  2.4823
 5150TP3     H227270   3.297   0.420   0.394 -0.1436 -2.2542  3.8409
 5151TP3      O27271   4.155   0.872   0.069  0.4627  0.1335  0.3712
 5151TP3     H127272   4.067   0.848   0.043  1.2356 -0.7176 -1.6656
 5151TP3     H227273   4.210   0.799   0.039  1.5558 -1.0686  4.5961
 5152TP3      O27274   2.585   0.899   8.931 -0.0576 -0.0749  0.0286
 5152TP3     H127275   2.560   0.886   8.839 -3.2770  0.8306  0.6597
 5152TP3     H227276   2.659   0.960   8.926  1.4280 -1.8911 -1.9886
 5153TP3      O27277   4.614   0.170   0.029  0.7605  0.2566 -0.4733
 5153TP3     H127278   4.674   0.238   0.059 -0.5841  0.6615  1.5638
 5153TP3     H227279   4.550   0.216  -0.025 -0.6024  0.8605  1.5380
 5154TP3      O27280   4.086   1.710   1.044  0.3637  0.2826  0.0291
 5154TP3     H127281   4.181   1.722   1.044  0.3389  0.6163  1.1583
 5154TP3     H227282   4.061   1.718   1.136 -0.9613  1.9136 -0.4142
 5155TP3      O27283   0.859   2.533   8.421 -0.5405 -0.0224 -0.1780
 5155TP3     H127284   0.870   2.518   8.515 -0.1355 -0.7184 -0.3349
 5155TP3     H227285   0.939   2.578   8.394 -0.3978 -0.3529 -0.3051
 5156TP3      O27286   2.995   2.479  10.003 -0.0410  0.8395 -0.0976
 5156TP3     H127287   2.975   2.537   9.929 -1.3741  0.2686 -0.2206
 5156TP3     H227288   2.992   2.391   9.966  1.8341  0.6398  0.1147
 5157TP3      O27289   1.351   4.257   3.720  0.1127 -0.6167  0.2050
 5157TP3     H127290   1.397   4.327   3.767  0.6074 -1.0687  0.4060
 5157TP3     H227291   1.410   4.236   3.646 -0.7572  0.2459 -0.7591
 5158TP3      O27292   2.593   2.946   9.074 -0.1770 -0.3449  0.1540
 5158TP3     H127293   2.686   2.923   9.068  0.6312  2.7720 -1.6661
 5158TP3     H227294   2.549   2.881   9.019  1.2761 -0.5643 -0.8061
 5159TP3      O27295   0.408   1.444   0.389 -0.3427 -0.4497 -0.1086
 5159TP3     H127296   0.491   1.490   0.373 -0.3657 -0.2688  0.2756
 5159TP3     H227297   0.345   1.514   0.404 -0.3461 -0.6069  0.6355
 5160TP3      O27298   3.871   1.421   1.608 -0.4385  0.4102 -0.4622
 5160TP3     H127299   3.927   1.426   1.686  0.2235  0.2669 -0.9226
 5160TP3     H227300   3.824   1.505   1.607 -2.1618 -0.4486  1.3316
 5161TP3      O27301   1.405   0.717   9.727 -0.3003 -0.7038  0.3262
 5161TP3     H127302   1.403   0.638   9.781  1.4198  0.2411  1.8832
 5161TP3     H227303   1.324   0.763   9.748 -0.3281 -1.0555  1.0045
 5162TP3      O27304   4.560   1.399   8.009 -0.4023  0.4017 -0.6851
 5162TP3     H127305   4.650   1.373   7.990 -1.3433 -2.2364 -2.0276
 5162TP3     H227306   4.541   1.359   8.094 -0.4251  0.6597 -0.5679
 5163TP3      O27307   0.919   2.612   7.366  0.4345  0.5418  0.1034
 5163TP3     H127308   0.939   2.650   7.452 -0.5417  0.7595  0.2451
 5163TP3     H227309   0.984   2.650   7.307  1.4801 -0.0534  0.8460
 5164TP3      O27310   3.904   2.481   7.301 -0.5618 -0.1837  0.2200
 5164TP3     H127311   3.937   2.395   7.273  0.5982  0.7889 -1.5958
 5164TP3     H227312   3.809   2.474   7.290 -0.5298 -1.3956  0.5942
 5165TP3      O27313   0.855   3.839   9.686 -0.2125 -0.2351  0.2455
 5165TP3     H127314   0.777   3.878   9.645 -0.8742 -0.9848  0.7686
 5165TP3     H227315   0.848   3.745   9.667  2.5031  0.0004 -2.9297
 5166TP3      O27316   4.454   2.303   2.335  0.0821 -0.2422  0.5987
 5166TP3     H127317   4.380   2.302   2.395 -1.0095  0.6604 -0.6813
 5166TP3     H227318   4.441   2.382   2.282  2.2652  0.2691  0.7178
 5167TP3      O27319   2.036   4.214   7.226  0.2865 -0.3030 -0.2385
 5167TP3     H127320   2.114   4.269   7.230 -0.0774  0.1558  1.1961
 5167TP3     H227321   2.070   4.125   7.218  0.9351 -0.0616 -0.2416
 5168TP3      O27322   4.525   2.411   0.679 -0.5096 -0.3260  0.4461
 5168TP3     H127323   4.563   2.327   0.655 -0.6260 -0.1458 -0.3872
 5168TP3     H227324   4.590   2.476   0.649 -0.0372 -0.1365  1.8012
 5169TP3      O27325   3.657   3.976   2.393  0.0010 -0.1997 -0.3127
 5169TP3     H127326   3.580   3.956   2.340 -0.0037  0.0242 -0.3892
 5169TP3     H227327   3.704   4.043   2.343 -0.0497  0.0779  0.0125
 5170TP3      O27328   0.908   4.080   1.631 -0.0088  0.1983 -0.1192
 5170TP3     H127329   0.940   4.036   1.709 -0.7143  1.4932  0.9327
 5170TP3     H227330   0.842   4.141   1.662  0.2005  1.2712 -1.6317
 5171TP3      O27331   1.784   2.624   0.117  0.3395 -0.0925 -0.2607
 5171TP3     H127332   1.853   2.599   0.178 -1.6964 -1.5407  1.6090
 5171TP3     H227333   1.751   2.707   0.151  0.5427  0.1306 -0.6049
 5172TP3      O27334   1.677   4.904   9.017  0.0559  0.1140 -0.2365
 5172TP3     H127335   1.761   4.859   9.026  0.1856  0.5696  0.9305
 5172TP3     H227336   1.612   4.838   9.039  0.2388  0.4127  1.3272
 5173TP3      O27337   2.985   0.575   0.299 -0.2689  0.2998 -0.1074
 5173TP3     H127338   3.053   0.541   0.241 -0.9637  0.4185 -1.0163
 5173TP3     H227339   2.942   0.497   0.333 -0.1431  0.2352 -0.0938
 5174TP3      O27340   0.320   1.933   0.997  0.3477  0.3538 -0.1226
 5174TP3     H127341   0.256   1.923   0.926  0.3531  1.3302 -0.2826
 5174TP3     H227342   0.303   2.021   1.032  2.4794  1.1908 -1.0539
 5175TP3      O27343   3.172   4.264   0.581  0.8523  0.1461  0.6421
 5175TP3     H127344   3.128   4.349   0.576  1.5144  0.5074  0.7452
 5175TP3     H227345   3.111   4.203   0.540 -0.1169  0.4705  1.5495
 5176TP3      O27346   0.815   3.739   2.018 -0.1725  0.3803 -0.0187
 5176TP3     H127347   0.849   3.697   1.939  0.8648  2.8944 -1.0091
 5176TP3     H227348   0.800   3.830   1.992 -1.3810  0.8920  2.2548
 5177TP3      O27349   3.556   4.548   2.610 -0.0220 -0.1511  0.5226
 5177TP3     H127350   3.603   4.630   2.595  0.7476 -0.1175  2.7596
 5177TP3     H227351   3.549   4.509   2.523  0.1754  1.9471 -0.5018
 5178TP3      O27352   4.327   3.909   1.091 -0.1955 -1.0086 -0.0599
 5178TP3     H127353   4.380   3.851   1.038  1.3452  0.8012 -0.5919
 5178TP3     H227354   4.239   3.901   1.054  0.6325 -0.5300 -2.3010
 5179TP3      O27355   3.217   0.672   2.317  0.6877 -0.9716 -0.2693
 5179TP3     H127356   3.220   0.617   2.239 -0.1707 -0.0311 -0.9861
 5179TP3     H227357   3.170   0.620   2.382 -0.0493 -1.1072 -0.9131
 5180TP3      O27358   3.627   0.214   9.296 -0.6875 -0.1517  0.2576
 5180TP3     H127359   3.593   0.206   9.207  0.9562 -0.8990 -0.3568
 5180TP3     H227360   3.589   0.139   9.344 -0.7654 -0.3427 -0.1016
 5181TP3      O27361   5.101   1.860   3.608  0.5775 -0.3761 -0.4038
 5181TP3     H127362   5.078   1.767   3.607  1.1551 -0.5387 -1.8871
 5181TP3     H227363   5.187   1.863   3.650  0.5838 -0.5169 -0.4063
 5182TP3      O27364   1.172   2.073   3.390  0.4798 -0.3911  0.2223
 5182TP3     H127365   1.077   2.067   3.396  0.4516  0.2581  0.5614
 5182TP3     H227366   1.196   2.016   3.317 -0.2227 -0.1665 -0.1913
 5183TP3      O27367   2.610   2.298   8.620  0.2166  0.4896  0.1574
 5183TP3     H127368   2.622   2.203   8.614  0.2169  0.4786  0.3240
 5183TP3     H227369   2.655   2.333   8.543 -1.3112  0.2275 -0.8970
 5184TP3      O27370   4.315   0.717  10.354 -0.5169  0.1399  0.1141
 5184TP3     H127371   4.305   0.759  10.269 -1.1760  2.2998  1.1922
 5184TP3     H227372   4.410   0.714  10.368 -0.3648 -0.8184 -0.9183
 5185TP3      O27373   5.121   0.665   0.753  0.4258 -0.4100  0.1483
 5185TP3     H127374   5.073   0.631   0.828 -0.8729  0.6053 -0.1781
 5185TP3     H227375   5.053   0.683   0.688  1.3627  0.1508 -0.7036
 5186TP3      O27376   2.708   3.078   7.029 -0.2075  0.3031  0.3670
 5186TP3     H127377   2.776   3.067   6.962  0.3249  1.3662  0.7130
 5186TP3     H227378   2.688   2.988   7.057  2.2578  0.0158  1.4399
 5187TP3      O27379   1.484   4.950   2.265 -0.0479 -0.0276  0.6100
 5187TP3     H127380   1.547   4.930   2.334  0.6925  0.8423  0.1989
 5187TP3     H227381   1.504   5.040   2.239 -2.6015  0.9790  1.6992
 5188TP3      O27382   3.323   3.558  10.332 -0.1063 -0.0247  0.1282
 5188TP3     H127383   3.374   3.488  10.373  0.1282  0.5454  0.8310
 5188TP3     H227384   3.269   3.593  10.403 -2.7345 -1.6819 -0.9302
 5189TP3      O27385   1.440   2.514   0.832 -0.5617  0.9973  0.5964
 5189TP3     H127386   1.507   2.468   0.881 -1.1983  0.9054  1.4001
 5189TP3     H227387   1.359   2.466   0.850 -0.9426  1.4362  0.1058
 5190TP3      O27388   1.304   1.908   8.377  0.1025 -0.1833  0.6202
 5190TP3     H127389   1.363   1.859   8.319 -0.1750 -2.3313  2.0351
 5190TP3     H227390   1.349   1.909   8.462 -0.7161  0.5049  1.0576
 5191TP3      O27391   5.177   2.946   3.614 -0.4912 -0.4270 -0.4488
 5191TP3     H127392   5.208   2.937   3.524 -1.6112  0.7456 -0.9943
 5191TP3     H227393   5.085   2.974   3.605 -0.7335 -0.6437  1.0589
 5192TP3      O27394   1.145   1.081   9.412  0.1495 -0.4412 -0.4432
 5192TP3     H127395   1.231   1.102   9.376  0.3861  2.6436  1.5981
 5192TP3     H227396   1.163   1.016   9.480  0.5840 -1.0140 -1.0819
 5193TP3      O27397   3.740   3.436   2.930  0.5543 -0.3599  0.2773
 5193TP3     H127398   3.672   3.393   2.982  0.0329  1.8895  1.5530
 5193TP3     H227399   3.759   3.517   2.976  2.1210  0.3999 -1.5549
 5194TP3      O27400   4.182   2.314   1.607  0.5549 -0.2929  0.5408
 5194TP3     H127401   4.266   2.358   1.618  0.5177 -0.2378  0.6027
 5194TP3     H227402   4.164   2.320   1.513  0.0911  0.6663  0.6843
 5195TP3      O27403   5.133   4.460   6.621  0.3243 -0.1795  0.4904
 5195TP3     H127404   5.170   4.378   6.588  0.5883 -0.1561  0.7268
 5195TP3     H227405   5.138   4.452   6.716  0.4387  0.1506  0.5115
 5196TP3      O27406   1.825   3.934   1.936 -0.0678 -0.2542 -0.3217
 5196TP3     H127407   1.782   4.018   1.919 -0.5209 -0.3301  0.3937
 5196TP3     H227408   1.812   3.919   2.030 -0.2670 -1.2759 -0.5030
 5197TP3      O27409   5.060   2.079   1.405 -0.1064 -0.2743 -0.5352
 5197TP3     H127410   5.091   1.989   1.401 -0.1970 -0.2954 -0.7218
 5197TP3     H227411   5.078   2.105   1.496  0.9849 -0.0992 -0.7807
 5198TP3      O27412   3.319   1.738   8.021 -0.0788  0.2018  0.1346
 5198TP3     H127413   3.357   1.673   8.081 -2.0586  0.0686  1.3259
 5198TP3     H227414   3.382   1.809   8.019 -0.3528  0.6374  3.1869
 5199TP3      O27415   1.075   1.381   0.842  0.1976 -0.0762  0.5443
 5199TP3     H127416   1.000   1.342   0.887 -0.1736  0.0817  0.0741
 5199TP3     H227417   1.086   1.466   0.885 -0.1652  0.0805  0.3408
 5200TP3      O27418   1.834   4.408   2.556 -0.2268  0.1321  0.4796
 5200TP3     H127419   1.755   4.461   2.554 -0.1985  0.1578 -0.1588
 5200TP3     H227420   1.808   4.328   2.602 -0.6570  0.0877  0.1629
 5201TP3      O27421   3.473   0.914   7.101 -0.1008  0.2128 -0.6176
 5201TP3     H127422   3.449   0.828   7.068 -2.0438  0.5588 -0.2280
 5201TP3     H227423   3.464   0.908   7.196  1.1705  0.4594 -0.4614
 5202TP3      O27424   0.830   2.244   1.338 -0.2727  0.1548  0.0365
 5202TP3     H127425   0.842   2.321   1.283 -1.4488  1.0425  0.9430
 5202TP3     H227426   0.749   2.262   1.386 -1.9807 -2.7386 -1.4914
 5203TP3      O27427   4.993   2.106   2.831 -0.5691  0.4937 -0.9041
 5203TP3     H127428   4.966   2.047   2.901 -1.9832  0.8060 -1.1456
 5203TP3     H227429   5.081   2.078   2.807 -0.8261 -0.8483 -0.3228
 5204TP3      O27430   0.646   2.436   1.508  0.1863  0.2444 -0.8743
 5204TP3     H127431   0.561   2.471   1.482  0.6492  2.2338  0.1329
 5204TP3     H227432   0.671   2.486   1.586  2.4008 -0.0866 -1.2918
 5205TP3      O27433   1.955   1.061   8.424  0.0197  0.6667  0.1895
 5205TP3     H127434   1.948   1.088   8.516 -1.5588 -0.6936  0.5080
 5205TP3     H227435   1.868   1.077   8.388  1.1589  3.2530 -1.7269
 5206TP3      O27436   1.338   4.676   7.629 -0.5098  0.0908 -0.0336
 5206TP3     H127437   1.247   4.663   7.657 -1.0791  1.0998 -1.2944
 5206TP3     H227438   1.390   4.662   7.708 -1.8416  0.4436  0.9467
 5207TP3      O27439   1.795   1.238   8.019 -0.0761 -0.2146  0.7723
 5207TP3     H127440   1.756   1.317   8.057 -0.0218  0.7029 -1.0040
 5207TP3     H227441   1.889   1.255   8.020 -0.0434 -0.3851  0.6444
 5208TP3      O27442   2.037   4.283  10.123 -0.2563 -0.0134  0.1983
 5208TP3     H127443   2.017   4.371  10.156 -0.6429 -0.3331  0.8490
 5208TP3     H227444   2.090   4.243  10.192  1.0947  0.1665 -0.6912
 5209TP3      O27445   1.659   2.843   8.596  0.3078 -0.2274 -0.1822
 5209TP3     H127446   1.748   2.809   8.604  0.2035 -0.2168  1.3322
 5209TP3     H227447   1.614   2.780   8.540  0.3664 -2.1708  1.8038
 5210TP3      O27448   2.470   4.578   0.194 -0.2418  0.1353  0.3357
 5210TP3     H127449   2.438   4.600   0.107 -0.1094  1.6602  0.6472
 5210TP3     H227450   2.565   4.580   0.186 -0.2289  0.0542  0.4612
 5211TP3      O27451   4.922   3.939   1.143 -0.3068  0.1877 -0.0640
 5211TP3     H127452   4.862   4.014   1.138 -0.4321  0.0563 -0.5679
 5211TP3     H227453   5.002   3.970   1.101 -0.2785  0.1196 -0.0597
 5212TP3      O27454   3.887   3.655   9.466 -0.5281  0.1010 -0.3534
 5212TP3     H127455   3.847   3.741   9.457  1.4894  1.0631 -0.7459
 5212TP3     H227456   3.815   3.597   9.491 -1.9251  1.9004 -0.0117
 5213TP3      O27457   3.322   3.315   0.226 -0.3173 -0.7684  0.0986
 5213TP3     H127458   3.314   3.239   0.283 -0.2194  0.1401  1.3606
 5213TP3     H227459   3.404   3.303   0.180 -0.9112 -2.0444 -0.6715
 5214TP3      O27460   4.822   0.920   0.754  0.3981 -0.2764  0.1446
 5214TP3     H127461   4.896   0.979   0.740  0.8465 -1.0852 -0.9579
 5214TP3     H227462   4.849   0.836   0.717 -1.4788 -0.3084 -1.3327
 5215TP3      O27463   3.369   2.241   1.751 -0.1699 -0.5284 -0.0488
 5215TP3     H127464   3.274   2.234   1.754 -0.2016 -0.2516 -0.3775
 5215TP3     H227465   3.399   2.197   1.831 -0.4246 -3.0751 -1.2369
 5216TP3      O27466   0.524   0.697   8.514 -0.4731 -0.5881 -0.1654
 5216TP3     H127467   0.491   0.746   8.589 -0.2147  0.4428 -0.7085
 5216TP3     H227468   0.524   0.760   8.442  0.6705 -1.1452 -0.6823
 5217TP3      O27469   5.104   3.522   9.636  0.0871  0.4219  0.0078
 5217TP3     H127470   5.167   3.466   9.591  1.1371 -0.1967  2.0886
 5217TP3     H227471   5.117   3.502   9.729 -1.8327  1.7324  0.6152
 5218TP3      O27472   0.363   2.736   0.599 -0.1342  0.0961 -0.1534
 5218TP3     H127473   0.458   2.725   0.600 -0.2567 -1.0518  0.0604
 5218TP3     H227474   0.329   2.653   0.565 -1.0838  0.2790  0.2988
 5219TP3      O27475   0.553   1.597   2.137  0.2907  0.7454 -0.2402
 5219TP3     H127476   0.472   1.630   2.098 -0.5348 -0.1124  0.6542
 5219TP3     H227477   0.523   1.531   2.200  1.6802  0.6337  0.3386
 5220TP3      O27478   3.011   4.600   7.869  0.5462 -0.1105  0.0137
 5220TP3     H127479   2.930   4.592   7.920  0.8844  0.1906  0.5998
 5220TP3     H227480   3.080   4.613   7.934  1.0601 -0.2797 -0.4864
 5221TP3      O27481   0.103   3.298   3.135  0.1934 -0.0218 -0.5303
 5221TP3     H127482   0.083   3.235   3.066 -0.9179 -0.3834  0.0974
 5221TP3     H227483   0.018   3.332   3.161  0.6805  0.8127  0.0101
 5222TP3      O27484   2.931   3.641   8.319 -0.6286  0.2452 -0.3018
 5222TP3     H127485   2.937   3.716   8.378 -2.9533  0.1470  0.1873
 5222TP3     H227486   3.021   3.623   8.292  0.9628 -0.9041  4.7302
 5223TP3      O27487   2.358   0.155  10.402  0.0444  0.6594 -0.8965
 5223TP3     H127488   2.390   0.236  10.441 -0.8803  0.3985  0.4402
 5223TP3     H227489   2.422   0.088  10.429 -0.5077  0.5087  0.0784
 5224TP3      O27490   0.841   3.040   2.576  0.4379 -0.6667 -0.6893
 5224TP3     H127491   0.836   3.135   2.568 -0.9760 -0.6603 -0.0522
 5224TP3     H227492   0.921   3.025   2.627 -1.4202  0.4905  2.8863
 5225TP3      O27493   0.494   0.637   8.992  0.6687 -0.0950 -0.1491
 5225TP3     H127494   0.557   0.574   8.959  0.7390 -0.6746  1.0374
 5225TP3     H227495   0.547   0.709   9.026  0.6111  0.3019 -0.8790
 5226TP3      O27496   4.276   3.259   1.607 -0.1018 -0.2267  0.1589
 5226TP3     H127497   4.350   3.310   1.574  0.1823  0.4112  1.6712
 5226TP3     H227498   4.289   3.172   1.572  0.9039  0.0962 -0.3039
 5227TP3      O27499   2.841   2.634   8.727 -0.1619  0.2789 -0.0005
 5227TP3     H127500   2.748   2.613   8.738 -0.3409 -0.2271 -2.0530
 5227TP3     H227501   2.881   2.614   8.812 -2.1358  1.9548  1.4282
 5228TP3      O27502   1.982   2.293   2.849 -0.1639  0.1280  0.4478
 5228TP3     H127503   2.031   2.360   2.801  0.3308 -0.8991 -0.5473
 5228TP3     H227504   2.039   2.216   2.846 -0.9957 -0.5291  1.0119
 5229TP3      O27505   0.099   0.565   7.659 -0.2595  0.1708 -0.2322
 5229TP3     H127506   0.078   0.578   7.567  1.8495 -0.6201 -0.8990
 5229TP3     H227507   0.065   0.478   7.679 -1.2369  0.5746 -0.0570
 5230TP3      O27508   0.026   0.203   9.635  0.4110  0.3649  0.1341
 5230TP3     H127509   0.066   0.142   9.698  0.3596  0.0457 -0.1366
 5230TP3     H227510  -0.006   0.146   9.565  1.0095  0.7651 -0.4748
 5231TP3      O27511   0.211   3.087   3.272 -0.6538 -0.2980 -0.4037
 5231TP3     H127512   0.293   3.134   3.289  0.1872 -1.4863 -1.0748
 5231TP3     H227513   0.150   3.156   3.245  0.3867  0.4981 -0.8118
 5232TP3      O27514   3.706   4.066   2.938 -0.0284 -0.5269  0.7052
 5232TP3     H127515   3.729   4.155   2.909  2.7748 -0.9087  1.4785
 5232TP3     H227516   3.614   4.072   2.963 -0.7660  1.4034 -2.0252
 5233TP3      O27517   5.018   2.067  10.352  0.4741  0.3872 -0.3282
 5233TP3     H127518   4.994   2.130  10.284  1.5227  1.0047 -0.1462
 5233TP3     H227519   5.080   2.113  10.407 -2.2370  0.8022  2.6476
 5234TP3      O27520   1.145   4.072   2.688 -0.2348 -0.2151 -0.0139
 5234TP3     H127521   1.080   4.023   2.739 -0.1671  1.4856  1.8241
 5234TP3     H227522   1.114   4.162   2.688  0.8443  0.2024 -1.2949
 5235TP3      O27523   3.028   1.594   0.328  0.1778  0.0815 -0.3393
 5235TP3     H127524   3.120   1.612   0.350 -0.0005 -0.1017  0.5772
 5235TP3     H227525   3.021   1.617   0.235  0.7621  1.5874 -0.0370
 5236TP3      O27526   4.050   1.052   0.641  0.3963 -0.6129 -0.7585
 5236TP3     H127527   4.033   0.971   0.689  0.8163  0.3514  1.1070
 5236TP3     H227528   3.977   1.110   0.664  1.8249  0.6998  0.7497
 5237TP3      O27529   0.825   3.102   8.441  0.1435 -0.3082  0.4995
 5237TP3     H127530   0.898   3.110   8.502 -0.3845  1.7103  0.9555
 5237TP3     H227531   0.824   3.185   8.394 -1.9877 -0.1736  0.6872
 5238TP3      O27532   2.801   3.489   0.973  0.0471  0.1503  0.4525
 5238TP3     H127533   2.811   3.394   0.962 -2.8993 -0.3744  1.5043
 5238TP3     H227534   2.799   3.501   1.068  0.6885  1.3532  0.3351
 5239TP3      O27535   3.233   2.995   8.299 -0.1157  0.4954 -0.2943
 5239TP3     H127536   3.197   2.918   8.343  1.5219  0.1123  0.4674
 5239TP3     H227537   3.299   3.028   8.360  1.6561  0.4523 -2.0897
 5240TP3      O27538   3.403   2.754   0.657 -0.0940 -0.7086 -0.3826
 5240TP3     H127539   3.472   2.704   0.614  0.7181  0.8304 -0.9678
 5240TP3     H227540   3.360   2.802   0.586  0.4938  0.9721  0.3505
 5241TP3      O27541   3.047   3.530   2.575  0.2286  0.7380  0.2367
 5241TP3     H127542   3.036   3.474   2.498  0.6347  1.4416 -0.3391
 5241TP3     H227543   2.962   3.574   2.586 -0.3255 -0.4796  1.1088
 5242TP3      O27544   4.709   2.882   0.191  0.1135  0.1831 -0.0945
 5242TP3     H127545   4.653   2.822   0.240  0.5066  0.4433  0.6864
 5242TP3     H227546   4.788   2.832   0.171  0.7323  0.6255  1.1496
 5243TP3      O27547   2.243   0.003   2.308 -0.4438  0.0073 -0.2668
 5243TP3     H127548   2.257  -0.079   2.355 -0.2058  0.8745  1.2692
 5243TP3     H227549   2.301  -0.002   2.232  2.4463  0.2535  1.7684
 5244TP3      O27550   2.713   1.298  10.409  0.1810 -0.6672 -0.5412
 5244TP3     H127551   2.777   1.276  10.342  0.1797 -1.3395 -0.3292
 5244TP3     H227552   2.636   1.246  10.387 -0.3313  0.1914 -0.8375
 5245TP3      O27553   1.618   4.341   8.647  0.1461 -0.2842  0.0877
 5245TP3     H127554   1.666   4.421   8.626  1.6115 -1.1041  0.1912
 5245TP3     H227555   1.619   4.290   8.566 -0.6902 -0.2591  0.0507
 5246TP3      O27556   4.274   0.961   2.539  0.0875 -0.2372  0.8787
 5246TP3     H127557   4.368   0.949   2.525  0.2732  1.3957  0.5851
 5246TP3     H227558   4.266   1.050   2.573 -1.5514  0.5372 -1.3326
 5247TP3      O27559   3.546   1.759  10.366 -0.6371  0.0418 -0.0209
 5247TP3     H127560   3.455   1.787  10.360 -0.7216 -0.4451 -1.2762
 5247TP3     H227561   3.587   1.824  10.423 -1.4844  0.9613 -0.4307
 5248TP3      O27562   3.179   3.102   2.007 -0.3173 -0.1194  0.4340
 5248TP3     H127563   3.255   3.051   2.035 -1.6981 -1.7825  1.3842
 5248TP3     H227564   3.190   3.187   2.049 -0.7635 -1.5452  3.7441
 5249TP3      O27565   4.333   2.324   2.894  0.3748 -0.2042 -0.4908
 5249TP3     H127566   4.290   2.267   2.958 -0.0036  0.4672 -0.1355
 5249TP3     H227567   4.398   2.268   2.852  1.5316 -0.3457  1.3778
 5250TP3      O27568   2.596   3.083   2.968 -0.1810 -0.6058  0.2521
 5250TP3     H127569   2.532   3.014   2.949  0.7122 -1.3676 -0.0788
 5250TP3     H227570   2.543   3.157   2.998 -1.2352 -1.1259 -0.2596
 5251TP3      O27571   2.486   0.560   8.746 -0.0478 -0.1049  0.0716
 5251TP3     H127572   2.495   0.513   8.663  1.6612 -0.4028  0.3851
 5251TP3     H227573   2.426   0.506   8.798 -1.4881  0.3088 -1.0893
 5252TP3      O27574   3.632   3.854   8.576  0.0082 -0.4576 -0.1873
 5252TP3     H127575   3.672   3.873   8.491 -0.1767 -0.1587 -0.2088
 5252TP3     H227576   3.681   3.909   8.638  0.1179 -0.6464 -0.1057
 5253TP3      O27577   5.114   0.767   7.671 -0.2361 -0.6245  0.2570
 5253TP3     H127578   5.181   0.699   7.680  0.5072  0.1621  0.9729
 5253TP3     H227579   5.125   0.821   7.750 -1.6589 -0.4209  0.3288
 5254TP3      O27580   3.401   2.164  10.340 -0.1728 -0.5307  0.1256
 5254TP3     H127581   3.418   2.167  10.245  0.4398 -1.4031  0.1985
 5254TP3     H227582   3.484   2.190  10.379 -0.2714 -0.6768  0.4298
 5255TP3      O27583   1.754   2.601   8.991  0.0920 -0.4347 -0.0646
 5255TP3     H127584   1.726   2.575   9.078  2.0220 -0.5515  0.5604
 5255TP3     H227585   1.804   2.526   8.958 -0.7664 -0.4691 -1.3684
 5256TP3      O27586   2.775   4.397   9.310  0.5650 -0.0397  0.1398
 5256TP3     H127587   2.799   4.353   9.391  0.3572 -0.5839 -0.0880
 5256TP3     H227588   2.688   4.432   9.326  0.5028 -0.1919  0.1368
 5257TP3      O27589   0.365   2.771   8.930  0.0638  0.1684  0.0995
 5257TP3     H127590   0.413   2.688   8.924 -0.6546 -0.2528  0.1731
 5257TP3     H227591   0.290   2.760   8.871  0.4673  1.1173 -0.6168
 5258TP3      O27592   4.522   1.527   9.241 -0.2742  0.3041 -0.6312
 5258TP3     H127593   4.465   1.476   9.183  0.4060  0.7236 -1.6925
 5258TP3     H227594   4.555   1.463   9.304 -1.2757 -0.1015 -0.5019
 5259TP3      O27595   0.520   0.992   1.561 -0.3204  0.2342  0.4845
 5259TP3     H127596   0.527   0.897   1.571 -0.0480  0.4379  2.8775
 5259TP3     H227597   0.545   1.027   1.647 -0.2918  2.4832 -0.3693
 5260TP3      O27598   0.312   4.284   2.766 -0.1407 -0.6587  0.5040
 5260TP3     H127599   0.225   4.295   2.806  0.3189 -1.3122  1.7121
 5260TP3     H227600   0.359   4.226   2.826  1.2455 -0.0537  0.0427
 5261TP3      O27601   4.704   1.363   0.325 -0.0928  0.1906 -0.3690
 5261TP3     H127602   4.610   1.379   0.336  0.0848  1.5351 -0.6136
 5261TP3     H227603   4.737   1.350   0.414 -0.6043 -0.9942 -0.3304
 5262TP3      O27604   2.927   0.330   3.074  1.1199 -0.3113  0.3990
 5262TP3     H127605   3.005   0.364   3.030  2.1637 -1.9549  0.8915
 5262TP3     H227606   2.930   0.236   3.059 -1.7447 -0.3039 -1.0387
 5263TP3      O27607   1.534   3.050   8.336  0.2381  0.1517 -0.1287
 5263TP3     H127608   1.530   3.048   8.431  1.3258 -0.7980 -0.0837
 5263TP3     H227609   1.522   2.959   8.309 -0.5348  0.4764 -0.9252
 5264TP3      O27610   2.246   4.476   2.330  0.6691  0.0383 -0.2533
 5264TP3     H127611   2.336   4.453   2.354  0.6231  1.1571  1.0742
 5264TP3     H227612   2.196   4.397   2.346  1.1211 -0.0541  0.7569
 5265TP3      O27613   2.982   2.489   2.695 -0.5028 -0.2633  0.0548
 5265TP3     H127614   3.077   2.494   2.710 -0.4274  0.2316 -0.5855
 5265TP3     H227615   2.964   2.555   2.629 -1.1690 -0.9612 -0.4782
 5266TP3      O27616   4.467   2.082   1.862 -0.2911 -0.2028  0.0903
 5266TP3     H127617   4.523   2.004   1.861  0.9396  0.6635 -0.8452
 5266TP3     H227618   4.424   2.081   1.776 -0.6587 -0.1055  0.2710
 5267TP3      O27619   1.789   4.622   0.281 -0.1561 -0.2282 -0.3670
 5267TP3     H127620   1.821   4.632   0.371  2.3490 -2.0252 -0.9377
 5267TP3     H227621   1.713   4.564   0.289 -0.3405  0.1203  0.6127
 5268TP3      O27622   0.643   2.657   8.323  0.4811 -0.1632 -0.3705
 5268TP3     H127623   0.709   2.588   8.334  0.2718 -0.1245  1.6396
 5268TP3     H227624   0.676   2.729   8.376 -0.4100  0.4395 -0.6231
 5269TP3      O27625   0.002   0.922   1.310  0.3349 -0.0496  1.0393
 5269TP3     H127626   0.029   0.864   1.239 -0.3800 -1.7006  2.0597
 5269TP3     H227627   0.049   1.003   1.293  1.4059 -0.9198 -0.4352
 5270TP3      O27628   4.354   4.256   0.290  0.2138  0.1883 -0.7519
 5270TP3     H127629   4.273   4.229   0.247  0.1608  0.6157 -0.9283
 5270TP3     H227630   4.326   4.303   0.369  0.2910  0.2681 -0.7712
 5271TP3      O27631   1.359   4.287   9.630  0.3311  0.3687 -0.4127
 5271TP3     H127632   1.447   4.322   9.618  1.0750 -1.4579 -0.7109
 5271TP3     H227633   1.373   4.206   9.680 -1.2275  0.2358 -0.1448
 5272TP3      O27634   1.254   0.746   0.411 -0.0179 -0.9178 -0.6659
 5272TP3     H127635   1.171   0.701   0.425  0.4935 -1.8221 -0.4256
 5272TP3     H227636   1.264   0.802   0.488 -1.4827  0.9813 -1.7753
 5273TP3      O27637   2.775   3.412  10.320  0.1485  0.5870  0.5057
 5273TP3     H127638   2.693   3.375  10.352 -0.0576 -0.8376 -1.4883
 5273TP3     H227639   2.811   3.344  10.263  1.7217  1.9806 -0.2430
 5274TP3      O27640   0.268   1.972   2.601  0.1106  0.0442  0.8528
 5274TP3     H127641   0.351   2.012   2.576  0.8362 -0.8596  1.7802
 5274TP3     H227642   0.264   1.891   2.551 -2.2691  2.0079 -2.5591
 5275TP3      O27643   2.093   4.756   6.667 -0.6699  0.1883 -0.5291
 5275TP3     H127644   2.002   4.771   6.642 -0.5266  0.1860 -1.0700
 5275TP3     H227645   2.131   4.843   6.673 -0.3510  0.1451 -1.6998
 5276TP3      O27646   0.141   1.091   9.717  0.4742  0.1125  0.3727
 5276TP3     H127647   0.098   1.161   9.765 -1.8914 -2.0063  1.5505
 5276TP3     H227648   0.211   1.062   9.775  0.5169  0.5206  0.5283
 5277TP3      O27649   2.479   4.265   2.268  0.2071  0.1442 -0.0242
 5277TP3     H127650   2.491   4.208   2.192 -1.8237 -0.1406 -0.2066
 5277TP3     H227651   2.504   4.352   2.237  1.8196 -0.3548 -0.2206
 5278TP3      O27652   3.933   3.465   8.068  0.7730 -0.3308  0.3241
 5278TP3     H127653   3.945   3.559   8.053 -0.2529 -0.3926 -1.1313
 5278TP3     H227654   3.865   3.440   8.006  0.4639 -1.8920  1.2542
 5279TP3      O27655   0.247   2.936   0.751 -0.1637  0.1205  0.4790
 5279TP3     H127656   0.274   2.847   0.729 -1.1990 -0.0569 -0.1411
 5279TP3     H227657   0.306   2.993   0.701 -0.1646 -0.2332  0.0753
 5280TP3      O27658   1.203   1.754   8.162 -0.0705  0.8398  0.2870
 5280TP3     H127659   1.288   1.777   8.124  0.8063  2.1892  2.8344
 5280TP3     H227660   1.155   1.836   8.166 -1.1082  0.2733 -0.1530
 5281TP3      O27661   0.975   1.942   9.965 -0.6039  0.5742 -0.0375
 5281TP3     H127662   0.922   1.865   9.946 -0.2922  0.6693 -1.3489
 5281TP3     H227663   1.037   1.948   9.892  1.5179  0.2212  1.6179
 5282TP3      O27664   1.772   1.564   8.656 -0.1013  1.0028 -0.1511
 5282TP3     H127665   1.846   1.504   8.647 -2.7259 -2.4485 -1.1372
 5282TP3     H227666   1.750   1.563   8.749  0.1762  0.7843 -0.0888
 5283TP3      O27667   4.409   2.722   7.506  0.2989  0.2863 -0.3363
 5283TP3     H127668   4.472   2.654   7.480 -0.3148 -0.5869  0.4203
 5283TP3     H227669   4.340   2.716   7.440 -0.9129 -1.4543  1.0092
 5284TP3      O27670   3.585   0.068   0.183  0.3029  0.4831  1.0329
 5284TP3     H127671   3.637   0.024   0.249  0.7573 -0.0477  0.3405
 5284TP3     H227672   3.649   0.104   0.122 -0.1157  0.6698  0.6912
 5285TP3      O27673   1.205   0.618   9.204 -0.0896  0.3984  0.0008
 5285TP3     H127674   1.188   0.524   9.204 -1.4747  0.6144 -1.3269
 5285TP3     H227675   1.226   0.638   9.295  2.1604 -1.4956 -0.0199
 5286TP3      O27676   2.255   0.875   1.993  0.0904  0.6254  0.2477
 5286TP3     H127677   2.196   0.937   2.037 -0.9844  1.3475 -2.0631
 5286TP3     H227678   2.268   0.912   1.906  0.1764 -1.9280 -0.9038
 5287TP3      O27679   3.805   4.093   0.068  0.0191  0.2876 -0.0099
 5287TP3     H127680   3.714   4.069   0.054  0.5503 -1.2989 -1.0972
 5287TP3     H227681   3.807   4.132   0.155 -1.6100 -0.0610  0.2171
 5288TP3      O27682   1.815   1.913   0.604  0.3007 -0.1947 -0.0734
 5288TP3     H127683   1.794   1.820   0.614 -2.4027  0.0440 -2.3472
 5288TP3     H227684   1.841   1.922   0.512  1.7084  1.1366  0.4222
 5289TP3      O27685   4.394   2.478   3.240 -0.0944  0.3076  0.3528
 5289TP3     H127686   4.303   2.450   3.238  0.6761 -2.4223 -0.8801
 5289TP3     H227687   4.415   2.486   3.333 -1.8015  1.9915  0.6569
 5290TP3      O27688   1.457   2.217   9.337  0.4510  0.0755  0.3884
 5290TP3     H127689   1.395   2.287   9.357 -1.8455 -1.6261 -0.4577
 5290TP3     H227690   1.497   2.196   9.422 -1.6535 -0.1709  1.3821
 5291TP3      O27691   2.489   0.192   0.369  0.0416  0.1090  0.1896
 5291TP3     H127692   2.527   0.104   0.374 -0.0240 -0.1422 -2.3095
 5291TP3     H227693   2.395   0.177   0.369  0.0172  0.2592  0.6001
 5292TP3      O27694   0.926   0.587   9.306 -0.4117 -0.1292 -0.3346
 5292TP3     H127695   0.900   0.516   9.365  2.2281 -1.1118 -0.2032
 5292TP3     H227696   0.954   0.657   9.365  2.2703 -1.1284 -0.2935
 5293TP3      O27697   4.881   0.650   7.567 -0.2431 -0.7387 -0.3321
 5293TP3     H127698   4.955   0.673   7.623 -1.3948 -1.7095  1.7251
 5293TP3     H227699   4.921   0.608   7.490  1.3674 -0.1284  0.1339
 5294TP3      O27700   1.041   4.512   6.574  0.0801 -0.0944  0.0391
 5294TP3     H127701   1.080   4.499   6.661  0.1516 -0.8834 -0.0989
 5294TP3     H227702   1.065   4.432   6.526  0.0809  0.3570 -0.7174
 5295TP3      O27703   5.053   5.118   0.141 -0.3635  0.0079 -0.1654
 5295TP3     H127704   5.135   5.134   0.095 -0.8853 -1.0287 -1.5434
 5295TP3     H227705   5.042   5.023   0.138 -0.2580 -0.1733  2.4837
 5296TP3      O27706   4.415   4.041   3.156  0.3782  0.7429 -0.0786
 5296TP3     H127707   4.454   3.969   3.205 -2.6001 -2.4821 -1.9477
 5296TP3     H227708   4.344   4.072   3.211  0.7424  1.2720  0.1015
 5297TP3      O27709   3.461   0.181   7.864 -0.4060  0.5144  0.4036
 5297TP3     H127710   3.431   0.129   7.938 -0.9306  2.0347  1.3113
 5297TP3     H227711   3.521   0.245   7.902 -0.4239  1.1056 -0.5265
 5298TP3      O27712   3.722   3.798   0.273  0.3822  0.1850 -0.0541
 5298TP3     H127713   3.627   3.789   0.286  0.3593  0.1177 -0.2564
 5298TP3     H227714   3.740   3.743   0.196  0.8911 -1.3285  1.1133
 5299TP3      O27715   3.784   0.834   7.972 -0.4907 -0.1629  0.8955
 5299TP3     H127716   3.730   0.825   7.893 -0.7179  0.1278  1.0187
 5299TP3     H227717   3.853   0.895   7.946 -0.0136 -0.7962  0.6317
 5300TP3      O27718   4.532   4.844  10.175  0.4919  0.1324  0.6022
 5300TP3     H127719   4.489   4.892  10.104  1.1460 -0.3170 -0.1165
 5300TP3     H227720   4.596   4.906  10.210  0.5444  0.1747  0.4341
 5301TP3      O27721   3.429   2.755   1.830  0.1561 -0.4475  0.5183
 5301TP3     H127722   3.346   2.785   1.867 -1.0231 -1.2447 -1.3382
 5301TP3     H227723   3.439   2.666   1.862  0.7202 -0.0981  1.3582
 5302TP3      O27724   4.175   2.199   7.604 -0.0079  0.6339 -0.0673
 5302TP3     H127725   4.121   2.185   7.682 -1.2737  0.0861 -1.0228
 5302TP3     H227726   4.123   2.257   7.548 -0.0653 -0.6764 -1.4259
 5303TP3      O27727   0.860   0.184   2.341 -1.0194  0.2018 -0.1093
 5303TP3     H127728   0.771   0.216   2.352 -1.2570 -0.7820  0.9404
 5303TP3     H227729   0.850   0.093   2.313 -0.3496 -0.1609  0.7873
 5304TP3      O27730   4.836   4.855   9.735 -0.5620  0.3811 -0.2093
 5304TP3     H127731   4.838   4.875   9.828  2.9191 -0.5458  0.0466
 5304TP3     H227732   4.867   4.936   9.693  0.5796 -0.0744 -0.2805
 5305TP3      O27733   3.144   1.097   1.534  0.4220 -0.6757  0.2256
 5305TP3     H127734   3.127   1.018   1.585  2.1100 -2.0482 -1.1683
 5305TP3     H227735   3.206   1.147   1.587  1.3290 -1.5640  0.0386
 5306TP3      O27736   0.144   1.090   0.634 -0.2192 -0.4461  0.5490
 5306TP3     H127737   0.124   1.005   0.595 -0.2112 -0.9604  1.6436
 5306TP3     H227738   0.095   1.153   0.581  0.9289 -0.9584 -1.2097
 5307TP3      O27739   0.026   5.017   8.989 -0.0711  0.0971  0.6958
 5307TP3     H127740  -0.004   5.096   8.944  1.2883 -0.7266 -1.8429
 5307TP3     H227741   0.101   5.046   9.041 -0.0595  0.6204  0.3935
 5308TP3      O27742   4.741   3.925   3.378 -0.2924 -0.0408 -0.0998
 5308TP3     H127743   4.803   3.884   3.317 -0.3132 -0.1532 -0.0441
 5308TP3     H227744   4.661   3.874   3.370  0.4946 -1.7231  1.9507
 5309TP3      O27745   0.229   0.623   1.824 -0.2624  0.1695 -0.6425
 5309TP3     H127746   0.222   0.677   1.745 -0.7902 -0.4223 -1.0066
 5309TP3     H227747   0.139   0.607   1.850 -0.1068  1.2650  0.7297
 5310TP3      O27748   3.170   4.490   2.043 -0.1491 -0.0912 -0.2365
 5310TP3     H127749   3.192   4.408   1.999 -2.5404 -2.5075  2.5856
 5310TP3     H227750   3.254   4.524   2.075  0.7990 -2.2599 -0.2552
 5311TP3      O27751   4.626   0.717  10.304 -0.8122 -0.5520  0.0680
 5311TP3     H127752   4.695   0.719  10.370 -0.3505 -0.1298 -0.4242
 5311TP3     H227753   4.648   0.788  10.243 -1.0369 -1.1609 -0.7394
 5312TP3      O27754   0.053   5.192  10.421 -0.0383 -0.2729 -0.3193
 5312TP3     H127755   0.085   5.186  10.331  0.1652 -0.7045 -0.2201
 5312TP3     H227756   0.087   5.275  10.453 -1.7060  0.8396 -1.2515
 5313TP3      O27757   0.747   4.376   1.014 -0.3841  0.3629  0.3802
 5313TP3     H127758   0.836   4.355   1.041  0.1316  0.5829 -1.0679
 5313TP3     H227759   0.701   4.292   1.017  0.7013 -0.3758 -1.8372
 5314TP3      O27760   4.053   3.678   0.290  0.5694  0.1254  0.4936
 5314TP3     H127761   4.052   3.766   0.253  0.1596  0.1201  0.4883
 5314TP3     H227762   4.022   3.622   0.218 -0.0834  0.0960  0.7847
 5315TP3      O27763   5.044   4.505   8.147 -0.1726 -0.0683 -0.2504
 5315TP3     H127764   5.137   4.518   8.167 -0.8098  1.9879  1.8799
 5315TP3     H227765   5.032   4.411   8.148  2.0270 -0.4196 -1.3584
 5316TP3      O27766   1.605   4.373   9.482 -0.3837 -0.0295  0.3812
 5316TP3     H127767   1.646   4.361   9.396 -1.3671 -1.1163  0.0412
 5316TP3     H227768   1.551   4.451   9.473  1.9630  1.7647  1.0022
 5317TP3      O27769   0.212   3.437   1.757  0.1301  0.7209 -0.0561
 5317TP3     H127770   0.307   3.445   1.759  0.1026  1.4158 -0.8564
 5317TP3     H227771   0.190   3.391   1.837  1.2677 -0.7477 -0.5406
 5318TP3      O27772   4.186   4.272   2.316  0.6983 -0.5655  0.1783
 5318TP3     H127773   4.094   4.248   2.304  0.5541 -0.2701  0.6628
 5318TP3     H227774   4.183   4.357   2.359  1.2016 -0.4210 -0.0675
 5319TP3      O27775   4.161   3.591   9.142  0.5461 -0.0534 -0.1562
 5319TP3     H127776   4.185   3.611   9.051  2.7939  1.3327  0.6697
 5319TP3     H227777   4.219   3.646   9.195  0.2143 -1.7983  2.1681
 5320TP3      O27778   0.339   3.505   8.432 -0.2652  0.4482  0.1732
 5320TP3     H127779   0.297   3.474   8.352  0.2333 -0.2957  0.1982
 5320TP3     H227780   0.406   3.566   8.402 -1.0671  1.3428  0.1145
 5321TP3      O27781   2.109   3.373   3.527 -0.1892  0.1212  0.2353
 5321TP3     H127782   2.033   3.332   3.568 -0.0614  1.1980  1.6252
 5321TP3     H227783   2.099   3.466   3.544  0.3430  0.5350 -1.4792
 5322TP3      O27784   4.597   3.108   9.855  0.0879 -0.0124 -0.2069
 5322TP3     H127785   4.522   3.103   9.796  0.8475 -0.5960 -1.1651
 5322TP3     H227786   4.572   3.058   9.932 -0.3847 -0.4619 -0.6524
 5323TP3      O27787   0.259   5.089   2.469  0.2975 -0.3170  0.3035
 5323TP3     H127788   0.176   5.048   2.492 -0.6827  1.1064 -0.5228
 5323TP3     H227789   0.247   5.119   2.379  1.8667 -0.4418  0.0174
 5324TP3      O27790   2.400   4.068   3.266 -0.2051 -0.3952  0.4887
 5324TP3     H127791   2.441   4.030   3.189 -0.0781 -1.7580  1.1989
 5324TP3     H227792   2.474   4.100   3.319 -0.3495  3.0819 -1.1041
 5325TP3      O27793   1.731   0.151   0.385  0.1022  0.5172 -0.1331
 5325TP3     H127794   1.694   0.168   0.472  1.1260  0.5900  0.2979
 5325TP3     H227795   1.739   0.056   0.380 -0.1046  0.5016 -0.2263
 5326TP3      O27796   3.376   2.415   7.685 -0.1698  0.5309 -0.1036
 5326TP3     H127797   3.399   2.335   7.638 -0.1299 -0.5650  1.6604
 5326TP3     H227798   3.460   2.452   7.713 -0.1790 -1.5036  3.2006
 5327TP3      O27799   3.870   4.553   7.810 -0.2048  0.0691 -0.3833
 5327TP3     H127800   3.794   4.527   7.862  0.3465 -1.0125 -0.0979
 5327TP3     H227801   3.832   4.592   7.731 -1.0490  0.2727  0.1104
 5328TP3      O27802   0.587   0.841   3.141  0.0863 -0.2261  0.1521
 5328TP3     H127803   0.556   0.924   3.106 -0.4537 -0.4391  0.1226
 5328TP3     H227804   0.511   0.783   3.139  0.1259 -0.3598  1.3315
 5329TP3      O27805   0.075   2.179   0.305  0.9470 -0.3769 -0.5475
 5329TP3     H127806   0.133   2.205   0.377  1.8305  0.0748 -1.4066
 5329TP3     H227807   0.051   2.088   0.326 -0.3699  0.3294  1.3093
 5330TP3      O27808   3.746   3.185  10.416  0.4404 -0.2153 -0.2085
 5330TP3     H127809   3.698   3.214  10.339 -0.4835 -1.2339 -0.0380
 5330TP3     H227810   3.789   3.265  10.449 -1.1601  0.7483 -0.3546
 5331TP3      O27811   5.106   4.247   7.982  0.7250 -0.3657 -0.1790
 5331TP3     H127812   5.106   4.246   8.078  0.0842 -1.7865 -0.1807
 5331TP3     H227813   5.016   4.271   7.959  0.3109 -2.0645 -0.4112
 5332TP3      O27814   0.202   3.296   1.040  0.0331 -0.3054  0.4333
 5332TP3     H127815   0.280   3.352   1.047 -0.8707  1.2069 -0.8796
 5332TP3     H227816   0.237   3.209   1.022  1.4385  0.2242  0.4387
 5333TP3      O27817   2.489   3.039  10.271  0.1190 -0.4007 -0.2692
 5333TP3     H127818   2.518   3.119  10.315 -0.2178  0.6885 -1.9544
 5333TP3     H227819   2.552   3.026  10.200 -0.0955 -1.3721 -0.2952
 5334TP3      O27820   2.200   4.874   8.138  0.5139 -0.1024 -0.1536
 5334TP3     H127821   2.142   4.920   8.198  0.0351  0.0101 -0.6916
 5334TP3     H227822   2.271   4.937   8.121 -0.0887  0.4204 -0.8113
 5335TP3      O27823   0.585   3.524  10.275  0.5393  0.2060 -0.3673
 5335TP3     H127824   0.540   3.571  10.345 -0.6022 -0.7639 -0.4198
 5335TP3     H227825   0.524   3.530  10.201  0.5757 -0.9661 -0.5007
 5336TP3      O27826   2.464   4.985  10.014  0.1766  0.0641 -0.5202
 5336TP3     H127827   2.375   4.969   9.982 -0.4035  0.0512  1.0321
 5336TP3     H227828   2.521   4.950   9.945 -1.0276 -0.7275 -1.1443
 5337TP3      O27829   2.171   0.530   9.954  0.3827  0.0385 -0.4591
 5337TP3     H127830   2.084   0.543   9.992  0.2289  2.4076 -1.4722
 5337TP3     H227831   2.170   0.438   9.925 -1.0256 -0.5721  1.2947
 5338TP3      O27832   5.072   3.328   8.038  0.2070  0.1810  0.7655
 5338TP3     H127833   5.142   3.265   8.056  0.7092  0.3590 -0.4515
 5338TP3     H227834   5.058   3.323   7.943  0.5875  2.1990  0.5439
 5339TP3      O27835   0.329   3.465   6.618 -0.3078 -0.6219 -0.7399
 5339TP3     H127836   0.417   3.428   6.609  1.0642  1.5339  1.8943
 5339TP3     H227837   0.339   3.558   6.594 -1.8018 -0.2876 -0.2152
 5340TP3      O27838   1.593   4.285   2.398  0.2751 -0.2494 -0.3977
 5340TP3     H127839   1.642   4.366   2.386 -1.6940  0.9158 -1.0889
 5340TP3     H227840   1.569   4.284   2.490  0.5188 -0.1810 -0.3336
 5341TP3      O27841   2.670   0.441   3.103  0.2658  0.0445 -0.6205
 5341TP3     H127842   2.664   0.479   3.190  1.6249  1.0061 -0.9061
 5341TP3     H227843   2.759   0.406   3.098  0.0756 -0.3511 -1.4931
 5342TP3      O27844   0.783   3.536   3.309  0.3048 -0.1902 -0.3768
 5342TP3     H127845   0.830   3.516   3.389  2.2382  1.0183 -1.1504
 5342TP3     H227846   0.728   3.460   3.294  2.0884 -1.7281  0.5276
 5343TP3      O27847   3.944   3.725   8.631  0.0479  0.0595  0.0609
 5343TP3     H127848   4.014   3.687   8.578  0.9109  1.0273  0.4865
 5343TP3     H227849   3.902   3.649   8.673  0.9495 -0.5177 -0.0660
 5344TP3      O27850   1.810   3.057   0.796  0.0797 -1.0501  0.5915
 5344TP3     H127851   1.748   3.062   0.724  0.5583 -1.6705  0.1274
 5344TP3     H227852   1.756   3.060   0.875 -0.3739  1.0881  0.2784
 5345TP3      O27853   1.631   3.358   1.268  0.0883  0.6032  0.2993
 5345TP3     H127854   1.720   3.363   1.234 -0.0556  0.5516 -0.0935
 5345TP3     H227855   1.641   3.357   1.363  0.6615 -1.6179  0.2845
 5346TP3      O27856   5.161   3.802   0.907  0.0596 -0.0004  0.2005
 5346TP3     H127857   5.248   3.772   0.935  0.3509  0.5093 -0.1468
 5346TP3     H227858   5.153   3.891   0.942 -0.2480  0.0236  0.0765
 5347TP3      O27859   0.774   0.913   9.361  0.1358  0.5376  0.3668
 5347TP3     H127860   0.817   0.953   9.285  0.9283  0.9666  1.0267
 5347TP3     H227861   0.765   0.821   9.337 -4.0602  1.3937 -2.2644
 5348TP3      O27862   1.289   4.072   2.478  0.3424  0.3410  0.3831
 5348TP3     H127863   1.374   4.063   2.519 -0.2794  0.4568  1.7424
 5348TP3     H227864   1.226   4.067   2.550 -0.7239  1.9153 -0.3566
 5349TP3      O27865   2.069   5.063   1.492  0.0853 -0.0283  0.0693
 5349TP3     H127866   2.075   5.108   1.576 -0.1686 -0.1393  0.1496
 5349TP3     H227867   2.155   5.025   1.478  0.6543  1.3780 -0.5137
 5350TP3      O27868   0.692   1.321  10.414 -0.2706 -0.4265  0.3813
 5350TP3     H127869   0.610   1.314  10.463 -0.3685 -1.2330  0.1111
 5350TP3     H227870   0.710   1.415  10.412 -1.5739 -0.1656 -0.1867
 5351TP3      O27871   2.348   1.847   0.108  0.0060  0.6773  0.1007
 5351TP3     H127872   2.440   1.871   0.107  0.3915 -0.6927 -1.2447
 5351TP3     H227873   2.307   1.905   0.045  0.3965 -0.2045 -0.9924
 5352TP3      O27874   3.305   5.021   9.269 -0.3256 -0.5960 -0.6341
 5352TP3     H127875   3.396   5.025   9.242  0.4242 -0.1608  1.7964
 5352TP3     H227876   3.280   5.112   9.284 -0.3925 -0.8760  1.0460
 5353TP3      O27877   4.524   2.277   0.965  0.1248  0.3546  0.3425
 5353TP3     H127878   4.491   2.356   0.922 -0.8783  0.0303  0.5016
 5353TP3     H227879   4.614   2.270   0.933 -0.9382 -0.6124 -2.8476
 5354TP3      O27880   1.412   4.321   8.844 -0.0965  0.2172  0.2422
 5354TP3     H127881   1.482   4.345   8.783 -2.8181  0.9347 -2.9452
 5354TP3     H227882   1.414   4.226   8.846  0.3498  0.1989 -0.5995
 5355TP3      O27883   0.277   4.527   3.352 -0.1410 -0.2189  0.0325
 5355TP3     H127884   0.331   4.509   3.275 -0.5510 -0.6036 -0.1743
 5355TP3     H227885   0.188   4.532   3.317 -0.2444  0.4182  0.3622
 5356TP3      O27886   3.395   3.616   2.708 -0.1134 -0.3807 -0.4666
 5356TP3     H127887   3.374   3.690   2.765  1.8784 -0.8183  0.9542
 5356TP3     H227888   3.354   3.540   2.751 -0.0699 -0.4641 -0.5707
 5357TP3      O27889   2.984   4.681   0.819 -0.3047  0.3708 -0.6043
 5357TP3     H127890   3.028   4.759   0.785  0.3761 -0.0226 -0.6466
 5357TP3     H227891   2.967   4.628   0.742 -1.3181  0.7433 -0.6461
 5358TP3      O27892   1.245   2.850   8.386  0.4649 -0.3875  0.4810
 5358TP3     H127893   1.187   2.776   8.366  0.4781 -0.0948 -0.7212
 5358TP3     H227894   1.332   2.820   8.357  0.6287 -0.2380  0.8216
 5359TP3      O27895   3.573   2.408   1.682 -0.1962  0.0843  0.4280
 5359TP3     H127896   3.632   2.389   1.756  0.8389  0.6274 -0.2401
 5359TP3     H227897   3.490   2.369   1.708  0.5017 -0.8716  1.3173
 5360TP3      O27898   3.859   1.333   9.682  0.1166  0.1678 -0.1242
 5360TP3     H127899   3.870   1.365   9.772  1.4216 -1.1303  0.2321
 5360TP3     H227900   3.855   1.412   9.629  2.3794  1.0117  0.7933
 5361TP3      O27901   2.967   4.516   0.577 -0.0725  0.2144  0.0192
 5361TP3     H127902   2.917   4.446   0.534  0.0356  0.2042 -0.0882
 5361TP3     H227903   2.997   4.572   0.505 -1.3771  1.1846  0.1872
 5362TP3      O27904   0.252   1.925   2.933  0.7528 -0.6364 -0.3155
 5362TP3     H127905   0.276   1.952   2.844  2.6616 -0.1731  0.3080
 5362TP3     H227906   0.328   1.876   2.964 -0.4731 -2.0651  0.5711
 5363TP3      O27907   2.232   4.254   7.785  0.0482  0.2335 -0.1339
 5363TP3     H127908   2.293   4.319   7.820 -1.1295  0.9513  0.6679
 5363TP3     H227909   2.212   4.198   7.860  1.2986 -1.3004 -0.8923
 5364TP3      O27910   2.672   2.400   1.614  0.3448 -0.1033 -0.0796
 5364TP3     H127911   2.655   2.342   1.539  1.7271  0.2228 -0.6801
 5364TP3     H227912   2.767   2.409   1.616  0.3100  0.1767  1.5280
 5365TP3      O27913   0.964   4.962   0.388 -0.4043 -0.7304  0.4623
 5365TP3     H127914   0.963   4.935   0.479 -0.9984 -0.8755  0.4201
 5365TP3     H227915   0.940   5.054   0.389  0.5185 -0.4854  0.5210
 5366TP3      O27916   2.543   1.092   3.145 -0.0473  0.0176 -0.4558
 5366TP3     H127917   2.513   1.059   3.060 -1.6027  0.5231 -0.1353
 5366TP3     H227918   2.631   1.056   3.155 -0.2566 -0.9417 -1.7838
 5367TP3      O27919   4.658   2.745   2.532 -0.2227  0.6559  0.2634
 5367TP3     H127920   4.696   2.702   2.456  0.5174 -0.9321  1.4824
 5367TP3     H227921   4.567   2.715   2.534 -0.1579  0.4541  0.1835
 5368TP3      O27922   1.928   2.907  10.178  0.4810 -0.5031 -0.1061
 5368TP3     H127923   1.885   2.911  10.264 -0.5664 -0.8051 -0.5937
 5368TP3     H227924   1.858   2.927  10.116  1.4734  0.8162 -0.8460
 5369TP3      O27925   4.859   3.487   2.876  0.0525 -0.0774  0.2006
 5369TP3     H127926   4.899   3.572   2.895  0.2899 -0.1376 -0.0211
 5369TP3     H227927   4.846   3.488   2.781 -2.1382  0.6661  0.4560
 5370TP3      O27928   2.973   1.127  10.306  0.3375  0.9606  0.2567
 5370TP3     H127929   3.006   1.132  10.396  1.5228 -1.3701  0.0248
 5370TP3     H227930   3.040   1.078  10.259  0.6028  3.6002 -2.3944
 5371TP3      O27931   4.081   3.602   1.301 -0.1977  0.3987  0.3295
 5371TP3     H127932   4.011   3.576   1.361 -2.1890  2.1001 -1.1409
 5371TP3     H227933   4.041   3.667   1.244  2.3568  0.7562 -1.1923
 5372TP3      O27934   0.486   3.033   7.434 -0.6349  0.5205  0.3110
 5372TP3     H127935   0.568   3.081   7.418 -0.0540 -0.2137  0.9700
 5372TP3     H227936   0.506   2.943   7.408 -1.7203  0.6120 -0.9456
 5373TP3      O27937   3.148   1.805   1.672 -0.2481  0.3576 -0.2828
 5373TP3     H127938   3.179   1.837   1.587  0.0925  0.0558 -0.2739
 5373TP3     H227939   3.077   1.865   1.695 -0.1573  0.6125 -0.6483
 5374TP3      O27940   4.290   5.189   8.494  0.0181  0.4549  0.1880
 5374TP3     H127941   4.380   5.208   8.521  0.4520 -0.7071 -0.3569
 5374TP3     H227942   4.283   5.094   8.502 -0.9449  0.4649 -0.4367
 5375TP3      O27943   0.998   4.505   0.430 -0.0536  0.3879 -0.4136
 5375TP3     H127944   0.907   4.495   0.456 -0.2469  1.2366 -0.7271
 5375TP3     H227945   1.035   4.565   0.495  0.0796  0.6414 -0.7199
 5376TP3      O27946   4.748   5.169   8.791  0.0855  0.3825  0.1648
 5376TP3     H127947   4.752   5.264   8.802 -0.9310  0.4118  0.3802
 5376TP3     H227948   4.663   5.145   8.828 -2.0299  0.0138 -4.2712
 5377TP3      O27949   4.151   2.936   0.520 -0.1710  0.6987 -0.0074
 5377TP3     H127950   4.108   2.919   0.437  0.8187  1.0698 -0.6191
 5377TP3     H227951   4.162   3.031   0.522 -0.2404  0.7009  0.5831
 5378TP3      O27952   2.722   0.298   8.138 -0.0399 -0.1454  0.3933
 5378TP3     H127953   2.814   0.315   8.157  0.0643 -1.7249  1.5366
 5378TP3     H227954   2.708   0.334   8.051  1.3440  1.1777  0.6716
 5379TP3      O27955   3.318   4.760   9.430 -0.1160  0.1706 -0.0349
 5379TP3     H127956   3.320   4.849   9.396  0.2961 -0.0152 -0.5111
 5379TP3     H227957   3.268   4.710   9.365  0.4381 -0.1297 -0.2402
 5380TP3      O27958   0.402   2.221   0.857  0.8513 -0.2043 -0.0705
 5380TP3     H127959   0.479   2.180   0.898  0.5397 -1.0806 -0.3463
 5380TP3     H227960   0.337   2.223   0.927  1.1386  0.6175  0.1885
 5381TP3      O27961   5.011   1.797   9.866  0.0426 -0.3544  0.3321
 5381TP3     H127962   4.990   1.716   9.913 -3.1826  1.0525  1.5908
 5381TP3     H227963   5.058   1.851   9.930 -1.0971  0.1567  0.7526
 5382TP3      O27964   4.645   4.567   7.713 -0.0158  0.0204 -0.0928
 5382TP3     H127965   4.684   4.481   7.695  1.1813  0.6355 -0.5703
 5382TP3     H227966   4.720   4.626   7.717 -0.6941  0.8286  1.6696
 5383TP3      O27967   4.648   2.656   2.003 -0.2546 -0.4010 -0.3651
 5383TP3     H127968   4.552   2.647   2.001 -0.3669 -0.7891  2.7764
 5383TP3     H227969   4.669   2.675   2.094  2.6424  0.5763 -1.1237
 5384TP3      O27970   3.793   2.685   2.574  0.2329  1.0764  0.3244
 5384TP3     H127971   3.790   2.634   2.655 -0.8069  1.0635  0.2807
 5384TP3     H227972   3.849   2.760   2.596 -0.3962  1.3085  1.1923
 5385TP3      O27973   2.850   0.373   0.872  0.0225  0.3703  0.0908
 5385TP3     H127974   2.879   0.283   0.861 -1.0194 -0.3340  2.3929
 5385TP3     H227975   2.927   0.419   0.905  0.3930  0.1939 -0.5116
 5386TP3      O27976   1.345   0.340   1.089 -0.4408 -0.5850  0.4204
 5386TP3     H127977   1.257   0.336   1.052 -0.9600  0.6152  1.4728
 5386TP3     H227978   1.336   0.304   1.177 -0.0742  0.2907  0.8313
 5387TP3      O27979   1.923   3.301   2.115 -0.5967 -0.0525 -0.3802
 5387TP3     H127980   1.861   3.315   2.187 -0.9375 -1.1884 -0.4250
 5387TP3     H227981   2.007   3.328   2.150 -0.8737  0.0437  0.2219
 5388TP3      O27982   3.565   4.870   0.826  0.4018  0.1249  0.0782
 5388TP3     H127983   3.573   4.941   0.762  0.8885 -0.0506 -0.0600
 5388TP3     H227984   3.477   4.836   0.813 -0.0120  1.0008  0.4637
 5389TP3      O27985   2.251   2.624   0.227  0.2609  0.5116 -0.2745
 5389TP3     H127986   2.339   2.656   0.209  0.1076  1.2914  0.3273
 5389TP3     H227987   2.213   2.688   0.287 -0.7694  0.2605 -0.6286
 5390TP3      O27988   0.233   1.573   9.391 -0.2879 -0.3686  0.5362
 5390TP3     H127989   0.197   1.485   9.401 -0.1203 -0.3870  1.0391
 5390TP3     H227990   0.160   1.625   9.358 -0.4914 -0.6187  0.5846
 5391TP3      O27991   4.451   4.858   0.712 -0.2663  0.6568 -0.0476
 5391TP3     H127992   4.450   4.953   0.711  1.0833  0.7141  1.0132
 5391TP3     H227993   4.541   4.834   0.691 -0.1041 -0.3041  1.5511
 5392TP3      O27994   3.456   2.614   3.138  0.6181 -0.4393  0.1709
 5392TP3     H127995   3.484   2.597   3.048 -0.6172  1.1541 -0.5799
 5392TP3     H227996   3.404   2.537   3.162 -1.1398  0.1614 -1.4506
 5393TP3      O27997   3.037   4.543   9.517 -0.0341  0.1378  0.9166
 5393TP3     H127998   3.016   4.450   9.525  1.6663 -0.2279  1.5134
 5393TP3     H227999   3.076   4.551   9.429 -0.0646  0.2583  0.9140
 5394TP3      O28000   4.730   3.830   7.279 -0.5055 -0.1262 -0.1456
 5394TP3     H128001   4.822   3.842   7.302 -0.2461  0.8855 -1.5631
 5394TP3     H228002   4.704   3.913   7.239 -2.5012  0.1586  1.5769
 5395TP3      O28003   1.394   0.165   3.427 -0.2545 -0.4107 -0.2350
 5395TP3     H128004   1.315   0.126   3.388 -0.0788 -1.3597  0.3290
 5395TP3     H228005   1.379   0.259   3.421 -2.2761 -0.5464  1.4717
 5396TP3      O28006   3.906   4.244   2.639  0.4245 -0.5627 -0.0202
 5396TP3     H128007   3.936   4.335   2.637 -0.5756 -0.1276  1.9146
 5396TP3     H228008   3.865   4.231   2.554  1.9700  0.2531 -0.9515
 5397TP3      O28009   5.187   4.922   8.258  0.0527  0.0905 -0.0920
 5397TP3     H128010   5.131   4.913   8.335  1.2645 -0.4901  0.7541
 5397TP3     H228011   5.232   5.006   8.271  1.7622 -0.9196  0.9089
 5398TP3      O28012   4.841   1.289   9.276 -0.1754  0.7852 -0.8150
 5398TP3     H128013   4.780   1.276   9.203 -0.2277  0.7401 -0.7642
 5398TP3     H228014   4.904   1.218   9.267 -1.3603 -0.4962  0.3692
 5399TP3      O28015   0.591   2.501  10.295 -0.3548  0.4593 -0.6671
 5399TP3     H128016   0.616   2.580  10.247 -1.0085 -0.3209 -2.4060
 5399TP3     H228017   0.605   2.430  10.232  0.0770 -0.8043  0.7959
 5400TP3      O28018   5.194   1.730   2.757 -0.1479 -0.0174  0.1861
 5400TP3     H128019   5.284   1.700   2.768 -0.1353 -0.4771 -1.0269
 5400TP3     H228020   5.189   1.756   2.665 -0.4906  2.6341  0.8657
 5401TP3      O28021   1.328   5.033   0.062  0.0397 -0.0059 -0.2786
 5401TP3     H128022   1.376   4.951   0.078  1.9282  0.8159 -1.3129
 5401TP3     H228023   1.320   5.037  -0.033 -0.8561  0.5844 -0.1841
 5402TP3      O28024   2.895   2.599   0.458 -0.6158 -0.0161  0.5837
 5402TP3     H128025   2.845   2.541   0.401  0.4245  0.3196 -0.6932
 5402TP3     H228026   2.863   2.687   0.437 -0.3319  0.0970  0.6231
 5403TP3      O28027   0.195   1.775   1.688 -0.2054 -0.5333 -0.2399
 5403TP3     H128028   0.191   1.717   1.763  0.3490  0.9835  1.0174
 5403TP3     H228029   0.288   1.796   1.678 -0.3567 -0.1074 -0.8549
 5404TP3      O28030   0.287   4.000   8.461  0.7133 -0.3216 -0.1784
 5404TP3     H128031   0.289   4.085   8.416  0.9608 -0.3784 -0.2744
 5404TP3     H228032   0.251   3.940   8.396  0.7813 -0.3431 -0.1959
 5405TP3      O28033   4.896   3.891   8.313 -0.4270  0.0827 -0.2513
 5405TP3     H128034   4.971   3.896   8.373  0.0359 -4.1666 -0.1745
 5405TP3     H228035   4.826   3.853   8.366 -1.5366  0.6376 -1.2674
 5406TP3      O28036   3.367   4.251   3.317 -0.4123 -0.7126 -0.3507
 5406TP3     H128037   3.403   4.252   3.406  1.0330 -0.8585 -0.8953
 5406TP3     H228038   3.306   4.177   3.317 -0.3436 -0.7782  0.4971
 5407TP3      O28039   3.375   1.172   9.684 -0.1949  0.2720  0.2061
 5407TP3     H128040   3.453   1.117   9.673 -0.5326 -0.0520 -0.6544
 5407TP3     H228041   3.312   1.116   9.729 -0.2209  0.2495  0.1421
 5408TP3      O28042   4.914   4.148   0.643 -0.0190 -0.1231  0.2179
 5408TP3     H128043   4.837   4.171   0.696 -0.1797 -0.6419  0.2135
 5408TP3     H228044   4.947   4.067   0.681  0.8133  0.3404  0.5101
 5409TP3      O28045   4.821   0.327   2.203  0.0687 -0.1707  0.3683
 5409TP3     H128046   4.752   0.289   2.258  0.3359  0.8010  1.4073
 5409TP3     H228047   4.889   0.353   2.265  0.8909 -0.0921 -0.5434
 5410TP3      O28048   3.633   4.710   9.559 -0.2318 -0.1183  0.1455
 5410TP3     H128049   3.693   4.638   9.539 -0.0713  0.0589 -0.0076
 5410TP3     H228050   3.678   4.789   9.529  0.6029  0.3243  2.3755
 5411TP3      O28051   2.143   2.810   9.969  0.4309  0.1213 -0.9066
 5411TP3     H128052   2.164   2.899   9.942  0.4667  0.7688  1.1059
 5411TP3     H228053   2.083   2.820  10.043  0.9302 -1.4737 -0.2249
 5412TP3      O28054   0.848   1.525   8.892  0.7011  0.1767 -0.5455
 5412TP3     H128055   0.911   1.463   8.856 -0.5360  0.2756 -3.1037
 5412TP3     H228056   0.776   1.470   8.922  0.8177  0.2268 -0.1696
 5413TP3      O28057   2.087   3.408   1.668 -0.4795 -0.1905 -0.5700
 5413TP3     H128058   2.119   3.335   1.615 -1.8030  0.3806 -2.2420
 5413TP3     H228059   1.996   3.386   1.686 -0.1555 -0.1909  1.2325
 5414TP3      O28060   2.220   2.246  10.310  0.1794 -0.1195 -0.7873
 5414TP3     H128061   2.295   2.269  10.255  0.9085  0.8792  0.5450
 5414TP3     H228062   2.219   2.314  10.378 -2.2361  0.1692 -1.0261
 5415TP3      O28063   1.040   1.850   8.453  0.2080  0.5124  0.2975
 5415TP3     H128064   1.049   1.822   8.543  0.2833  1.5009  0.6081
 5415TP3     H228065   1.129   1.862   8.422  0.2200 -0.7450 -0.2266
 5416TP3      O28066   4.524   2.153   2.772 -0.0510 -0.4677  0.1463
 5416TP3     H128067   4.577   2.080   2.740  0.5225  0.7362 -1.7991
 5416TP3     H228068   4.579   2.230   2.759 -2.2120  0.8592 -2.0416
 5417TP3      O28069   4.717   1.186   0.745 -0.8643 -0.5087  0.2001
 5417TP3     H128070   4.671   1.199   0.828 -0.3350 -0.2085  0.4481
 5417TP3     H228071   4.763   1.103   0.755 -0.8199 -0.4844  0.1979
 5418TP3      O28072   2.317   0.876   1.101  0.3614  0.6340  0.3153
 5418TP3     H128073   2.276   0.888   1.187 -0.6816 -0.2718 -0.0417
 5418TP3     H228074   2.306   0.784   1.081 -0.6337  1.0721 -1.3902
 5419TP3      O28075   0.895   4.502  10.367 -0.2133 -0.1956  0.1755
 5419TP3     H128076   0.949   4.571  10.405 -1.3725 -0.1735  1.8909
 5419TP3     H228077   0.830   4.548  10.314  0.8853 -0.1761 -1.1916
 5420TP3      O28078   4.157   2.004   8.080  0.1940 -0.3761  0.1977
 5420TP3     H128079   4.250   1.983   8.093 -0.1076 -2.8957 -1.1576
 5420TP3     H228080   4.110   1.942   8.136 -0.7076 -0.2122 -0.3528
 5421TP3      O28081   4.420   2.246   8.535  0.0696  0.3664  0.1056
 5421TP3     H128082   4.485   2.186   8.499  2.1118  0.9166  2.5337
 5421TP3     H228083   4.419   2.319   8.473 -0.4046 -0.9007 -1.4405
 5422TP3      O28084   2.427   2.453   0.524  0.4145 -0.0825 -0.2512
 5422TP3     H128085   2.375   2.527   0.493  0.7327  0.9289  1.5040
 5422TP3     H228086   2.454   2.477   0.612  0.5426 -2.3033  0.3918
 5423TP3      O28087   3.933   4.512   2.245  0.2703 -0.1860  0.2255
 5423TP3     H128088   3.892   4.574   2.184 -0.0842 -1.3247 -0.7162
 5423TP3     H228089   4.014   4.556   2.272 -0.9729  1.6247  1.2587
 5424TP3      O28090   3.874   0.090   8.669 -0.1890  0.8568  0.2695
 5424TP3     H128091   3.959   0.047   8.671 -0.0668  0.8948 -2.0276
 5424TP3     H228092   3.889   0.174   8.712  0.8814  0.7532  0.1240
 5425TP3      O28093   1.877   3.729   9.381  0.6558 -0.3888 -0.7409
 5425TP3     H128094   1.868   3.651   9.435  3.4629 -0.0389  0.3727
 5425TP3     H228095   1.838   3.799   9.434  1.4384 -0.4222 -0.1136
 5426TP3      O28096   0.377   1.905  10.004 -0.3722 -0.1579  0.3773
 5426TP3     H128097   0.310   1.972  10.015  0.0016  0.2249  0.3662
 5426TP3     H228098   0.329   1.825   9.983 -0.7717  0.3089 -0.5233
 5427TP3      O28099   3.076   1.816   1.386 -0.1391  0.0523 -0.4106
 5427TP3     H128100   3.116   1.889   1.339 -1.6405  0.2634 -1.4132
 5427TP3     H228101   3.081   1.743   1.325 -0.3448 -0.1890 -0.1409
 5428TP3      O28102   0.583   3.564   2.777 -0.1956 -0.0359 -0.6841
 5428TP3     H128103   0.677   3.555   2.766  0.4581  2.5175  1.7290
 5428TP3     H228104   0.563   3.511   2.854  0.0805  2.3151  1.1397
 5429TP3      O28105   0.977   1.626  10.227  0.1711  0.3567  0.0268
 5429TP3     H128106   0.931   1.656  10.148 -0.7179 -2.2663 -0.5652
 5429TP3     H228107   0.908   1.618  10.293  0.4471  0.0337  0.2760
 5430TP3      O28108   0.004   1.236   0.447  0.3641  0.1168  0.1563
 5430TP3     H128109  -0.008   1.165   0.384  1.8369 -0.4591  0.4883
 5430TP3     H228110   0.038   1.308   0.395 -0.1899  0.2637 -0.0109
 5431TP3      O28111   2.841   4.641   8.591 -0.2986  0.4325 -0.5766
 5431TP3     H128112   2.805   4.717   8.546 -1.6857  0.2172  0.1249
 5431TP3     H228113   2.832   4.662   8.684  0.4933 -0.0548 -0.3785
 5432TP3      O28114   5.192   3.692   8.771 -0.0575 -0.2098 -0.0622
 5432TP3     H128115   5.194   3.781   8.806  0.8641  0.3227 -1.3587
 5432TP3     H228116   5.218   3.637   8.844 -4.2206  0.0672  1.9210
 5433TP3      O28117   1.280   1.637   7.411  0.3146  0.3904  0.0338
 5433TP3     H128118   1.243   1.564   7.362  0.9732 -0.4777  0.8048
 5433TP3     H228119   1.361   1.658   7.365  0.7727 -0.2189  0.5376
 5434TP3      O28120   3.216   0.578   9.790  0.2618 -0.5542 -0.1630
 5434TP3     H128121   3.236   0.491   9.756 -0.4216 -1.4132  1.4779
 5434TP3     H228122   3.126   0.595   9.761 -0.4595 -1.4488  1.3854
 5435TP3      O28123   3.704   0.390   7.086 -0.4520 -0.3406  0.5980
 5435TP3     H128124   3.793   0.424   7.078  0.2140 -1.7844  1.5735
 5435TP3     H228125   3.713   0.310   7.138 -2.1499 -1.2212 -0.3752
 5436TP3      O28126   1.140   2.766   0.215  0.5307  0.0776 -0.1609
 5436TP3     H128127   1.080   2.704   0.175  0.3225  0.5279 -0.5524
 5436TP3     H228128   1.187   2.714   0.280  1.3610 -0.8388 -1.4357
 5437TP3      O28129   0.440   4.570   9.862 -0.3415 -0.0227  0.0808
 5437TP3     H128130   0.439   4.666   9.852  3.2542  0.1298 -0.2560
 5437TP3     H228131   0.458   4.556   9.955  0.2018 -0.3298 -0.0694
 5438TP3      O28132   1.477   4.608   2.260  0.1035  0.8644  0.2698
 5438TP3     H128133   1.457   4.656   2.340 -1.1044  0.3625  0.2869
 5438TP3     H228134   1.447   4.519   2.278 -3.3417  1.4231 -1.8637
 5439TP3      O28135   0.619   0.847  10.141 -0.2451  0.1912  0.2020
 5439TP3     H128136   0.711   0.822  10.129 -0.4688 -0.4130 -0.3357
 5439TP3     H228137   0.573   0.763  10.148 -1.1857  0.3584 -2.7827
 5440TP3      O28138   3.636   2.836   8.874 -0.5114  0.3313 -0.1832
 5440TP3     H128139   3.624   2.789   8.957  0.9615 -0.6969 -0.5204
 5440TP3     H228140   3.548   2.866   8.851 -0.9041  0.9635  1.9204
 5441TP3      O28141   3.551   4.943   7.971 -0.2591  0.2912  0.1165
 5441TP3     H128142   3.547   4.882   8.045  1.3550  1.1076  0.9326
 5441TP3     H228143   3.592   4.893   7.901 -1.8367 -0.5032 -0.2847
 5442TP3      O28144   4.426   5.191   8.226  0.0711  0.1758 -0.2479
 5442TP3     H128145   4.446   5.251   8.154 -1.7847  0.0719 -0.9132
 5442TP3     H228146   4.345   5.226   8.264 -0.2072 -1.0395  0.3319
 5443TP3      O28147   0.664   4.759   6.401 -0.5812  0.4055  0.1742
 5443TP3     H128148   0.602   4.687   6.386  0.2079 -0.1580 -0.4236
 5443TP3     H228149   0.611   4.838   6.393 -1.3640 -0.0889  0.3484
 5444TP3      O28150   4.433   2.221   1.194  0.4646 -0.2377  1.1595
 5444TP3     H128151   4.456   2.230   1.101 -1.6812  0.0499  0.5912
 5444TP3     H228152   4.505   2.172   1.232  1.2347 -0.6836 -0.7505
 5445TP3      O28153   5.177   4.569   9.887  0.0619 -0.3438  0.2307
 5445TP3     H128154   5.115   4.554   9.958 -0.1088  0.0133  0.1628
 5445TP3     H228155   5.128   4.622   9.824  0.4019 -0.1463  0.1277
 5446TP3      O28156   0.526   2.853   0.095  0.2675 -0.3084  0.2906
 5446TP3     H128157   0.607   2.808   0.118 -0.4301 -1.8169 -0.1156
 5446TP3     H228158   0.467   2.835   0.168 -0.2426 -0.6542 -0.2039
 5447TP3      O28159   0.088   0.799   1.083  0.4520 -0.0784  0.2352
 5447TP3     H128160   0.035   0.725   1.113 -0.4903 -0.4024 -2.0235
 5447TP3     H228161   0.145   0.762   1.015  1.8082  0.7940  0.8567
 5448TP3      O28162   2.528   2.723   1.635  0.0469 -0.4066  0.6647
 5448TP3     H128163   2.586   2.682   1.570 -0.8170 -1.7901  0.7222
 5448TP3     H228164   2.505   2.808   1.596 -0.3749 -1.1578 -0.8231
 5449TP3      O28165   4.721   2.508   0.930  0.0592  0.4285  0.0515
 5449TP3     H128166   4.793   2.532   0.872  1.9360 -1.0039  1.6614
 5449TP3     H228167   4.756   2.437   0.984 -2.0418  0.7556  2.0003
 5450TP3      O28168   4.546   0.338   8.674 -0.6532 -0.1671  0.6320
 5450TP3     H128169   4.563   0.381   8.590  1.4332 -0.1339  1.0140
 5450TP3     H228170   4.467   0.380   8.707 -0.3558  1.2597 -0.3847
 5451TP3      O28171   4.704   0.788   2.876  0.4010  0.2991 -0.4286
 5451TP3     H128172   4.620   0.752   2.851  0.4830  0.4861 -0.9860
 5451TP3     H228173   4.697   0.803   2.970 -0.8293  1.9788 -0.7397
 5452TP3      O28174   1.901   3.736   1.757 -0.6725  0.3350 -0.1640
 5452TP3     H128175   1.835   3.759   1.691 -0.9408  1.4606  0.4698
 5452TP3     H228176   1.890   3.801   1.826  1.2497  0.7028 -0.1360
 5453TP3      O28177   0.504   4.421   2.098 -0.1852  0.1961 -0.1316
 5453TP3     H128178   0.557   4.498   2.117  1.1077 -1.0659  1.6232
 5453TP3     H228179   0.551   4.376   2.028 -1.5620  1.5042 -2.0275
 5454TP3      O28180   1.476   4.062   9.739  0.2053 -0.1417  0.2505
 5454TP3     H128181   1.469   3.986   9.797  1.4769 -1.0657 -0.7226
 5454TP3     H228182   1.550   4.040   9.682  0.5859  1.8379 -0.0682
 5455TP3      O28183   2.353   0.190   0.746 -0.4421 -0.5713  0.1602
 5455TP3     H128184   2.264   0.225   0.748 -0.9661 -1.8548  0.2227
 5455TP3     H228185   2.383   0.197   0.837 -0.2815  0.3015  0.0529
 5456TP3      O28186   0.321   2.626   0.902  0.0890  0.1740 -0.4513
 5456TP3     H128187   0.246   2.677   0.933  0.9365  1.3464 -0.2723
 5456TP3     H228188   0.348   2.669   0.821  0.2707 -0.5448 -0.7843
 5457TP3      O28189   3.618   4.502   1.851  0.3287 -0.0897 -0.5142
 5457TP3     H128190   3.705   4.470   1.826 -0.5476 -2.1580 -1.1626
 5457TP3     H228191   3.616   4.592   1.819  1.5558 -0.6088 -2.2314
 5458TP3      O28192   4.121   1.460   3.037  0.1300  0.1080  0.1983
 5458TP3     H128193   4.157   1.378   3.004 -1.4122 -0.4300 -0.2231
 5458TP3     H228194   4.027   1.454   3.019 -0.2031  1.4026  1.3521
 5459TP3      O28195   1.568   2.807   9.221 -0.0314 -0.2420 -0.5688
 5459TP3     H128196   1.475   2.826   9.225  0.0281 -0.0554 -0.1014
 5459TP3     H228197   1.591   2.780   9.310  0.5169  0.4344 -0.4963
 5460TP3      O28198   1.487   1.388   1.962 -0.1135  0.6825  0.3997
 5460TP3     H128199   1.534   1.469   1.941 -1.0706  1.6062  1.6658
 5460TP3     H228200   1.482   1.388   2.057  1.0708 -1.5929  0.5128
 5461TP3      O28201   2.387   3.312   2.119  0.5703  0.2230  0.6596
 5461TP3     H128202   2.336   3.231   2.119 -1.0159  1.1821  1.1377
 5461TP3     H228203   2.338   3.371   2.176  1.2165  1.8092 -0.3703
 5462TP3      O28204   2.485   0.555   0.832  0.2992 -0.0699 -0.0783
 5462TP3     H128205   2.478   0.640   0.789 -0.7049 -0.4604 -0.7059
 5462TP3     H228206   2.468   0.491   0.763 -0.8059 -0.7211  0.7659
 5463TP3      O28207   0.403   4.607  10.141  0.2199  0.3474  0.0960
 5463TP3     H128208   0.317   4.579  10.109  0.0204  0.8847  0.1497
 5463TP3     H228209   0.384   4.671  10.209  0.6646  1.0333 -0.4048
 5464TP3      O28210   1.400   2.001   6.731  0.0202  0.4943  0.5156
 5464TP3     H128211   1.391   1.907   6.745  0.1381  0.1042 -1.7117
 5464TP3     H228212   1.352   2.018   6.651  0.1122  2.3294  0.8095
 5465TP3      O28213   4.481   4.356   1.023  0.4818  0.1301 -0.1126
 5465TP3     H128214   4.438   4.298   0.961 -0.3047  1.8181 -1.2382
 5465TP3     H228215   4.550   4.302   1.063  0.3121 -1.3226 -1.6630
 5466TP3      O28216   3.833   1.821   8.988  0.1259 -0.1459  0.3881
 5466TP3     H128217   3.921   1.789   8.969 -0.7277 -3.2235  1.0119
 5466TP3     H228218   3.839   1.858   9.076  0.5360 -1.7533  1.0699
 5467TP3      O28219   0.199   4.254   2.490 -0.3241  0.2041  0.1330
 5467TP3     H128220   0.202   4.339   2.534  0.1717  0.0318  0.4355
 5467TP3     H228221   0.280   4.211   2.515  0.6640  0.6471 -2.0817
 5468TP3      O28222   1.259   0.787   1.970  0.5178 -0.1628 -0.4121
 5468TP3     H128223   1.213   0.849   1.914  0.5674 -0.0332 -0.3091
 5468TP3     H228224   1.194   0.719   1.989 -0.3008  1.0661  1.4401
 5469TP3      O28225   5.140   2.740   1.620 -0.1973  0.1644  0.3678
 5469TP3     H128226   5.180   2.782   1.544 -2.3124  0.5626 -0.6037
 5469TP3     H228227   5.182   2.655   1.626  1.8285  1.1092  0.3552
 5470TP3      O28228   4.165   0.130   9.840 -0.6448 -0.1587 -0.0619
 5470TP3     H128229   4.102   0.162   9.905 -0.0535 -0.8313  0.8703
 5470TP3     H228230   4.248   0.126   9.888  0.0764  0.4904 -1.2018
 5471TP3      O28231   4.497   1.399   8.944  0.0753  0.4987  0.0304
 5471TP3     H128232   4.430   1.370   8.882  1.1117  1.2980 -1.5186
 5471TP3     H228233   4.497   1.494   8.936  0.0335  0.6391  1.5007
 5472TP3      O28234   0.830   3.568   2.363 -0.2613 -0.0253  0.7304
 5472TP3     H128235   0.791   3.653   2.386 -2.2774 -0.5295 -0.5771
 5472TP3     H228236   0.783   3.540   2.285 -0.8026 -3.0836  1.9879
 5473TP3      O28237   3.515   1.992   9.350 -0.5571 -0.7363  0.1254
 5473TP3     H128238   3.484   2.079   9.376  0.1419 -0.8426  1.3987
 5473TP3     H228239   3.570   2.008   9.274  2.9786  0.5791  2.6675
 5474TP3      O28240   2.570   1.136   6.923 -0.3816 -0.5642  0.2313
 5474TP3     H128241   2.567   1.221   6.967 -1.5684 -1.6741  2.5102
 5474TP3     H228242   2.633   1.085   6.975 -0.9510 -1.5819 -0.0583
 5475TP3      O28243   4.691   1.754   0.468 -0.4160  0.2110  0.3195
 5475TP3     H128244   4.613   1.808   0.477  0.0732  0.7763  1.4345
 5475TP3     H228245   4.707   1.721   0.557  0.7466  0.3340  0.1744
 5476TP3      O28246   3.216   3.724   1.047 -0.6100  0.2110  0.2173
 5476TP3     H128247   3.257   3.742   0.963 -1.7624  1.3691 -0.1296
 5476TP3     H228248   3.230   3.631   1.061  1.7428  0.4735 -0.0563
 5477TP3      O28249   4.243   5.125   0.536  0.1560 -0.2794 -0.5996
 5477TP3     H128250   4.308   5.056   0.526  1.0252  0.6662 -1.8278
 5477TP3     H228251   4.293   5.201   0.567 -0.7031 -0.0525  0.2902
 5478TP3      O28252   1.517   3.889   7.397 -0.0677 -0.4142 -0.2169
 5478TP3     H128253   1.582   3.889   7.468  0.0660 -0.0883 -0.3395
 5478TP3     H228254   1.540   3.812   7.344  0.7358  0.1574 -0.7242
 5479TP3      O28255   2.445   0.026   8.208 -0.1176 -0.0789 -0.4816
 5479TP3     H128256   2.520   0.020   8.267  0.4961 -1.1094 -1.3241
 5479TP3     H228257   2.417   0.117   8.214  1.4047  0.4079 -0.3920
 5480TP3      O28258   2.334   1.685   9.933  0.3122  0.1947 -0.0705
 5480TP3     H128259   2.373   1.598   9.941  1.6617  0.8201  0.4737
 5480TP3     H228260   2.409   1.744   9.930 -0.5172  1.6588  3.3454
 5481TP3      O28261   1.618   1.611   1.844 -0.1929 -0.2866 -0.4181
 5481TP3     H128262   1.590   1.694   1.806  0.4992 -0.1234 -0.5881
 5481TP3     H228263   1.677   1.574   1.779  0.9874 -0.0244  0.4717
 5482TP3      O28264   4.440   3.786   0.874  0.0981 -0.0149  0.3429
 5482TP3     H128265   4.386   3.707   0.889  2.0308 -1.2571  1.1133
 5482TP3     H228266   4.394   3.832   0.803 -0.4194 -2.5195 -1.0917
 5483TP3      O28267   3.317   2.439   2.443  0.3556  0.1502 -0.2051
 5483TP3     H128268   3.230   2.403   2.427  0.5303 -0.5272  0.3684
 5483TP3     H228269   3.348   2.396   2.522 -0.2498  3.0048  1.7229
 5484TP3      O28270   4.569   0.477   1.475 -0.4856  0.2828  0.3998
 5484TP3     H128271   4.511   0.405   1.450  0.7874 -0.1244 -1.6863
 5484TP3     H228272   4.609   0.449   1.557  0.6882 -1.9057 -0.8237
 5485TP3      O28273   4.979   0.778   9.338 -0.0829  0.1919 -0.2594
 5485TP3     H128274   4.977   0.735   9.423  0.2559  0.4918 -0.0978
 5485TP3     H228275   4.917   0.728   9.285 -0.2183 -0.0600  0.1292
 5486TP3      O28276   0.892   0.380   9.821  0.0936  0.6059  0.1589
 5486TP3     H128277   0.983   0.363   9.797  0.1247 -1.3406  1.4738
 5486TP3     H228278   0.895   0.405   9.913 -0.7695 -0.6962  0.5742
 5487TP3      O28279   0.013   2.181   0.833  0.5896 -0.1062 -0.3542
 5487TP3     H128280   0.033   2.261   0.881 -0.7612  0.7754 -1.1980
 5487TP3     H228281  -0.065   2.146   0.877  1.2822 -1.0849  0.1306
 5488TP3      O28282   0.462   4.111   2.577 -0.2474 -0.6424 -0.7373
 5488TP3     H128283   0.451   4.179   2.644 -0.9860 -0.5721 -0.9217
 5488TP3     H228284   0.425   4.032   2.617  3.3650 -1.8077  0.7316
 5489TP3      O28285   4.175   4.493   2.482  0.0647  0.1327 -0.2993
 5489TP3     H128286   4.153   4.513   2.573  0.3246 -0.1235 -0.1762
 5489TP3     H228287   4.177   4.578   2.439  0.9186  0.3640  0.1627
 5490TP3      O28288   1.643   4.382   0.841 -0.1191 -0.1271  0.1139
 5490TP3     H128289   1.573   4.435   0.803  0.6330 -0.2889 -1.6019
 5490TP3     H228290   1.599   4.305   0.876 -1.1402  1.2251  1.9575
 5491TP3      O28291   5.144   1.452   9.644  0.3749 -0.7079  0.3103
 5491TP3     H128292   5.114   1.540   9.622  0.9616 -0.7005 -0.5274
 5491TP3     H228293   5.066   1.407   9.674 -0.0808 -0.1197  0.0366
 5492TP3      O28294   4.497   1.830   9.894  0.1715  0.3184 -0.6716
 5492TP3     H128295   4.577   1.852   9.847  1.1948  1.3348  1.4156
 5492TP3     H228296   4.517   1.849   9.986 -2.1808 -0.2401  0.0267
 5493TP3      O28297   3.805   4.670  10.351 -0.4398  0.3802 -0.2273
 5493TP3     H128298   3.792   4.757  10.313 -1.0964 -0.2667 -1.5529
 5493TP3     H228299   3.840   4.618  10.279 -0.2367 -0.5028  0.5013
 5494TP3      O28300   1.520   2.335   3.707  0.4506  0.2448 -1.3514
 5494TP3     H128301   1.576   2.281   3.763  0.1404  0.2458 -1.0375
 5494TP3     H228302   1.463   2.273   3.663  0.3603  0.2832 -1.2894
 5495TP3      O28303   2.971   4.622   2.213  0.2273  0.1984 -0.0798
 5495TP3     H128304   3.044   4.583   2.166  0.0729 -1.7847  1.1937
 5495TP3     H228305   2.910   4.549   2.227 -0.5518  1.0914  1.5515
 5496TP3      O28306   3.837   2.731   7.663  0.1545 -0.4170  0.4597
 5496TP3     H128307   3.870   2.742   7.574 -0.5286 -0.7351  0.1584
 5496TP3     H228308   3.832   2.636   7.676 -3.7681 -0.5704 -0.7723
 5497TP3      O28309   0.497   2.498   2.964  0.7560 -0.7902 -0.5851
 5497TP3     H128310   0.579   2.459   2.933  0.2882 -2.2409 -0.0944
 5497TP3     H228311   0.458   2.430   3.019  0.0536  0.5195  0.6141
 5498TP3      O28312   4.572   0.694   9.817  0.6313 -0.2680 -0.0451
 5498TP3     H128313   4.491   0.738   9.843 -1.0657 -3.1484  0.0302
 5498TP3     H228314   4.612   0.752   9.752 -1.2262  1.4733  0.2739
 5499TP3      O28315   2.154   2.511   2.738  0.2738 -0.3720 -0.1095
 5499TP3     H128316   2.197   2.484   2.819  0.7358  0.7572  0.0523
 5499TP3     H228317   2.176   2.604   2.730 -2.0748  0.2539 -0.0700
 5500TP3      O28318   4.102   2.416   3.152 -0.9154  0.0601  0.0090
 5500TP3     H128319   4.048   2.463   3.089  0.5401 -0.3921 -1.6416
 5500TP3     H228320   4.114   2.329   3.113  2.0044  0.5339 -0.3222
 5501TP3      O28321   4.209   4.485   3.969 -0.3541  0.2866  0.1938
 5501TP3     H128322   4.122   4.450   3.949 -0.8597  1.1255  0.8819
 5501TP3     H228323   4.208   4.574   3.935  1.3546 -0.6526 -2.6401
 5502TP3      O28324   1.820   1.921   1.284 -0.1431 -0.1679  0.6659
 5502TP3     H128325   1.851   1.840   1.244  2.1859 -0.1792  2.3041
 5502TP3     H228326   1.782   1.971   1.212  2.0889 -0.9829 -1.1744
 5503TP3      O28327   4.563   2.826   8.179  0.2968 -0.1865  0.7050
 5503TP3     H128328   4.647   2.845   8.220 -0.7002  0.9535  2.3192
 5503TP3     H228329   4.499   2.836   8.249 -1.2271 -0.8354 -0.5308
 5504TP3      O28330   4.753   3.686   8.472  0.2469  0.0309 -0.0747
 5504TP3     H128331   4.835   3.670   8.519  1.0390 -0.8464 -1.6759
 5504TP3     H228332   4.727   3.601   8.438  0.0282  0.6922 -1.6832
 5505TP3      O28333   1.435   4.101  10.233  0.2000 -0.8063 -0.6414
 5505TP3     H128334   1.504   4.093  10.167  0.1115  0.1643 -0.8572
 5505TP3     H228335   1.360   4.055  10.195  0.2043 -0.4076 -1.1492
 5506TP3      O28336   1.598   4.117   1.184 -0.2753  0.2998  0.7832
 5506TP3     H128337   1.644   4.034   1.175  1.0523  0.9967  0.8343
 5506TP3     H228338   1.559   4.133   1.098 -0.9882 -0.6096  0.9229
 5507TP3      O28339   2.535   3.762  10.260  0.6207  0.1457 -0.3240
 5507TP3     H128340   2.488   3.845  10.255  1.3388  0.7502  2.0030
 5507TP3     H228341   2.474   3.698  10.224 -0.9081  1.3207  0.0801
 5508TP3      O28342   1.132   4.585   2.890  0.1350  0.4189 -0.6487
 5508TP3     H128343   1.068   4.648   2.855 -1.3282  0.5912  2.0413
 5508TP3     H228344   1.161   4.624   2.973  2.1840 -0.6631 -0.8007
 5509TP3      O28345   4.852   1.311   9.921 -0.3518 -0.7761  0.0537
 5509TP3     H128346   4.888   1.285  10.005 -0.7794  1.3205  0.9577
 5509TP3     H228347   4.757   1.307   9.934 -0.5896  3.4779  1.2121
 5510TP3      O28348   0.805   1.106   0.302  0.2418  0.6823  0.1766
 5510TP3     H128349   0.834   1.017   0.287  1.9702  1.4205 -1.2122
 5510TP3     H228350   0.712   1.098   0.324 -0.6265 -1.2694 -3.4481
 5511TP3      O28351   0.343   0.752   0.883 -0.1597  0.0386 -0.1370
 5511TP3     H128352   0.366   0.844   0.867  2.8093 -1.0139 -2.7380
 5511TP3     H228353   0.421   0.714   0.923 -0.6700 -1.7677 -0.7847
 5512TP3      O28354   3.820   1.158   8.475 -0.2592  0.3600 -0.0471
 5512TP3     H128355   3.771   1.118   8.547 -1.3762  1.3196 -0.2359
 5512TP3     H228356   3.866   1.084   8.434  2.5381  0.0657  3.1283
 5513TP3      O28357   0.524   3.746   0.514  0.1328  0.1005 -0.0402
 5513TP3     H128358   0.448   3.689   0.507 -0.8168  1.5196 -2.6580
 5513TP3     H228359   0.587   3.709   0.452  0.3823  0.6403 -0.1125
 5514TP3      O28360   0.270   2.441   2.097 -0.0660 -0.2619 -0.5528
 5514TP3     H128361   0.199   2.502   2.114 -0.7257 -1.2658  0.3843
 5514TP3     H228362   0.229   2.367   2.052  0.0739 -1.4666  1.1856
 5515TP3      O28363   3.298   0.785   3.141 -0.0605  0.6105 -0.3606
 5515TP3     H128364   3.351   0.776   3.220 -0.7444  0.4059  0.0831
 5515TP3     H228365   3.287   0.880   3.130  1.0332  0.7007 -0.9069
 5516TP3      O28366   1.867   0.289   3.344 -0.1667 -0.0328 -0.0764
 5516TP3     H128367   1.825   0.276   3.429 -0.8195  1.5713 -0.1164
 5516TP3     H228368   1.953   0.247   3.353 -0.3238 -0.0938  1.3039
 5517TP3      O28369   0.733   0.520   8.536 -0.7839  0.2434  0.3505
 5517TP3     H128370   0.673   0.595   8.529 -0.4223  0.4623 -0.6328
 5517TP3     H228371   0.814   0.558   8.572 -1.2369 -0.0582  1.7095
 5518TP3      O28372   0.182   1.649   7.892  0.3363  0.1769 -0.2187
 5518TP3     H128373   0.244   1.586   7.928 -0.8751 -0.8445  0.1261
 5518TP3     H228374   0.170   1.714   7.962  0.6001  0.0889 -0.0907
 5519TP3      O28375   1.185   4.220   7.900 -0.5989 -0.4890  0.2878
 5519TP3     H128376   1.213   4.129   7.892  0.1766 -0.3610  1.3384
 5519TP3     H228377   1.245   4.258   7.965 -1.9151  0.3485  1.0568
 5520TP3      O28378   4.688   1.696   9.094 -0.4006 -0.4148 -0.2476
 5520TP3     H128379   4.627   1.692   9.021 -0.3253 -0.0681 -0.3335
 5520TP3     H228380   4.647   1.645   9.163 -2.5608  2.7131  0.9944
 5521TP3      O28381   4.686   4.392   9.436  0.5048 -0.3458 -0.6104
 5521TP3     H128382   4.715   4.482   9.418 -0.8118  0.2345  0.0042
 5521TP3     H228383   4.600   4.403   9.477  0.8112 -1.8497  0.5081
 5522TP3      O28384   0.334   2.351   8.982  0.1215 -0.0793  0.1004
 5522TP3     H128385   0.402   2.418   8.980 -0.3320  0.3656 -1.1967
 5522TP3     H228386   0.256   2.394   8.948 -0.3576 -1.0752 -0.1063
 5523TP3      O28387   2.381   1.551   2.893  0.1659  0.1118  0.8564
 5523TP3     H128388   2.464   1.537   2.848 -0.9511 -0.8593 -1.0410
 5523TP3     H228389   2.399   1.530   2.985  1.8236 -0.8669  0.3434
 5524TP3      O28390   2.650   2.788  10.045 -0.0711  0.0657 -0.2595
 5524TP3     H128391   2.712   2.769   9.975 -0.0076 -1.3330  0.1347
 5524TP3     H228392   2.653   2.883  10.056  1.5498  0.0860 -0.6489
 5525TP3      O28393   1.863   0.182   2.327  0.1857  0.1974 -0.2067
 5525TP3     H128394   1.852   0.087   2.322  1.2053  0.1473 -2.4645
 5525TP3     H228395   1.776   0.218   2.305 -0.1442 -0.1832  0.4411
 5526TP3      O28396   0.131   4.120   0.754 -0.0354 -0.0581 -0.3829
 5526TP3     H128397   0.043   4.139   0.720 -0.5950  0.0883  1.0676
 5526TP3     H228398   0.169   4.060   0.690 -1.2241 -0.1976 -0.9913
 5527TP3      O28399   2.034   1.189   6.758 -0.1876  0.5727 -0.1310
 5527TP3     H128400   2.112   1.169   6.706 -0.0210  0.6191  0.0976
 5527TP3     H228401   2.032   1.121   6.825 -0.5185  0.3911 -0.3225
 5528TP3      O28402   1.382   4.258   0.221  0.6434 -0.1276 -0.8461
 5528TP3     H128403   1.294   4.227   0.200  0.0075  2.0115 -1.6039
 5528TP3     H228404   1.424   4.272   0.136  1.0041  0.7074 -0.5452
 5529TP3      O28405   0.638   1.918   2.057 -0.4491 -0.2661 -0.5267
 5529TP3     H128406   0.668   1.901   1.968 -0.9250 -0.9696 -0.5628
 5529TP3     H228407   0.671   1.845   2.109 -0.2892  0.0683 -0.1490
 5530TP3      O28408   3.238   4.864   2.173  0.0114 -0.3302  0.0169
 5530TP3     H128409   3.228   4.894   2.263 -1.3661  0.5538 -0.4034
 5530TP3     H228410   3.153   4.878   2.133  0.7243 -0.2638 -1.5686
 5531TP3      O28411   0.992   1.296   3.782 -0.0996  0.7507  0.9184
 5531TP3     H128412   1.064   1.292   3.845  1.0671 -1.9601 -0.4258
 5531TP3     H228413   1.017   1.368   3.723  0.0792  1.6372  2.0397
 5532TP3      O28414   3.429   2.063   8.972  0.3503  0.0166 -0.5556
 5532TP3     H128415   3.385   2.135   9.017  1.3853 -0.5003  1.3533
 5532TP3     H228416   3.497   2.035   9.032  1.6363 -0.8987 -2.3518
 5533TP3      O28417   5.066   2.337   0.321  0.0104 -0.3922 -0.7310
 5533TP3     H128418   5.151   2.299   0.300  0.3390 -0.3168  0.3845
 5533TP3     H228419   5.085   2.400   0.391 -1.0927 -1.0627  0.1981
 5534TP3      O28420   2.475   0.107   2.465 -0.5667  0.0191 -0.2043
 5534TP3     H128421   2.401   0.065   2.421 -0.1793 -0.2652 -0.5959
 5534TP3     H228422   2.505   0.042   2.529 -0.8574  0.2625  0.1834
 5535TP3      O28423   4.437   1.939   9.043 -0.0857  0.6824  0.7126
 5535TP3     H128424   4.373   1.996   9.000 -0.2830  0.9592  1.3603
 5535TP3     H228425   4.474   1.887   8.972 -0.3419  1.1915  0.1963
 5536TP3      O28426   0.915   3.486   3.642  0.4938 -0.2370 -0.0617
 5536TP3     H128427   0.963   3.415   3.598 -0.5798 -0.8236 -0.3160
 5536TP3     H228428   0.823   3.461   3.634  0.0748  1.3118 -0.3459
 5537TP3      O28429   3.347   1.378   9.458  0.0698  0.0871 -0.3195
 5537TP3     H128430   3.381   1.303   9.409  1.1236 -0.0861  0.6395
 5537TP3     H228431   3.348   1.350   9.549 -0.9100  0.7631 -0.0819
 5538TP3      O28432   4.694   2.357   7.813  0.1160  0.0976 -0.3204
 5538TP3     H128433   4.599   2.342   7.810  0.4431 -3.4267  1.6756
 5538TP3     H228434   4.726   2.324   7.729 -0.1971 -2.1791  0.3726
 5539TP3      O28435   1.951   3.218   0.587 -0.1104 -0.6853  0.3471
 5539TP3     H128436   1.928   3.145   0.645 -3.0513  0.1090  0.3061
 5539TP3     H228437   1.919   3.192   0.501 -2.3410  1.0618  0.5602
 5540TP3      O28438   3.819   1.783  10.159 -0.2671 -0.9211  0.1186
 5540TP3     H128439   3.734   1.814  10.191 -1.4973 -2.1532 -1.7759
 5540TP3     H228440   3.861   1.746  10.237 -0.1823  2.1906  1.7221
 5541TP3      O28441   2.401   2.799   8.918 -0.5082  0.4707 -0.0629
 5541TP3     H128442   2.326   2.773   8.972 -1.1622 -2.0214 -2.0031
 5541TP3     H228443   2.364   2.813   8.831  1.1700 -0.1090 -0.9111
 5542TP3      O28444   5.097   1.718   9.637 -0.1853  0.2151 -0.1028
 5542TP3     H128445   5.012   1.701   9.596 -0.1916  0.7502 -0.3259
 5542TP3     H228446   5.075   1.751   9.724 -0.1625 -1.4724  0.5768
 5543TP3      O28447   1.054   5.147   8.633 -0.3875  0.0539 -0.0050
 5543TP3     H128448   1.140   5.115   8.660 -0.3525 -0.0148 -0.1991
 5543TP3     H228449   1.066   5.241   8.622 -0.1844 -0.0376 -0.6099
 5544TP3      O28450   4.022   2.330   3.408  0.3644  0.4003  1.1085
 5544TP3     H128451   3.945   2.382   3.431 -2.3256 -2.9077  0.3708
 5544TP3     H228452   4.061   2.377   3.335 -1.3083  1.9331  1.1202
 5545TP3      O28453   1.259   3.824   2.365  0.4792  0.2915  0.3621
 5545TP3     H128454   1.247   3.903   2.418 -0.3328 -0.1100  0.7865
 5545TP3     H228455   1.173   3.806   2.329  1.1387  0.9476 -1.7055
 5546TP3      O28456   1.070   2.849   9.701 -0.1376 -0.3019 -0.5751
 5546TP3     H128457   1.035   2.760   9.710  1.1132 -0.6025  2.6482
 5546TP3     H228458   1.035   2.896   9.777  0.5604  1.5094 -1.3225
 5547TP3      O28459   3.514   1.730   0.312  0.6891 -0.1479  0.1359
 5547TP3     H128460   3.431   1.771   0.289  0.1259 -0.0226  2.1363
 5547TP3     H228461   3.544   1.780   0.388  2.3143 -0.5652 -0.1922
 5548TP3      O28462   2.401   0.906   7.566  0.1563 -1.1260  0.1857
 5548TP3     H128463   2.472   0.921   7.504 -1.3551 -0.6225 -1.4827
 5548TP3     H228464   2.445   0.903   7.651  1.9964  0.7984 -0.5947
 5549TP3      O28465   0.193   2.705   3.459 -0.0927 -0.0902  0.1877
 5549TP3     H128466   0.135   2.781   3.447  0.4138  0.2535 -0.1306
 5549TP3     H228467   0.281   2.741   3.448  0.1136 -0.8950 -0.9580
 5550TP3      O28468   4.895   1.973   3.408  0.0617  0.3991 -0.2454
 5550TP3     H128469   4.852   2.054   3.434 -0.0261  0.3111 -0.1173
 5550TP3     H228470   4.972   1.967   3.465 -1.1915 -0.8088  1.4101
 5551TP3      O28471   4.528   1.556   8.282 -0.6612  0.0308  0.0058
 5551TP3     H128472   4.536   1.591   8.371  0.4734 -2.6161  1.0724
 5551TP3     H228473   4.595   1.602   8.232 -0.0003  0.2280  1.0348
 5552TP3      O28474   4.210   1.305   0.034  0.0052  0.3317 -0.5252
 5552TP3     H128475   4.141   1.294  -0.031 -1.0750 -0.5441  0.7173
 5552TP3     H228476   4.272   1.234   0.015 -2.3866 -2.6636  1.8454
 5553TP3      O28477   4.415   1.073   9.114 -0.0988 -0.0277  0.8711
 5553TP3     H128478   4.348   1.040   9.054  3.0464  0.5803 -3.4248
 5553TP3     H228479   4.386   1.162   9.135 -0.2534  0.6552 -1.8616
 5554TP3      O28480   2.501   1.181   1.989  0.4147 -0.5359 -0.0511
 5554TP3     H128481   2.540   1.116   1.932 -1.3366 -0.1404 -1.8258
 5554TP3     H228482   2.491   1.137   2.074  2.4154 -1.3701 -0.1951
 5555TP3      O28483   1.487   0.311   7.912  0.4647 -0.2500  0.0666
 5555TP3     H128484   1.453   0.384   7.861 -0.0336 -0.1569  0.5271
 5555TP3     H228485   1.564   0.348   7.957 -0.7403  0.4833  1.6018
 5556TP3      O28486   0.517   1.632   6.789  0.6413  0.4667  0.4078
 5556TP3     H128487   0.561   1.694   6.731  1.3124 -0.8255 -0.5379
 5556TP3     H228488   0.588   1.591   6.839  0.0178  2.2295  2.9608
 5557TP3      O28489   4.639   5.163   3.267  0.0856 -0.9221  0.0767
 5557TP3     H128490   4.648   5.068   3.259  2.3345 -0.7216 -0.4268
 5557TP3     H228491   4.725   5.198   3.243 -1.1506  1.3617 -1.3868
 5558TP3      O28492   2.521   1.806   1.883 -0.2593  0.1509 -0.5550
 5558TP3     H128493   2.599   1.751   1.885  0.8280  1.6455 -0.6472
 5558TP3     H228494   2.473   1.782   1.963 -0.0922 -1.2806 -0.8558
 5559TP3      O28495   3.891   3.840   2.910 -0.6114 -0.4658  0.3999
 5559TP3     H128496   3.978   3.875   2.932 -0.6473  0.1558 -0.3971
 5559TP3     H228497   3.839   3.918   2.890 -1.2951 -0.8538  0.6677
 5560TP3      O28498   3.147   4.717   9.698 -0.2129 -0.0278  0.2203
 5560TP3     H128499   3.121   4.659   9.626  0.2719  0.3953 -0.3046
 5560TP3     H228500   3.071   4.718   9.756 -0.5314 -0.5434 -0.1762
 5561TP3      O28501   2.082   4.605   9.938  0.2002 -0.3926 -0.0132
 5561TP3     H128502   2.050   4.563  10.018  1.7946  0.5885  1.1867
 5561TP3     H228503   2.117   4.689   9.967 -1.3000  1.0584 -2.0926
 5562TP3      O28504   3.033   2.806   8.989 -0.0564 -0.2469  0.3194
 5562TP3     H128505   3.087   2.868   9.039  0.0012  0.4865 -0.6402
 5562TP3     H228506   2.954   2.855   8.967 -0.8992 -1.1431  1.2341
 5563TP3      O28507   1.036   4.315   1.557  0.0625 -0.4247  0.0550
 5563TP3     H128508   1.044   4.229   1.598  1.2948  0.0768  0.9062
 5563TP3     H228509   0.984   4.366   1.619 -2.0196 -0.9353 -1.1441
 5564TP3      O28510   0.584   1.731  10.082 -0.4878 -0.5281 -0.2604
 5564TP3     H128511   0.595   1.700   9.992 -0.7122 -3.3539  0.5805
 5564TP3     H228512   0.506   1.786  10.080 -1.4659 -1.8947 -1.5393
 5565TP3      O28513   3.594   4.709   0.401  0.1830 -0.2008 -0.9507
 5565TP3     H128514   3.672   4.742   0.355  0.7246 -1.7549 -1.2140
 5565TP3     H228515   3.629   4.646   0.465 -0.8741 -1.5334 -1.6246
 5566TP3      O28516   4.354   1.007   1.299  0.9409 -0.4604 -0.2215
 5566TP3     H128517   4.297   1.072   1.258 -1.2263 -1.2267  1.3847
 5566TP3     H228518   4.312   0.923   1.279  0.1344 -0.8999  2.8245
 5567TP3      O28519   1.772   2.567   0.831 -0.6845  0.0928  0.0116
 5567TP3     H128520   1.780   2.658   0.860 -0.6957 -0.6635  2.5970
 5567TP3     H228521   1.852   2.524   0.861 -1.8337 -1.3142  1.1820
 5568TP3      O28522   3.967   1.048   8.245 -0.1418  0.0519 -0.0177
 5568TP3     H128523   3.958   1.143   8.240 -0.2232 -0.0133 -1.6032
 5568TP3     H228524   4.041   1.027   8.187  1.5671 -0.6558  2.2658
 5569TP3      O28525   0.495   5.164   1.304  0.2818  0.1566 -0.0574
 5569TP3     H128526   0.461   5.209   1.381  0.9580  0.0193  0.3390
 5569TP3     H228527   0.546   5.230   1.258 -0.0213  0.2067 -0.3155
 5570TP3      O28528   0.141   1.844   1.229  0.2690  0.1176 -0.3886
 5570TP3     H128529   0.180   1.757   1.234  0.0818  0.0407 -0.2830
 5570TP3     H228530   0.112   1.851   1.138 -1.2836 -0.6083  0.0184
 5571TP3      O28531   1.457   0.170   2.846  0.0205  0.4576 -0.2657
 5571TP3     H128532   1.420   0.154   2.933  0.9371  1.5755  0.3520
 5571TP3     H228533   1.404   0.240   2.809 -0.7653 -0.4398 -0.8886
 5572TP3      O28534   4.003   3.386   9.859 -0.3495  0.3359  0.6323
 5572TP3     H128535   4.000   3.400   9.765 -0.5558  2.0769  0.8679
 5572TP3     H228536   4.075   3.324   9.873 -0.1815  0.2335 -0.6295
 5573TP3      O28537   2.695   3.137   8.694 -0.2877 -0.3827 -0.5501
 5573TP3     H128538   2.617   3.174   8.654  0.2136  0.9646 -0.3145
 5573TP3     H228539   2.768   3.168   8.640  0.4223  1.6176  1.3817
 5574TP3      O28540   3.981   1.607   7.663 -0.0637  0.6367 -0.2104
 5574TP3     H128541   3.931   1.530   7.637  0.6964  0.2378 -0.5317
 5574TP3     H228542   4.013   1.586   7.751  0.0262  0.6412 -0.2421
 5575TP3      O28543   3.171   4.145   1.576 -0.0104 -0.3531  0.0649
 5575TP3     H128544   3.104   4.161   1.509  0.2147 -0.6176 -0.2223
 5575TP3     H228545   3.123   4.102   1.647 -0.1115 -0.7201 -0.2214
 5576TP3      O28546   3.892   4.256   2.365  0.4405 -0.4320 -0.0902
 5576TP3     H128547   3.911   4.346   2.338 -2.0226 -0.3244 -1.8261
 5576TP3     H228548   3.821   4.228   2.306  0.5708 -3.2363  0.9341
 5577TP3      O28549   1.263   0.143   8.923  0.0245 -0.1529 -0.5593
 5577TP3     H128550   1.224   0.072   8.974  0.8736  0.4495  1.0169
 5577TP3     H228551   1.306   0.099   8.850 -1.4433 -1.0309 -0.9265
 5578TP3      O28552   1.164   1.472   0.359 -0.7161 -0.2259  0.6374
 5578TP3     H128553   1.198   1.440   0.275 -0.6774 -1.9510  1.2638
 5578TP3     H228554   1.241   1.498   0.408 -0.5189 -1.3328  0.9457
 5579TP3      O28555   2.757   0.702   0.118  0.0248  0.1479  0.0826
 5579TP3     H128556   2.845   0.678   0.148  0.1206  2.6329  2.0552
 5579TP3     H228557   2.769   0.786   0.075 -1.1992 -0.2723 -1.1439
 5580TP3      O28558   3.570   0.643   0.693 -0.3351 -0.4450  0.5576
 5580TP3     H128559   3.506   0.702   0.651  0.3539  0.8577  1.2866
 5580TP3     H228560   3.632   0.623   0.623  0.8534  1.7831  0.8919
 5581TP3      O28561   2.504   1.919   7.816 -0.0698  0.3708 -0.3626
 5581TP3     H128562   2.525   1.865   7.892  0.9427  1.7003  0.3390
 5581TP3     H228563   2.556   1.882   7.745 -0.9026 -0.7803 -0.4019
 5582TP3      O28564   1.239   3.933   8.675  0.7794  0.6197 -0.0740
 5582TP3     H128565   1.199   4.020   8.667  2.0228  1.2695  0.4310
 5582TP3     H228566   1.167   3.875   8.700  0.0802  1.6604  0.4035
 5583TP3      O28567   1.159   1.842   9.406 -0.0560  0.0687  0.4775
 5583TP3     H128568   1.171   1.910   9.471  1.4536  0.2300  0.0696
 5583TP3     H228569   1.247   1.819   9.379 -0.6135 -0.6482 -0.8384
 5584TP3      O28570   2.194   1.059   0.913 -0.2259  0.1053  0.3215
 5584TP3     H128571   2.206   0.996   0.984  0.1321  0.7871  0.8677
 5584TP3     H228572   2.103   1.088   0.922  0.1857  1.1717  1.3331
 5585TP3      O28573   4.505   4.065   3.545  0.3946 -0.4141  0.2158
 5585TP3     H128574   4.522   4.034   3.457 -0.1814 -0.9741  0.2953
 5585TP3     H228575   4.553   4.004   3.602 -0.3840 -0.9169  0.3510
 5586TP3      O28576   1.851   4.374   1.029  0.1194 -0.0050  0.2988
 5586TP3     H128577   1.784   4.375   0.960  0.3046 -1.1314  0.0760
 5586TP3     H228578   1.888   4.462   1.029 -0.7897  0.3847 -0.1454
 5587TP3      O28579   4.368   4.410   7.340  0.4292  0.0813  0.6073
 5587TP3     H128580   4.360   4.405   7.435 -0.4585 -2.6392  0.4859
 5587TP3     H228581   4.430   4.341   7.317 -1.1481 -0.9371 -0.8941
 5588TP3      O28582   1.370   4.466   8.474 -0.3537  0.3746 -0.3847
 5588TP3     H128583   1.322   4.460   8.556 -0.0031  1.6004 -0.0721
 5588TP3     H228584   1.402   4.377   8.459  0.1854  0.2743  1.1872
 5589TP3      O28585   2.712   2.709   1.829 -0.1140 -0.3078  0.1578
 5589TP3     H128586   2.785   2.763   1.798  0.1186 -0.5974  0.1962
 5589TP3     H228587   2.651   2.706   1.756  0.1321 -0.4514 -0.0442
 5590TP3      O28588   0.058   0.171   1.185  0.2183  0.4191 -0.1005
 5590TP3     H128589   0.151   0.165   1.162  0.0948 -1.6501 -0.2130
 5590TP3     H228590   0.042   0.093   1.238 -2.1608 -1.0301 -2.6889
 5591TP3      O28591   2.696   0.782   7.584 -1.1329  0.2513  0.3857
 5591TP3     H128592   2.689   0.688   7.565  0.3241  0.2468 -0.3064
 5591TP3     H228593   2.667   0.824   7.503 -0.6519  0.3745  0.2784
 5592TP3      O28594   0.177   5.082   9.223  0.0926 -0.5369  0.5625
 5592TP3     H128595   0.140   5.021   9.286 -0.4813 -0.1039  0.6525
 5592TP3     H228596   0.271   5.081   9.240 -0.2128  1.0627  2.8071
 5593TP3      O28597   2.454   3.924   0.114 -0.5490 -0.3232  0.4879
 5593TP3     H128598   2.376   3.870   0.099 -0.7907 -0.6312  2.5039
 5593TP3     H228599   2.471   3.915   0.208  0.1870  2.0704  0.6585
 5594TP3      O28600   3.888   0.761   0.006  0.7184  0.0819  0.1258
 5594TP3     H128601   3.798   0.790   0.022  1.0289 -0.2993  3.0558
 5594TP3     H228602   3.880   0.669  -0.019  0.2755  0.2653 -0.4341
 5595TP3      O28603   0.824   3.315   2.550 -0.7420 -0.3065  0.5108
 5595TP3     H128604   0.845   3.393   2.500 -0.7932 -0.0771  0.8483
 5595TP3     H228605   0.845   3.337   2.640 -1.2776 -0.4935  0.6864
 5596TP3      O28606   1.067   2.816   0.689 -0.3024 -0.1537  0.3078
 5596TP3     H128607   1.131   2.752   0.720  0.0121  0.5478  1.1193
 5596TP3     H228608   0.998   2.763   0.649  0.9045 -0.9162 -0.8659
 5597TP3      O28609   4.261   1.705   9.964  0.2570 -0.1754 -0.8266
 5597TP3     H128610   4.337   1.757   9.939  0.8515 -0.4604  0.3132
 5597TP3     H228611   4.220   1.755  10.035 -0.3510 -0.2515 -1.1233
 5598TP3      O28612   1.161   2.506   9.063 -0.6926 -0.1950 -0.4425
 5598TP3     H128613   1.249   2.543   9.070 -1.1841  0.6455  2.9669
 5598TP3     H228614   1.103   2.578   9.084 -2.1313 -1.2164 -0.7671
 5599TP3      O28615   3.207   1.658   2.461  0.7904 -0.2702 -0.0173
 5599TP3     H128616   3.169   1.686   2.544 -3.1465  0.5028 -1.8760
 5599TP3     H228617   3.204   1.735   2.405  3.6739 -0.6766 -0.9044
 5600TP3      O28618   4.113   3.647   1.679  0.1196 -0.5625  0.0921
 5600TP3     H128619   4.207   3.643   1.666  0.3948  0.6130  1.5325
 5600TP3     H228620   4.083   3.557   1.665  1.4779 -0.9968 -0.1240
 5601TP3      O28621   2.520   1.858   2.314  0.1275  0.1227 -0.3311
 5601TP3     H128622   2.537   1.861   2.408  1.4385  0.2298 -0.5493
 5601TP3     H228623   2.429   1.831   2.307  0.1360 -0.3108  0.9614
 5602TP3      O28624   4.796   0.128  10.053 -0.1219 -0.1652  0.3129
 5602TP3     H128625   4.741   0.156  10.127  0.6518 -0.2039  0.9142
 5602TP3     H228626   4.878   0.177  10.064  0.7198 -1.5765  0.5593
 5603TP3      O28627   4.372   2.283   3.675 -0.2697 -0.1706  0.0366
 5603TP3     H128628   4.328   2.249   3.598  1.8060 -1.1298 -0.7958
 5603TP3     H228629   4.447   2.225   3.688  0.0274  0.5881  2.1611
 5604TP3      O28630   2.905   5.092   9.986  0.1108 -0.1299  0.0147
 5604TP3     H128631   2.982   5.105   9.930 -0.1080  1.1074 -0.0271
 5604TP3     H228632   2.848   5.035   9.935  1.2266 -1.5865  0.2915
 5605TP3      O28633   0.584   4.373   2.895  0.0992  0.5580  0.5489
 5605TP3     H128634   0.592   4.298   2.953 -1.0899  0.3751  0.4969
 5605TP3     H228635   0.664   4.371   2.842  0.3743 -0.2884  0.9845
 5606TP3      O28636   1.297   3.265   8.397 -0.1827 -0.4236  0.1933
 5606TP3     H128637   1.312   3.360   8.393 -2.2136 -0.0446  0.4806
 5606TP3     H228638   1.365   3.233   8.456 -1.4793  1.3936  2.8819
 5607TP3      O28639   0.259   1.116   1.813 -0.2571  0.0343 -0.3561
 5607TP3     H128640   0.262   1.021   1.811 -0.8137 -0.0610  1.6001
 5607TP3     H228641   0.300   1.140   1.896  0.5690  1.5602 -1.1516
 5608TP3      O28642   4.394   2.478   1.626 -0.8999 -1.0559 -0.4137
 5608TP3     H128643   4.488   2.471   1.646 -0.9947  0.6473  0.8544
 5608TP3     H228644   4.387   2.559   1.575 -1.4573 -2.2940 -2.4208
 5609TP3      O28645   0.212   3.621   9.738 -0.0405  0.1881  0.3423
 5609TP3     H128646   0.186   3.654   9.653  1.5539  4.1122  1.1550
 5609TP3     H228647   0.146   3.655   9.799  0.7752  0.5143  1.0687
 5610TP3      O28648   0.668   4.184   9.835 -0.5045 -0.4598  0.2456
 5610TP3     H128649   0.610   4.252   9.800 -0.7412 -0.7344  0.1070
 5610TP3     H228650   0.613   4.135   9.896  0.1342  0.5881  1.7368
 5611TP3      O28651   0.032   1.518   8.299  0.0251  0.0948 -0.3446
 5611TP3     H128652   0.116   1.477   8.319 -1.1457 -1.3373  2.2774
 5611TP3     H228653  -0.017   1.450   8.253  0.1461  0.7900 -1.5305
 5612TP3      O28654   1.511   2.174   1.902 -0.0916  0.0906  0.1413
 5612TP3     H128655   1.526   2.201   1.993 -3.5871  0.6420  0.7063
 5612TP3     H228656   1.503   2.256   1.854  2.0038 -0.2007 -0.7979
 5613TP3      O28657   1.206   4.845   9.802  0.1780 -0.1824  0.0944
 5613TP3     H128658   1.263   4.918   9.826 -0.2380 -0.1287  0.9565
 5613TP3     H228659   1.262   4.767   9.812  0.2348 -0.0930  0.5038
 5614TP3      O28660   4.133   1.012   0.360 -0.4186 -0.2969 -0.0955
 5614TP3     H128661   4.166   1.002   0.271  0.1038 -3.0888  0.3047
 5614TP3     H228662   4.212   1.015   0.414 -0.7511 -0.0473  0.3833
 5615TP3      O28663   0.890   2.660   3.125  0.2555 -0.0533  0.6025
 5615TP3     H128664   0.914   2.707   3.205  3.0662 -3.3444  1.9592
 5615TP3     H228665   0.807   2.616   3.148 -0.7780  1.6758  0.3753
 5616TP3      O28666   3.842   4.036   8.753 -0.2644 -0.0432  0.1851
 5616TP3     H128667   3.868   4.016   8.663 -1.2938 -1.3667  0.1450
 5616TP3     H228668   3.806   4.125   8.748 -0.8121 -0.3069 -0.8296
 5617TP3      O28669   4.187   2.095   1.113  0.2311 -0.3299 -0.3707
 5617TP3     H128670   4.264   2.110   1.169  0.1780 -2.6065  0.3982
 5617TP3     H228671   4.128   2.041   1.166 -0.5168 -1.2660 -2.0575
 5618TP3      O28672   2.416   4.259   2.529 -0.0762  0.2105  0.6930
 5618TP3     H128673   2.343   4.198   2.539  0.2142  0.0109  1.8770
 5618TP3     H228674   2.436   4.259   2.436 -0.6438 -0.8593  0.5587
 5619TP3      O28675   0.341   3.229   1.904 -0.9771  0.0228  0.1936
 5619TP3     H128676   0.286   3.165   1.860 -1.3233  0.0561  0.5703
 5619TP3     H228677   0.431   3.197   1.893 -1.2270 -1.2013  1.4407
 5620TP3      O28678   2.568   4.532   0.870 -0.7631 -0.2201 -0.5734
 5620TP3     H128679   2.610   4.605   0.915 -0.1416 -0.1879 -1.1881
 5620TP3     H228680   2.533   4.477   0.941 -0.1475  0.0320 -0.0608
 5621TP3      O28681   4.421   2.489   3.503 -0.5898 -0.4286 -0.2788
 5621TP3     H128682   4.427   2.427   3.576  1.1377  0.5105  0.4551
 5621TP3     H228683   4.341   2.539   3.521 -0.8370 -1.0169  0.3041
 5622TP3      O28684   5.056   2.985   9.789 -0.4586 -0.0604 -0.1438
 5622TP3     H128685   4.977   3.038   9.781 -0.3451 -0.0343 -1.2698
 5622TP3     H228686   5.127   3.043   9.763  0.1550  0.3830  2.3267
 5623TP3      O28687   3.679   0.867   1.826 -0.4344 -0.1335 -0.3905
 5623TP3     H128688   3.756   0.914   1.857 -0.8074  0.2074  0.0265
 5623TP3     H228689   3.635   0.837   1.906 -0.8564 -0.1221 -0.6152
 5624TP3      O28690   3.218   3.878   3.602 -0.0266  0.3955 -0.0322
 5624TP3     H128691   3.147   3.933   3.634 -1.0129 -1.2847  0.8269
 5624TP3     H228692   3.243   3.825   3.678  1.5551  0.3351 -0.5584
 5625TP3      O28693   4.995   3.900   7.289 -0.3452  0.6693 -0.3498
 5625TP3     H128694   5.000   3.984   7.243  0.9912 -0.1622 -1.7994
 5625TP3     H228695   5.086   3.874   7.303 -0.7285 -0.7410 -0.3184
 5626TP3      O28696   2.422   3.384   1.536 -0.0980 -0.4810 -0.4827
 5626TP3     H128697   2.374   3.305   1.561 -1.1775  0.0396 -0.8297
 5626TP3     H228698   2.433   3.432   1.618 -0.3089 -0.5422 -0.4166
 5627TP3      O28699   2.439   4.141   1.259  0.4854 -0.5854 -0.1426
 5627TP3     H128700   2.531   4.157   1.280  0.3319  1.3633 -0.6936
 5627TP3     H228701   2.411   4.077   1.324  2.1003 -0.8387  0.3634
 5628TP3      O28702   1.220   1.749   2.241  0.1602 -0.2687  0.1953
 5628TP3     H128703   1.285   1.815   2.215 -0.0940  0.2070  0.7356
 5628TP3     H228704   1.199   1.771   2.331 -1.7631  0.4384 -0.3753
 5629TP3      O28705   3.282   0.872   8.747  0.2855 -0.0063 -0.7522
 5629TP3     H128706   3.202   0.911   8.782  1.0296 -0.4041  1.5891
 5629TP3     H228707   3.252   0.802   8.689 -1.0574 -0.1697  0.1060
 5630TP3      O28708   1.044   3.278  10.146 -0.3123  0.3257 -0.4957
 5630TP3     H128709   0.955   3.303  10.120 -0.7023 -1.3681 -0.9071
 5630TP3     H228710   1.044   3.183  10.142  0.9511  0.1985  1.4779
 5631TP3      O28711   4.393   1.420   1.389 -0.2665  0.2849  0.4353
 5631TP3     H128712   4.475   1.431   1.342  0.6415 -0.4526  1.7846
 5631TP3     H228713   4.409   1.347   1.449 -1.3042  1.2698  1.9854
 5632TP3      O28714   3.754   3.108   8.797 -0.7880 -0.1313 -0.2488
 5632TP3     H128715   3.714   3.023   8.817 -0.0338 -0.9570 -2.0514
 5632TP3     H228716   3.685   3.171   8.812 -1.1809 -0.9599  1.8072
 5633TP3      O28717   0.141   3.547   3.037 -0.0861  0.4226 -0.0228
 5633TP3     H128718   0.132   3.452   3.040  0.2091  0.4050  0.3734
 5633TP3     H228719   0.187   3.564   2.955  0.4580  0.1692  0.2239
 5634TP3      O28720   3.606   1.614   8.943 -0.4152 -0.1937  0.1009
 5634TP3     H128721   3.631   1.686   8.885 -1.6116  1.2418  1.2920
 5634TP3     H228722   3.689   1.570   8.964  0.4591  1.3286 -0.0244
 5635TP3      O28723   1.746   5.142   9.361 -0.0720  0.4376  0.5083
 5635TP3     H128724   1.736   5.052   9.391  0.5954  0.1178 -0.1947
 5635TP3     H228725   1.676   5.153   9.296 -0.7696  0.7510  1.2945
 5636TP3      O28726   2.325   2.570   2.447  0.6997  0.2564  0.4068
 5636TP3     H128727   2.332   2.474   2.445  0.4894  0.2419  0.3787
 5636TP3     H228728   2.413   2.600   2.469  0.9667  0.0818 -0.3764
 5637TP3      O28729   4.386   0.203   0.554 -0.1227 -0.1518  0.6843
 5637TP3     H128730   4.387   0.186   0.460  1.7236  1.6076  0.3226
 5637TP3     H228731   4.462   0.258   0.569 -0.9094  0.3893  3.0819
 5638TP3      O28732   4.189   1.574   1.484  0.1738  0.2527  0.6378
 5638TP3     H128733   4.259   1.518   1.452  0.7878  1.1502  0.3668
 5638TP3     H228734   4.191   1.563   1.579  0.7769  0.3646  0.6434
 5639TP3      O28735   3.946   1.468   0.988 -0.0071  0.4684 -0.2710
 5639TP3     H128736   3.926   1.414   1.065 -0.2162 -0.8128 -1.1835
 5639TP3     H228737   3.992   1.544   1.023 -1.0493  0.4477  1.2317
 5640TP3      O28738   2.634   0.486   8.359 -0.3965 -0.0462 -0.5163
 5640TP3     H128739   2.706   0.505   8.419 -1.1266  0.3257  0.2604
 5640TP3     H228740   2.670   0.424   8.296  0.4986 -0.1245  0.0694
 5641TP3      O28741   5.149   3.714   2.109  0.3326 -0.8685  0.5353
 5641TP3     H128742   5.227   3.663   2.089  0.8833  0.5174 -1.1670
 5641TP3     H228743   5.080   3.649   2.121  0.8246 -2.0582 -2.2558
 5642TP3      O28744   4.436   2.573  10.404  0.4257 -0.2102 -0.0256
 5642TP3     H128745   4.406   2.552  10.315  2.6517 -2.0572 -0.4179
 5642TP3     H228746   4.527   2.598  10.393  1.5470 -2.9459  1.9427
 5643TP3      O28747   4.349   4.077   3.806  0.0973  0.0076 -0.0990
 5643TP3     H128748   4.442   4.088   3.783  1.3884 -1.1838  3.8311
 5643TP3     H228749   4.342   3.988   3.839 -2.1891  0.4253  0.7438
 5644TP3      O28750   5.038   3.530   0.802  0.3459  0.4504  0.2598
 5644TP3     H128751   5.081   3.457   0.846  1.5101 -0.3651 -2.0163
 5644TP3     H228752   5.085   3.608   0.833  1.9131 -0.2038 -0.3517
 5645TP3      O28753   1.430   3.186   8.623 -0.0105 -0.1398 -0.2836
 5645TP3     H128754   1.350   3.176   8.675  0.0748 -2.2158 -0.4728
 5645TP3     H228755   1.497   3.211   8.687 -0.5738  0.6090  0.0341
 5646TP3      O28756   0.144   1.908   9.002  0.2254 -0.2144 -0.7432
 5646TP3     H128757   0.121   1.967   9.073  1.1519 -1.3556  0.5757
 5646TP3     H228758   0.240   1.902   9.005  0.1529 -1.9922 -0.6126
 5647TP3      O28759   4.202   3.802   8.224  0.1289 -0.4524  0.5223
 5647TP3     H128760   4.286   3.805   8.177  0.7038  0.2986  1.5590
 5647TP3     H228761   4.136   3.804   8.155  0.9002  2.8793 -0.2678
 5648TP3      O28762   4.515   2.415   6.975 -0.0025 -0.1880  0.1282
 5648TP3     H128763   4.575   2.376   7.039  3.9451  1.8802 -1.9579
 5648TP3     H228764   4.519   2.509   6.992 -0.2784  0.2484 -2.0114
 5649TP3      O28765   3.520   3.838   1.308 -0.6112 -0.0466 -0.6663
 5649TP3     H128766   3.465   3.760   1.309 -0.3188 -0.2551 -0.8087
 5649TP3     H228767   3.602   3.810   1.349 -1.6312  1.0290  2.4260
 5650TP3      O28768   0.829   1.385   9.743  0.2825  0.6925 -0.2993
 5650TP3     H128769   0.787   1.469   9.765 -1.4146 -0.6007  1.8574
 5650TP3     H228770   0.920   1.396   9.771 -0.3057  1.3359  1.5820
 5651TP3      O28771   2.269   3.019   9.367 -0.0728  0.0266  0.0688
 5651TP3     H128772   2.362   3.003   9.350 -0.1204 -0.2735  0.1025
 5651TP3     H228773   2.232   2.933   9.386 -0.2776  0.1945  0.4515
 5652TP3      O28774   0.681   0.881   1.317  0.2095  0.3523  0.2734
 5652TP3     H128775   0.663   0.946   1.385 -0.2163  0.3785  0.1378
 5652TP3     H228776   0.726   0.931   1.249  0.6962  0.3121  0.5619
 5653TP3      O28777   0.816   4.524   8.718 -0.0289 -0.0650  0.0216
 5653TP3     H128778   0.858   4.461   8.776  0.8460  0.3684 -0.1119
 5653TP3     H228779   0.861   4.513   8.634 -0.7040 -0.1043 -0.3438
 5654TP3      O28780   1.218   4.595   2.573 -0.7732 -0.1398 -0.5464
 5654TP3     H128781   1.265   4.677   2.562 -0.7466 -0.1907 -0.8271
 5654TP3     H228782   1.136   4.619   2.616 -1.2159  0.1773 -1.5305
 5655TP3      O28783   3.441   2.447   8.172  0.0002 -0.6429 -0.0259
 5655TP3     H128784   3.356   2.409   8.150 -0.1935 -0.3147  0.1437
 5655TP3     H228785   3.435   2.467   8.266  0.5218 -1.2730  0.1422
 5656TP3      O28786   2.723   4.467   2.989  0.3727  0.0687  0.3843
 5656TP3     H128787   2.770   4.549   3.002 -1.2290  0.7877  2.1838
 5656TP3     H228788   2.699   4.439   3.077  0.1994 -1.9403 -0.2447
 5657TP3      O28789   4.148   1.860   0.807 -0.1543  0.1365 -0.7683
 5657TP3     H128790   4.221   1.921   0.812 -0.3735  0.5180 -1.9395
 5657TP3     H228791   4.114   1.855   0.896  1.8340 -0.7366 -0.0065
 5658TP3      O28792   3.138   1.104   8.364 -0.3972  0.2527 -0.4570
 5658TP3     H128793   3.233   1.106   8.375 -0.6255 -0.8669  3.4195
 5658TP3     H228794   3.117   1.011   8.353 -1.0937  0.3927 -0.3728
 5659TP3      O28795   0.885   3.875   3.305 -0.3332  0.2466 -0.0078
 5659TP3     H128796   0.873   3.818   3.229  0.6695 -1.4300  1.0067
 5659TP3     H228797   0.797   3.904   3.328 -0.8022 -0.3938 -0.9385
 5660TP3      O28798   2.739   3.329   3.289 -0.1755  0.4844  0.6727
 5660TP3     H128799   2.755   3.261   3.223 -0.0992  1.5683 -0.4743
 5660TP3     H228800   2.809   3.316   3.354 -0.8585 -1.2410  1.1120
 5661TP3      O28801   4.471   0.228   7.762  0.0320 -0.2251  0.2768
 5661TP3     H128802   4.443   0.297   7.822  0.1399  1.1614 -1.1723
 5661TP3     H228803   4.407   0.159   7.772 -1.1361  0.8600  0.5040
 5662TP3      O28804   1.925   2.981   7.777 -0.2195  0.0210  0.1091
 5662TP3     H128805   1.862   3.037   7.823  1.2555  0.4512  1.7161
 5662TP3     H228806   1.933   2.904   7.833  0.2341 -0.3016 -0.3923
 5663TP3      O28807   0.737   4.236   7.375 -0.2263  0.4821 -0.2804
 5663TP3     H128808   0.718   4.329   7.387 -1.0124  0.1475  1.3797
 5663TP3     H228809   0.748   4.225   7.281  0.5942  2.3824 -0.4451
 5664TP3      O28810   0.839   0.132   8.086  0.6803  0.3363 -0.6019
 5664TP3     H128811   0.863   0.154   8.176  1.4903 -0.1079 -0.6958
 5664TP3     H228812   0.795   0.047   8.094  1.2805  0.0097 -0.6755
 5665TP3      O28813   3.294   0.783   6.491  0.1836  0.5995 -0.2109
 5665TP3     H128814   3.340   0.708   6.530 -0.4041  0.1551 -0.3594
 5665TP3     H228815   3.254   0.829   6.564  1.7417  1.6155  0.0465
 5666TP3      O28816   1.482   0.755   8.811 -0.1264  0.6838 -0.0713
 5666TP3     H128817   1.402   0.771   8.861 -0.9852  2.9212 -1.9828
 5666TP3     H228818   1.537   0.832   8.828 -1.1826  2.4570 -3.7363
 5667TP3      O28819   0.150   3.826   3.770 -0.1368 -0.6086 -0.3611
 5667TP3     H128820   0.077   3.801   3.714  0.9501 -1.2649 -1.5358
 5667TP3     H228821   0.143   3.768   3.846 -0.9197 -0.5423 -0.3701
 5668TP3      O28822   3.414   2.499   0.513  0.0235  0.4004 -0.3052
 5668TP3     H128823   3.382   2.412   0.534  1.0626 -0.7901 -3.0707
 5668TP3     H228824   3.509   2.492   0.521  0.0472  2.0741  1.8304
 5669TP3      O28825   0.017   1.731   1.942  0.3776 -0.8483  0.3834
 5669TP3     H128826  -0.056   1.716   1.882  0.9723  2.4281 -1.4095
 5669TP3     H228827  -0.024   1.743   2.028 -0.9633 -1.1178 -0.1954
 5670TP3      O28828   1.666   3.713  10.000 -0.2234  0.6944 -0.2684
 5670TP3     H128829   1.733   3.675   9.943 -0.5827 -0.3998  0.0139
 5670TP3     H228830   1.584   3.674   9.970 -0.8152  2.2518 -0.8196
 5671TP3      O28831   1.749   4.298   0.052 -0.5101 -0.6072 -0.3501
 5671TP3     H128832   1.763   4.254  -0.032  0.5687  1.5051 -1.3799
 5671TP3     H228833   1.658   4.328   0.049 -0.1345  0.5335 -1.3813
 5672TP3      O28834   5.196   3.614   1.707 -0.3953 -0.0831  0.6460
 5672TP3     H128835   5.139   3.544   1.737 -0.3937  0.0466  0.9621
 5672TP3     H228836   5.284   3.587   1.735 -0.6434  1.0256  2.6778
 5673TP3      O28837   4.091   0.596   2.636  0.0089  0.0655  0.1951
 5673TP3     H128838   4.161   0.600   2.571  0.6920 -0.4646  0.8785
 5673TP3     H228839   4.047   0.512   2.619  0.0505  0.0275  0.2722
 5674TP3      O28840   0.822   2.766   1.139 -0.1935  0.2020 -0.5283
 5674TP3     H128841   0.868   2.844   1.170  0.5751 -0.6625  0.5788
 5674TP3     H228842   0.757   2.800   1.078  1.4194  1.5563 -1.6099
 5675TP3      O28843   4.474   0.639   2.835  0.2959 -0.1694 -0.2804
 5675TP3     H128844   4.396   0.616   2.885 -0.0890  1.3280 -0.1402
 5675TP3     H228845   4.519   0.556   2.821 -1.6245 -1.1811 -0.8810
 5676TP3      O28846   2.362   5.115   9.056 -0.5675 -0.2469  0.7472
 5676TP3     H128847   2.337   5.083   8.969 -2.5610 -0.6989  1.4322
 5676TP3     H228848   2.293   5.177   9.080  0.9062  1.2538  1.3003
 5677TP3      O28849   2.095   1.625   8.813  0.1160 -0.4562 -0.1911
 5677TP3     H128850   2.140   1.709   8.803  0.3638 -0.6500 -0.6952
 5677TP3     H228851   2.025   1.643   8.876  0.4431  0.0203  0.0410
 5678TP3      O28852   4.529   2.976  10.087  0.1125 -0.6515 -0.0887
 5678TP3     H128853   4.520   2.887  10.118 -0.2887 -0.2548  0.9689
 5678TP3     H228854   4.481   3.029  10.150  1.0523  0.4035 -0.2265
 5679TP3      O28855   1.244   5.191   9.112 -0.2183  0.6137 -0.4104
 5679TP3     H128856   1.175   5.213   9.175  0.3525 -0.1591  0.5184
 5679TP3     H228857   1.230   5.098   9.092  1.6299 -0.1118  1.2663
 5680TP3      O28858   4.298   3.278   0.257 -0.3754  0.7068 -0.3868
 5680TP3     H128859   4.268   3.314   0.174 -0.1740  0.6420 -0.4865
 5680TP3     H228860   4.361   3.342   0.290  0.4112  0.1788 -0.8359
 5681TP3      O28861   1.076   4.324   7.161 -0.1981 -0.2552  0.7534
 5681TP3     H128862   1.136   4.273   7.106  1.3065  0.1865  1.9061
 5681TP3     H228863   1.017   4.365   7.099  0.3831 -1.0980 -0.4106
 5682TP3      O28864   1.785   1.985   9.720  0.5787 -0.0297 -0.3823
 5682TP3     H128865   1.790   2.080   9.709  2.7484 -0.0576 -0.0815
 5682TP3     H228866   1.770   1.973   9.814 -0.7308  0.0065 -0.5737
 5683TP3      O28867   5.067   4.277   9.335  0.4029  0.6028 -0.6961
 5683TP3     H128868   5.145   4.310   9.379 -0.9707  1.5465  1.1462
 5683TP3     H228869   5.024   4.222   9.401 -0.8946  0.7219 -1.4147
 5684TP3      O28870   3.984   1.943   2.639  0.8877  0.3989 -0.1392
 5684TP3     H128871   4.023   1.874   2.693 -1.1114 -0.9638 -0.3169
 5684TP3     H228872   4.037   1.943   2.559  1.5773 -0.1792  0.2997
 5685TP3      O28873   0.085   2.544   2.422 -0.2936  0.1524 -0.3627
 5685TP3     H128874   0.172   2.540   2.462 -0.6681  1.8873  0.7498
 5685TP3     H228875   0.102   2.541   2.328  1.2482  2.9392 -0.2737
 5686TP3      O28876   0.374   3.469   7.932  0.8245 -0.2539  0.0956
 5686TP3     H128877   0.283   3.464   7.904  0.8121 -1.1071  0.2547
 5686TP3     H228878   0.424   3.437   7.857  0.9238 -0.6706  0.3361
 5687TP3      O28879   2.767   1.263   8.047 -0.0309 -1.1060 -0.3323
 5687TP3     H128880   2.735   1.173   8.048 -0.8083 -0.8599 -1.1689
 5687TP3     H228881   2.821   1.270   8.125 -1.3133 -1.8156  0.6574
 5688TP3      O28882   0.529   0.027   2.201 -0.0352 -0.2732 -0.3307
 5688TP3     H128883   0.536   0.037   2.106  1.9334  1.1357 -0.1016
 5688TP3     H228884   0.567   0.107   2.236  0.5542 -1.3552  1.6471
 5689TP3      O28885   2.610   0.690   1.626 -0.0975 -0.0031  0.4552
 5689TP3     H128886   2.529   0.641   1.608  0.3265 -0.7939  0.7042
 5689TP3     H228887   2.596   0.774   1.581 -1.7562  0.5420  1.8713
 5690TP3      O28888   0.839   3.039  10.142  0.3381 -0.5801 -0.2054
 5690TP3     H128889   0.855   3.042  10.237  0.2440  1.8519 -0.2029
 5690TP3     H228890   0.752   3.078  10.131 -0.0890 -1.7666 -1.2432
 5691TP3      O28891   1.924   3.028   0.367  0.4944  0.0506  0.1291
 5691TP3     H128892   1.980   3.039   0.290  1.0055  0.7180  0.5890
 5691TP3     H228893   1.842   3.072   0.344  1.5586  2.6395  0.9262
 5692TP3      O28894   2.145   0.241   1.881  0.0784 -0.0616 -0.1486
 5692TP3     H128895   2.213   0.207   1.939  0.9591  0.2692 -0.9464
 5692TP3     H228896   2.075   0.177   1.886  1.2842 -1.5039 -0.8397
 5693TP3      O28897   4.504   2.531   2.982  0.2231 -0.6033 -0.5386
 5693TP3     H128898   4.436   2.476   2.943 -2.1622  1.7924 -0.0600
 5693TP3     H228899   4.480   2.537   3.075  0.0629  1.6090 -0.6765
 5694TP3      O28900   0.788   1.999   2.617 -0.0597  0.0143  0.6707
 5694TP3     H128901   0.760   2.089   2.637 -1.6237 -0.4037  0.4780
 5694TP3     H228902   0.733   1.944   2.674 -0.2523 -0.8861 -0.3600
 5695TP3      O28903   2.865   3.262  10.085 -0.1476  0.3115 -0.1601
 5695TP3     H128904   2.958   3.271  10.106  1.0365 -1.7664 -3.6778
 5695TP3     H228905   2.850   3.326  10.015 -0.7615 -0.7943 -1.0716
 5696TP3      O28906   1.126   3.388   1.760  0.1060  0.1533  0.1592
 5696TP3     H128907   1.128   3.294   1.778  0.3428  0.2426  0.6158
 5696TP3     H228908   1.196   3.424   1.815 -0.3441  0.6676  0.3954
 5697TP3      O28909   3.722   0.959   0.108  0.2440 -0.3204 -0.0925
 5697TP3     H128910   3.639   0.991   0.143 -0.7623 -0.8474 -1.8472
 5697TP3     H228911   3.775   1.038   0.097 -1.0192  0.3952 -1.3899
 5698TP3      O28912   0.444   2.257   9.973 -0.0343  0.7056 -0.1309
 5698TP3     H128913   0.498   2.336   9.969 -0.7329  1.1855 -0.4001
 5698TP3     H228914   0.507   2.185   9.974  0.6067  1.2353 -0.8408
 5699TP3      O28915   0.470   3.801   6.973  0.0705  0.1442  0.1994
 5699TP3     H128916   0.509   3.824   6.888  1.5280  0.7575  1.0070
 5699TP3     H228917   0.410   3.729   6.952 -0.2228  0.8196 -1.4689
 5700TP3      O28918   2.688   5.000   0.525  0.5907 -0.2463  0.0413
 5700TP3     H128919   2.614   5.002   0.585 -0.2505  0.7466 -0.9928
 5700TP3     H228920   2.684   4.914   0.484 -0.6816  0.1983 -0.8163
 5701TP3      O28921   1.305   2.892   2.677  0.2284 -0.8214 -0.0524
 5701TP3     H128922   1.296   2.810   2.628 -1.9680  0.0113 -1.1578
 5701TP3     H228923   1.399   2.898   2.695  0.7885 -2.3945 -2.0479
 5702TP3      O28924   2.988   4.859   2.064  0.1443 -0.2050 -0.3013
 5702TP3     H128925   2.955   4.785   2.115  0.8237 -0.0454  0.3934
 5702TP3     H228926   3.033   4.818   1.990 -0.6852 -0.4446 -0.6759
 5703TP3      O28927   2.701   0.420   0.624 -0.3173 -0.1958  0.2275
 5703TP3     H128928   2.697   0.516   0.623 -0.9623 -0.1441  2.1929
 5703TP3     H228929   2.750   0.400   0.704 -0.5632 -1.5148  0.0627
 5704TP3      O28930   2.773   0.674   1.838  0.1647 -0.0111 -0.3569
 5704TP3     H128931   2.705   0.663   1.772 -0.2075  1.5244 -0.2646
 5704TP3     H228932   2.833   0.738   1.800  0.2217  0.5030  0.5758
 5705TP3      O28933   0.390   2.753  10.021  0.1528  0.1888  0.1638
 5705TP3     H128934   0.323   2.799   9.971 -0.2109 -0.1278  0.3512
 5705TP3     H228935   0.363   2.763  10.112  0.5143  0.3010  0.2584
 5706TP3      O28936   0.195   0.702   2.106  0.1550  0.3209  0.0514
 5706TP3     H128937   0.149   0.786   2.097 -0.9394 -0.3637 -1.1437
 5706TP3     H228938   0.251   0.698   2.028  0.1922 -0.0511  0.0983
 5707TP3      O28939   0.622   0.098   7.878 -0.1805  0.8790 -0.2693
 5707TP3     H128940   0.642   0.032   7.811 -0.3493  1.1913 -0.6309
 5707TP3     H228941   0.693   0.161   7.873  0.2367  0.4754  0.4103
 5708TP3      O28942   3.495   3.239   2.104 -0.5705  0.3151 -0.0457
 5708TP3     H128943   3.565   3.298   2.074 -0.6251  0.7543  0.6545
 5708TP3     H228944   3.457   3.285   2.178 -1.6704  0.1224 -0.4817
 5709TP3      O28945   1.653   0.830   9.729  0.0970 -0.0816 -0.0330
 5709TP3     H128946   1.581   0.767   9.736 -0.3266  0.2841 -0.9541
 5709TP3     H228947   1.620   0.897   9.669  1.3696 -0.1561 -0.8480
 5710TP3      O28948   3.148   1.678   7.777  0.7421  0.0439  0.1131
 5710TP3     H128949   3.161   1.599   7.724 -0.8848 -0.1930  0.0177
 5710TP3     H228950   3.232   1.691   7.822  1.0544 -1.6905  0.0864
 5711TP3      O28951   5.123   3.518   1.436 -0.3692 -1.0299 -0.3366
 5711TP3     H128952   5.181   3.570   1.492 -0.0823 -0.4338 -1.1747
 5711TP3     H228953   5.035   3.539   1.467 -0.2339 -0.3578 -0.3978
 5712TP3      O28954   3.132   1.531   1.527 -0.4677  0.6189 -0.2013
 5712TP3     H128955   3.142   1.626   1.532 -0.4290  0.7052 -1.5920
 5712TP3     H228956   3.218   1.497   1.552 -0.6797  0.9075  0.9842
 5713TP3      O28957   2.472   1.051   9.415  0.2280 -0.0535  0.2144
 5713TP3     H128958   2.471   1.128   9.472 -0.3096  0.1703 -0.0913
 5713TP3     H228959   2.510   0.982   9.469 -2.5433 -0.5150  1.7481
 5714TP3      O28960   4.940   3.695   9.441  0.2078  0.2819  0.6638
 5714TP3     H128961   5.016   3.689   9.383  0.7049  2.1352  1.0795
 5714TP3     H228962   4.976   3.687   9.529 -0.2865 -0.3271  0.8218
 5715TP3      O28963   3.548   0.196  10.198  0.0798  0.1491 -0.0864
 5715TP3     H128964   3.540   0.210  10.104  0.8648 -0.7034 -0.2863
 5715TP3     H228965   3.472   0.143  10.221 -1.0366  1.7354  0.0817
 5716TP3      O28966   3.957   3.123   8.604 -0.6798 -0.3432  0.5881
 5716TP3     H128967   3.878   3.109   8.657  0.0342 -0.9897  1.5370
 5716TP3     H228968   3.958   3.217   8.585 -0.4632  0.1046  2.5893
 5717TP3      O28969   3.148   0.419   0.934  0.0598  0.2025 -0.0307
 5717TP3     H128970   3.197   0.495   0.966  1.4242  0.3278 -2.1604
 5717TP3     H228971   3.200   0.388   0.859 -1.3898 -1.7653 -0.2832
 5718TP3      O28972   3.904   1.120   9.503  1.0200 -0.5779  0.0493
 5718TP3     H128973   3.907   1.186   9.572 -0.8619 -1.6930  1.3189
 5718TP3     H228974   3.896   1.170   9.422 -0.3974  0.8111  0.9667
 5719TP3      O28975   0.317   0.985   3.105  0.9784 -0.5120  0.2762
 5719TP3     H128976   0.222   0.981   3.098  1.0281  0.9145 -2.7550
 5719TP3     H228977   0.344   0.896   3.126 -0.9910 -0.8773  1.5049
 5720TP3      O28978   3.055   1.596   3.001 -0.4075 -0.3209  0.2895
 5720TP3     H128979   3.026   1.522   3.055  0.1472  0.1565  1.2550
 5720TP3     H228980   2.999   1.669   3.028 -0.5877 -0.2490 -0.2734
 5721TP3      O28981   3.844   1.439   8.993 -0.0025  0.2287 -0.4082
 5721TP3     H128982   3.863   1.472   9.081  0.2897 -1.1559  0.0750
 5721TP3     H228983   3.920   1.466   8.941  0.0456  0.6436 -0.1309
 5722TP3      O28984   3.548   0.570   7.206  1.1133  0.1490 -0.2700
 5722TP3     H128985   3.590   0.507   7.147 -0.5527 -0.7304 -0.5875
 5722TP3     H228986   3.498   0.627   7.149  0.2418 -0.1192  0.2001
 5723TP3      O28987   4.687   3.885   0.694  0.5850  0.2976 -0.1819
 5723TP3     H128988   4.643   3.841   0.767  1.0727  0.7277  0.3808
 5723TP3     H228989   4.777   3.898   0.725  0.3699  2.0254 -0.1630
 5724TP3      O28990   2.163   0.089   8.400 -0.6296  0.1450  0.3276
 5724TP3     H128991   2.196   0.165   8.352 -1.7040  0.5517  0.2082
 5724TP3     H228992   2.130   0.030   8.333  0.3393 -0.5121  0.4121
 5725TP3      O28993   4.178   4.297   8.297 -0.2037 -0.3711  0.4028
 5725TP3     H128994   4.229   4.370   8.262 -1.5387  0.0102 -0.8691
 5725TP3     H228995   4.233   4.220   8.281  0.0119  0.0223 -0.8934
 5726TP3      O28996   1.592   2.757   3.697  0.3698 -0.3244 -0.4343
 5726TP3     H128997   1.553   2.696   3.760  1.0521  1.0962  1.4624
 5726TP3     H228998   1.556   2.843   3.721  0.0171  0.1768 -2.5429
 5727TP3      O28999   5.170   2.778   7.871 -0.7604 -0.4177 -0.6643
 5727TP3     H129000   5.176   2.832   7.793 -0.0181  0.3581 -0.0940
 5727TP3     H229001   5.084   2.798   7.908  0.0138  1.4196  0.2499
 5728TP3      O29002   5.115   4.525   0.393 -0.1661  0.1355 -0.1155
 5728TP3     H129003   5.173   4.455   0.364  0.4456  1.1667 -1.5070
 5728TP3     H229004   5.048   4.481   0.446 -0.4821 -1.6809 -1.8812
 5729TP3      O29005   4.935   4.627   1.819  0.1597 -0.5855  0.0348
 5729TP3     H129006   5.003   4.596   1.879  1.1544  0.8662 -0.2897
 5729TP3     H229007   4.978   4.695   1.767 -1.6330  0.6496  0.0756
 5730TP3      O29008   4.380   2.471   9.851 -0.0985  0.3107 -0.1347
 5730TP3     H129009   4.398   2.412   9.778  1.1250 -0.8237  1.0308
 5730TP3     H229010   4.457   2.463   9.908  0.2671  3.2556 -0.0493
 5731TP3      O29011   4.790   3.505   2.379 -0.1333 -0.2571 -0.5704
 5731TP3     H129012   4.724   3.530   2.315 -0.5764 -0.5748 -0.2416
 5731TP3     H229013   4.831   3.427   2.341  0.6773  0.4600 -1.1990
 5732TP3      O29014   0.019   3.484   0.017 -0.3325  0.2966  0.3266
 5732TP3     H129015   0.039   3.398   0.053  1.2292  0.4460 -0.1038
 5732TP3     H229016  -0.052   3.468  -0.046  1.4599 -1.1122 -1.4600
 5733TP3      O29017   0.585   2.522   0.187  0.1343 -0.4946  0.2357
 5733TP3     H129018   0.556   2.479   0.106  0.4617 -1.7573  0.7613
 5733TP3     H229019   0.559   2.462   0.257 -2.1217  1.5846  1.3241
 5734TP3      O29020   4.636   1.310   9.701  0.0995  0.7541  0.1897
 5734TP3     H129021   4.725   1.343   9.697 -0.2484  1.5458 -2.2045
 5734TP3     H229022   4.616   1.307   9.795  3.0403 -0.6676  0.8786
 5735TP3      O29023   4.115   2.972   1.595  0.3890  0.4347 -0.0394
 5735TP3     H129024   4.189   2.936   1.643 -0.4881 -0.2318  0.8412
 5735TP3     H229025   4.044   2.975   1.659 -0.3264  1.1561 -0.8402
 5736TP3      O29026   0.775   2.880   6.869 -0.0298 -0.3548 -0.6127
 5736TP3     H129027   0.784   2.938   6.794  0.7873 -0.5348 -0.6598
 5736TP3     H229028   0.716   2.811   6.839  1.3651 -1.1777 -1.5687
 5737TP3      O29029   2.682   4.067   9.308 -0.2798  0.0078 -0.4634
 5737TP3     H129030   2.638   4.112   9.380 -1.4580 -1.0424 -0.4917
 5737TP3     H229031   2.749   4.013   9.351 -0.3348  0.1207 -0.2334
 5738TP3      O29032   5.072   4.246   8.257 -0.2761  0.4402 -0.0106
 5738TP3     H129033   5.120   4.190   8.318  1.0102  1.8910  0.3782
 5738TP3     H229034   4.982   4.243   8.287  0.3398  1.2284  2.1096
 5739TP3      O29035   3.572   0.429   0.222  0.4036 -0.3757  0.1591
 5739TP3     H129036   3.579   0.417   0.317  1.0685  0.3162  0.2031
 5739TP3     H229037   3.541   0.519   0.210 -1.9281 -1.1510 -0.2479
 5740TP3      O29038   2.141   2.065   2.792 -0.3394 -0.1426 -0.3718
 5740TP3     H129039   2.209   1.997   2.799  2.0904  1.9602 -1.6280
 5740TP3     H229040   2.124   2.072   2.698  1.9943  3.0777 -0.7446
 5741TP3      O29041   1.413   4.888   2.833  0.2515  0.5341 -0.3634
 5741TP3     H129042   1.398   4.890   2.928 -0.5092 -0.1737 -0.4481
 5741TP3     H229043   1.409   4.979   2.806 -2.4739  0.5906 -0.1049
 5742TP3      O29044   0.307   2.899   3.772  0.0189  0.1295 -0.0641
 5742TP3     H129045   0.323   2.932   3.684  2.4006  0.2911  0.3583
 5742TP3     H229046   0.375   2.833   3.786 -0.1177  0.3170  1.7372
 5743TP3      O29047   4.516   0.486   9.106 -0.2457 -0.0660 -0.2777
 5743TP3     H129048   4.470   0.525   9.032  0.5455 -0.9958 -1.2727
 5743TP3     H229049   4.449   0.479   9.174 -0.9327  0.9905 -0.8172
 5744TP3      O29050   2.018   0.845  10.106  0.0439 -0.1884  0.1933
 5744TP3     H129051   1.953   0.912  10.122  1.3752  1.2290 -0.1126
 5744TP3     H229052   2.030   0.846  10.011  3.2228  2.3667  0.4419
 5745TP3      O29053   3.508   0.612   1.071 -0.2950  0.5125 -0.5625
 5745TP3     H129054   3.414   0.624   1.086 -0.4297 -0.1261 -0.8581
 5745TP3     H229055   3.519   0.517   1.060  0.5227  0.4817  0.3805
 5746TP3      O29056   2.326   1.383   1.933  0.4899 -0.2256 -0.1618
 5746TP3     H129057   2.380   1.306   1.953 -0.3196 -0.5819  0.7463
 5746TP3     H229058   2.243   1.366   1.977 -0.5422  0.1122 -1.8951
 5747TP3      O29059   3.255   4.337   1.804  0.0869 -0.1209 -0.2097
 5747TP3     H129060   3.220   4.287   1.730 -0.6303 -1.3477  0.9061
 5747TP3     H229061   3.261   4.426   1.771  3.2854 -1.1416 -2.9433
 5748TP3      O29062   1.016   3.621  10.250  0.0393  0.1696 -0.3015
 5748TP3     H129063   0.931   3.651  10.284  0.1722  0.0517  0.1487
 5748TP3     H229064   1.030   3.673  10.171 -1.4510 -1.3057 -1.6191
 5749TP3      O29065   2.462   1.611   1.308  0.2580  0.2109  0.1514
 5749TP3     H129066   2.472   1.525   1.267 -0.4375 -0.4615  1.3559
 5749TP3     H229067   2.396   1.598   1.375 -2.1714  2.3988 -1.6410
 5750TP3      O29068   3.853   3.174   2.511  0.1912 -0.3702 -0.5751
 5750TP3     H129069   3.911   3.214   2.447 -1.4474  0.9812 -1.2654
 5750TP3     H229070   3.765   3.195   2.481 -0.6526 -0.9117  1.3642
 5751TP3      O29071   0.560   2.274   3.430  0.3184  0.0903 -0.1081
 5751TP3     H129072   0.564   2.365   3.402 -0.6404 -0.1591 -1.1116
 5751TP3     H229073   0.467   2.257   3.445  0.5581 -0.5271  0.7794
 5752TP3      O29074   3.734   2.250   8.595 -0.7718 -0.7797 -0.1495
 5752TP3     H129075   3.793   2.185   8.632  0.3668 -0.4535 -1.3332
 5752TP3     H229076   3.696   2.207   8.518  1.6196  0.5564 -2.2380
 5753TP3      O29077   2.256   2.415   0.795  0.6978 -0.0624 -0.4984
 5753TP3     H129078   2.323   2.457   0.849  0.0784 -2.1410  2.1478
 5753TP3     H229079   2.279   2.322   0.797 -1.8368 -0.7674 -0.0031
 5754TP3      O29080   4.819   0.112   1.802 -0.5704  0.1085  0.0958
 5754TP3     H129081   4.742   0.115   1.746  0.0149  0.4021 -0.7044
 5754TP3     H229082   4.814   0.026   1.844 -0.2139 -0.7912 -1.5966
 5755TP3      O29083   4.825   3.180   2.631 -0.1239 -0.1432 -0.7688
 5755TP3     H129084   4.910   3.222   2.643 -0.6062  0.5624  0.4147
 5755TP3     H229085   4.815   3.173   2.536  0.3270  1.7591 -1.0057
 5756TP3      O29086   2.249   2.682   3.071  0.2244 -0.4185 -0.6178
 5756TP3     H129087   2.228   2.594   3.040 -0.2517 -1.1794  1.6818
 5756TP3     H229088   2.319   2.669   3.135  0.5992  0.9562 -0.7212
 5757TP3      O29089   3.803   1.516   8.643  0.3148  0.5845 -0.1564
 5757TP3     H129090   3.746   1.592   8.651 -1.3466 -0.4623 -1.4284
 5757TP3     H229091   3.753   1.444   8.681  1.1287 -0.2068 -0.5338
 5758TP3      O29092   3.698   0.059   1.063  0.5052  0.4964  0.3785
 5758TP3     H129093   3.700   0.072   0.968 -0.0454 -0.0757  0.2783
 5758TP3     H229094   3.690  -0.036   1.074  1.8562  0.4294  1.0228
 5759TP3      O29095   4.146   3.246   2.185  0.4539 -0.0531  0.5685
 5759TP3     H129096   4.204   3.313   2.149 -1.1578  1.4359  0.5941
 5759TP3     H229097   4.128   3.188   2.111  0.1087  0.8476 -0.0688
 5760TP3      O29098   4.201   0.815   1.516 -0.2084  0.0391 -0.0050
 5760TP3     H129099   4.232   0.724   1.525 -1.5267 -0.3628  0.6172
 5760TP3     H229100   4.187   0.826   1.422  1.5519  0.1636 -0.2886
 5761TP3      O29101   1.391   2.649   9.021  0.2680 -0.1445 -0.2794
 5761TP3     H129102   1.457   2.654   9.090  1.0327 -1.3606 -0.8833
 5761TP3     H229103   1.427   2.703   8.951 -0.4413  0.9742  0.1951
 5762TP3      O29104   2.176   2.362   8.291  0.5108 -0.2056 -0.5869
 5762TP3     H129105   2.246   2.382   8.352 -1.1962 -0.5425  1.6029
 5762TP3     H229106   2.160   2.268   8.303 -2.0484  0.3377  1.0298
 5763TP3      O29107   4.256   4.894   3.624 -0.5125  0.5618  0.2319
 5763TP3     H129108   4.283   4.982   3.598  0.1634  0.5110  0.7521
 5763TP3     H229109   4.201   4.864   3.551 -1.0830  1.5620  0.2260
 5764TP3      O29110   2.194   4.834  10.243  0.3317 -0.2205 -0.2541
 5764TP3     H129111   2.179   4.912  10.297  2.0806 -0.5026  0.7128
 5764TP3     H229112   2.174   4.862  10.154  1.0976  1.4069  0.0501
 5765TP3      O29113   1.391   4.666  10.039 -0.3083  0.2277  0.4627
 5765TP3     H129114   1.471   4.641  10.086 -1.4573 -1.7787  1.4812
 5765TP3     H229115   1.331   4.694  10.108 -1.2246 -0.4879 -0.0224
 5766TP3      O29116   0.567   3.271   2.458 -0.2711 -0.0403  0.6630
 5766TP3     H129117   0.645   3.284   2.512 -0.1360 -1.8562  0.9663
 5766TP3     H229118   0.600   3.270   2.368  0.1630 -1.3628  0.8214
 5767TP3      O29119   0.170   0.404   1.597  0.3965  0.2322 -0.0067
 5767TP3     H129120   0.149   0.441   1.511  1.7981  1.4495  0.1423
 5767TP3     H229121   0.140   0.471   1.659 -0.5157 -0.5945  0.4831
 5768TP3      O29122   2.224   3.082   1.986  0.6078 -0.1752  0.3796
 5768TP3     H129123   2.145   3.121   2.022  0.1617  0.5776 -1.3515
 5768TP3     H229124   2.196   2.997   1.952  0.7775 -0.3734  0.7300
 5769TP3      O29125   4.116   3.866   1.869  0.6632  0.3571  0.3989
 5769TP3     H129126   4.083   3.787   1.826 -2.2911  2.8125 -2.3454
 5769TP3     H229127   4.206   3.874   1.840  0.1695 -0.5938 -1.5197
 5770TP3      O29128   2.175   1.069   9.425  0.1323 -0.6000 -0.0241
 5770TP3     H129129   2.231   1.130   9.377 -0.1089 -0.0491  0.3785
 5770TP3     H229130   2.235   1.001   9.456  0.3234 -0.8322 -0.8952
 5771TP3      O29131   1.772   1.325   0.718 -0.9226  0.2735  0.1142
 5771TP3     H129132   1.686   1.284   0.724 -0.4732 -0.8538 -0.6116
 5771TP3     H229133   1.774   1.363   0.631 -0.5287 -0.1133 -0.0505
 5772TP3      O29134   1.741   3.858   2.703 -0.4153 -0.3968 -0.1217
 5772TP3     H129135   1.742   3.885   2.795  2.3181 -1.1546  0.1711
 5772TP3     H229136   1.699   3.930   2.657 -0.5326  0.6574  1.5497
 5773TP3      O29137   2.587   1.160  10.097 -0.2862 -0.7798  0.3153
 5773TP3     H129138   2.675   1.123  10.097  0.7126  1.4052  1.8984
 5773TP3     H229139   2.550   1.132  10.013  1.2377 -3.1856  0.3426
 5774TP3      O29140   5.136   2.115   3.905  0.8325 -0.1967 -0.0875
 5774TP3     H129141   5.135   2.125   3.810 -0.7639 -0.2954 -0.1037
 5774TP3     H229142   5.056   2.158   3.935  1.2585 -0.2503  1.2109
 5775TP3      O29143   4.329   5.138   3.558 -0.1616  0.3368 -0.5871
 5775TP3     H129144   4.254   5.197   3.555 -0.7108 -0.2898  0.3186
 5775TP3     H229145   4.395   5.180   3.504 -1.3698  0.6110 -1.8855
 5776TP3      O29146   1.730   2.794   0.479 -0.3356  0.1484 -0.0760
 5776TP3     H129147   1.717   2.769   0.387 -1.6137  0.3720  0.0250
 5776TP3     H229148   1.716   2.713   0.528  1.1459 -0.1497 -0.1176
 5777TP3      O29149   4.461   1.537  10.084  0.6404  0.1878 -0.7470
 5777TP3     H129150   4.434   1.483  10.159 -0.5848  1.9726  0.1492
 5777TP3     H229151   4.408   1.505  10.011  0.6756 -0.4816 -0.4899
 5778TP3      O29152   1.384   3.519   0.153  0.1576  0.2432  0.0018
 5778TP3     H129153   1.300   3.479   0.176 -0.7831  1.0560 -1.8116
 5778TP3     H229154   1.447   3.479   0.213 -0.9428 -2.9055 -0.7953
 5779TP3      O29155   1.017   0.459   2.444 -0.1305 -0.3919  0.2412
 5779TP3     H129156   0.959   0.529   2.473 -1.9139 -1.9638  0.6721
 5779TP3     H229157   0.991   0.442   2.354 -1.6249 -2.2118  0.9307
 5780TP3      O29158   3.369   3.608   9.231 -0.0233  0.0010 -0.0385
 5780TP3     H129159   3.462   3.591   9.250 -0.0700  0.5281  0.7021
 5780TP3     H229160   3.324   3.588   9.313 -0.7271 -1.3616 -0.7072
 5781TP3      O29161   0.930   0.265   3.701 -0.4938  0.0243  0.4968
 5781TP3     H129162   1.009   0.212   3.690 -0.7191 -0.0384 -0.9643
 5781TP3     H229163   0.964   0.352   3.723  0.0126  0.0915 -0.4873
 5782TP3      O29164   2.282   2.069   1.115  0.8654  0.2678  0.8334
 5782TP3     H129165   2.325   1.983   1.111  1.4166  0.5249  1.2546
 5782TP3     H229166   2.224   2.063   1.191  1.4406  0.5129  1.2971
 5783TP3      O29167   3.650   2.682   8.218  0.4694 -0.2939 -0.0569
 5783TP3     H129168   3.731   2.633   8.229  0.4768 -0.2671  0.0140
 5783TP3     H229169   3.585   2.632   8.268  0.6365  0.1560  0.6307
 5784TP3      O29170   4.958   3.714   2.361  0.7366 -0.3899 -0.0865
 5784TP3     H129171   4.888   3.655   2.333  0.2154  0.2344 -0.1225
 5784TP3     H229172   5.035   3.658   2.368  0.2380 -1.0871 -0.0640
 5785TP3      O29173   4.157   4.512   2.919 -0.1966 -0.2235 -0.0408
 5785TP3     H129174   4.205   4.462   2.853  1.2103  0.0079  0.7610
 5785TP3     H229175   4.164   4.460   2.999 -0.9604  0.0197  0.1952
 5786TP3      O29176   0.572   0.064   9.161  0.7922 -0.2306 -0.4821
 5786TP3     H129177   0.613   0.122   9.225 -3.3933  1.1423  1.3029
 5786TP3     H229178   0.558   0.120   9.084  1.1545 -0.3424 -0.6304
 5787TP3      O29179   0.160   0.480   8.703  0.2607  0.1310 -0.4397
 5787TP3     H129180   0.145   0.388   8.684  0.9604 -0.1105  0.1342
 5787TP3     H229181   0.255   0.490   8.696  0.2981  0.5566  0.6042
 5788TP3      O29182   1.799   2.851   2.487  0.0039  0.2777 -0.4649
 5788TP3     H129183   1.847   2.769   2.472  1.2236  0.7268  0.7450
 5788TP3     H229184   1.839   2.913   2.425  0.7990  0.5740  0.3314
 5789TP3      O29185   4.854   3.263   8.896 -0.1482  0.0665  0.1930
 5789TP3     H129186   4.804   3.226   8.969  0.7001 -0.5762  0.4656
 5789TP3     H229187   4.846   3.358   8.907 -1.4782 -0.0117  0.0977
 5790TP3      O29188   4.749   0.932  10.182  0.2836 -0.5268  0.1548
 5790TP3     H129189   4.772   0.988  10.255  0.5148 -2.0083  1.2577
 5790TP3     H229190   4.691   0.986  10.128  0.9554  0.9493  0.8490
 5791TP3      O29191   5.115   5.141   1.966  0.5754 -0.0333 -0.2900
 5791TP3     H129192   5.091   5.072   2.028  0.3882  0.2991  0.0130
 5791TP3     H229193   5.031   5.178   1.939  0.6612 -0.1263 -0.6836
 5792TP3      O29194   3.803   3.764   0.932 -0.4253  0.0128 -0.2307
 5792TP3     H129195   3.855   3.813   0.869 -0.5275 -0.5288 -0.7397
 5792TP3     H229196   3.738   3.828   0.963  0.3676  0.6133  0.2168
 5793TP3      O29197   2.467   0.418   1.844 -0.1859  0.3225 -0.0358
 5793TP3     H129198   2.506   0.476   1.778  0.7233 -1.6924 -1.3669
 5793TP3     H229199   2.420   0.477   1.903  0.5091  2.3730 -1.4251
 5794TP3      O29200   3.873   3.291   3.176 -0.1329  0.3457  0.3201
 5794TP3     H129201   3.784   3.259   3.160  0.8369 -1.3124 -2.2990
 5794TP3     H229202   3.928   3.214   3.166  1.8966  1.9088 -1.3415
 5795TP3      O29203   4.400   3.359   2.611  0.2021 -0.5060 -0.3473
 5795TP3     H129204   4.439   3.431   2.563  0.0051 -0.3090 -0.2129
 5795TP3     H229205   4.350   3.310   2.545  1.4109 -1.2960 -0.7116
 5796TP3      O29206   2.867   0.221   8.423  0.9220 -0.1486 -0.0895
 5796TP3     H129207   2.868   0.269   8.506 -2.3882 -0.1269  0.0701
 5796TP3     H229208   2.920   0.275   8.364  0.5304  1.6906  1.1281
 5797TP3      O29209   1.748   4.359   1.278  0.3689 -0.2477 -0.1767
 5797TP3     H129210   1.809   4.365   1.204  1.0961 -1.1510  0.3371
 5797TP3     H229211   1.683   4.295   1.251  0.1091  0.1063 -0.3968
 5798TP3      O29212   4.233   2.325   0.425 -0.2153  0.5848 -0.1813
 5798TP3     H129213   4.253   2.235   0.448 -1.3024  0.2160 -0.6318
 5798TP3     H229214   4.274   2.337   0.339 -1.8832 -0.1888 -1.1292
 5799TP3      O29215   0.619   2.554   1.743  0.1331 -0.3453 -0.3471
 5799TP3     H129216   0.703   2.601   1.744  0.5799 -1.0779 -1.1477
 5799TP3     H229217   0.608   2.522   1.833  2.2557 -2.7851 -0.8186
 5800TP3      O29218   1.886   0.476   2.537  0.1531  0.2730  0.6410
 5800TP3     H129219   1.878   0.488   2.442  1.5237  1.1473  0.6128
 5800TP3     H229220   1.947   0.403   2.546  0.9360  0.9458  0.8454
 5801TP3      O29221   5.126   2.634   3.370  0.1678  0.4969 -0.5798
 5801TP3     H129222   5.044   2.650   3.417  0.6293  0.1071  0.3907
 5801TP3     H229223   5.178   2.714   3.385  0.1043  0.5968 -0.8918
 5802TP3      O29224   2.020   1.423   8.659  0.1325 -0.5963 -0.2864
 5802TP3     H129225   2.038   1.487   8.728  1.6107  0.1253 -1.2832
 5802TP3     H229226   2.104   1.411   8.615 -0.4066 -2.2866 -0.9361
 5803TP3      O29227   3.013   4.975   8.984  0.2600 -0.2092 -0.0369
 5803TP3     H129228   2.987   4.988   8.893  0.5903  0.1232 -0.0846
 5803TP3     H229229   2.930   4.961   9.030  0.1688 -1.5283 -0.5593
 5804TP3      O29230   2.682   3.559   0.730 -0.9603  0.4292 -0.2565
 5804TP3     H129231   2.608   3.498   0.734  1.5380 -2.9091 -0.6014
 5804TP3     H229232   2.722   3.553   0.816  1.2108 -1.0951 -1.2992
 5805TP3      O29233   3.407   1.907   9.598  0.3757 -0.0588 -0.1449
 5805TP3     H129234   3.433   1.944   9.514  3.4023  1.2902  1.2301
 5805TP3     H229235   3.319   1.874   9.583  1.1684 -0.9069 -4.1204
 5806TP3      O29236   4.624   3.268   2.778  0.3330 -0.1654 -0.4146
 5806TP3     H129237   4.702   3.243   2.730  0.7105 -0.9047  0.5494
 5806TP3     H229238   4.553   3.264   2.713  1.2035  1.4091 -1.5152
 5807TP3      O29239   3.384   1.556   1.575 -0.1341  0.2968  0.1848
 5807TP3     H129240   3.357   1.559   1.667  0.3776 -0.4704  0.3676
 5807TP3     H229241   3.462   1.612   1.571  1.8110 -2.1801  0.9343
 5808TP3      O29242   1.495   1.483   2.493 -0.2475 -0.3961 -0.8601
 5808TP3     H129243   1.539   1.517   2.414  0.0345  0.0871 -0.5051
 5808TP3     H229244   1.567   1.459   2.551 -0.3940  1.7745  0.3138
 5809TP3      O29245   3.671   1.077   8.681  0.3175  0.4052 -0.0690
 5809TP3     H129246   3.687   1.164   8.716 -0.0941  1.0275 -1.3661
 5809TP3     H229247   3.615   1.035   8.746 -2.4479  2.3628 -0.9779
 5810TP3      O29248   2.965   4.787   0.181  0.1025 -0.2329  0.3384
 5810TP3     H129249   2.960   4.876   0.146 -0.2999 -0.1194  0.6683
 5810TP3     H229250   2.949   4.797   0.275  1.3954 -0.5080  0.6035
 5811TP3      O29251   2.824   0.838   0.754 -0.2433 -0.0627 -0.0214
 5811TP3     H129252   2.860   0.749   0.756 -0.5878 -0.1953  0.5235
 5811TP3     H229253   2.890   0.892   0.795 -0.8751 -0.3904  1.4770
 5812TP3      O29254   2.937   1.955   2.673  0.4065 -0.3097 -0.1612
 5812TP3     H129255   2.974   1.945   2.585 -2.7613 -0.6026 -1.6205
 5812TP3     H229256   2.905   2.045   2.675  0.6982 -0.2175  0.8346
 5813TP3      O29257   0.760   4.844   8.522 -0.1160 -0.6556 -0.0393
 5813TP3     H129258   0.666   4.834   8.505 -0.0295 -0.2523 -0.8339
 5813TP3     H229259   0.764   4.888   8.607 -0.6454 -0.8372  0.0832
 5814TP3      O29260   2.539   2.547   1.124 -0.3349  0.5139 -0.1872
 5814TP3     H129261   2.631   2.569   1.135 -0.0897 -1.5171  3.4906
 5814TP3     H229262   2.534   2.507   1.037  2.5459 -0.3731 -0.0361
 5815TP3      O29263   3.139   3.955  10.353  0.2195 -0.5124  0.6518
 5815TP3     H129264   3.056   3.968  10.309  1.0005 -0.1217 -0.7806
 5815TP3     H229265   3.197   3.919  10.286  1.4341  0.0209  1.3714
 5816TP3      O29266   2.706   2.395   3.177  0.3740 -0.2771 -0.2144
 5816TP3     H129267   2.746   2.309   3.167 -0.9779 -0.7593 -2.0565
 5816TP3     H229268   2.615   2.383   3.148 -0.6583  1.1654  2.1070
 5817TP3      O29269   1.470   1.829   0.379  0.1244  0.3282 -0.2214
 5817TP3     H129270   1.536   1.766   0.349 -0.3642  0.5145 -1.8018
 5817TP3     H229271   1.404   1.828   0.310 -0.6324  1.4853  0.4610
 5818TP3      O29272   3.359   0.757   0.530  0.1483  0.1261 -0.6829
 5818TP3     H129273   3.367   0.710   0.446  0.3883  2.1469 -1.8552
 5818TP3     H229274   3.267   0.745   0.554  0.5461 -2.2237 -0.1047
 5819TP3      O29275   1.291   3.954   9.026  0.1230  0.0122 -0.1026
 5819TP3     H129276   1.244   4.035   9.044 -0.0160 -0.0426 -0.2203
 5819TP3     H229277   1.349   3.975   8.953  0.9489  0.3369  0.6237
 5820TP3      O29278   3.367   4.194   2.794 -0.0622  0.9346 -0.2056
 5820TP3     H129279   3.392   4.285   2.781  1.9734  0.1120 -3.0692
 5820TP3     H229280   3.428   4.161   2.859  0.2438  1.2255 -0.3445
 5821TP3      O29281   2.220   3.581   0.734 -0.4805 -0.0382  0.4197
 5821TP3     H129282   2.267   3.658   0.703  0.6322 -0.5964  0.6526
 5821TP3     H229283   2.161   3.615   0.802  0.1302  0.5865  0.6540
 5822TP3      O29284   2.918   1.693   8.891  0.0610  0.2213  0.3649
 5822TP3     H129285   2.949   1.642   8.815 -1.3608 -0.4799  0.2243
 5822TP3     H229286   2.919   1.630   8.963 -0.6973  0.2764  0.4273
 5823TP3      O29287   1.490   0.703   1.515 -0.0170 -0.0202  0.0965
 5823TP3     H129288   1.417   0.695   1.577 -0.5114  2.8126 -0.0113
 5823TP3     H229289   1.452   0.682   1.430 -0.4706  0.4745  0.1736
 5824TP3      O29290   0.246   3.557   3.973  0.5643  0.5363  0.1105
 5824TP3     H129291   0.176   3.493   3.963 -0.1798  1.3524  0.0393
 5824TP3     H229292   0.317   3.523   3.919  0.2453 -0.3142  0.2139
 5825TP3      O29293   2.400   3.087   8.798  0.7282 -0.3019  0.0050
 5825TP3     H129294   2.386   3.092   8.703  2.2115  2.8657 -0.1686
 5825TP3     H229295   2.454   3.009   8.810  1.0596 -0.4095 -1.8142
 5826TP3      O29296   0.662   0.617   0.288 -0.0622 -0.0165 -0.1050
 5826TP3     H129297   0.585   0.672   0.300 -0.4541 -0.6424  0.2945
 5826TP3     H229298   0.704   0.651   0.209 -0.1001  1.0886  0.3320
 5827TP3      O29299   2.056   3.498   3.254 -0.0371 -0.2662 -0.1659
 5827TP3     H129300   2.028   3.427   3.197  2.3668 -1.0829 -0.4444
 5827TP3     H229301   2.121   3.458   3.313  0.4672  1.4135  0.4900
 5828TP3      O29302   0.547   3.609   0.895 -0.2710  0.1569 -0.2076
 5828TP3     H129303   0.460   3.615   0.856 -0.5817 -0.6232  0.3486
 5828TP3     H229304   0.601   3.667   0.841  0.4055 -3.9460 -4.6999
 5829TP3      O29305   1.495   3.594  10.305  0.3475 -0.0521 -0.5282
 5829TP3     H129306   1.421   3.534  10.319 -1.5705  1.7251 -2.2721
 5829TP3     H229307   1.483   3.627  10.216  1.9944  1.9865 -0.0899
 5830TP3      O29308   4.530   1.327   0.576  0.3202  0.0983  0.7050
 5830TP3     H129309   4.445   1.284   0.574  0.3831 -0.1341 -2.5867
 5830TP3     H229310   4.591   1.259   0.605 -0.0097 -1.2756 -1.5545
 5831TP3      O29311   2.775   0.093   9.833 -0.1960 -0.0804 -0.1182
 5831TP3     H129312   2.824   0.174   9.821 -0.1296  0.0232  0.7780
 5831TP3     H229313   2.799   0.063   9.921  1.2518 -2.0788 -1.1102
 5832TP3      O29314   3.040   0.207   0.505  0.4068 -0.4775 -0.8588
 5832TP3     H129315   2.948   0.231   0.491  0.0159  0.5651  2.4530
 5832TP3     H229316   3.089   0.280   0.469 -0.2010  0.0442 -0.6551
 5833TP3      O29317   1.152   0.971   1.821  0.0406 -0.1082 -0.3270
 5833TP3     H129318   1.084   1.035   1.841 -0.0426  0.0262 -1.0253
 5833TP3     H229319   1.207   1.014   1.755 -0.2681 -0.9135 -1.1288
 5834TP3      O29320   0.862   5.161   8.823 -0.0722 -0.1428 -0.5245
 5834TP3     H129321   0.894   5.184   8.736 -0.4459  1.8595 -0.1954
 5834TP3     H229322   0.771   5.192   8.823  0.3521  1.2389  1.0077
 5835TP3      O29323   0.307   2.279   3.458 -0.3321  0.0627 -0.1645
 5835TP3     H129324   0.255   2.332   3.398  1.0023 -0.3775 -1.7862
 5835TP3     H229325   0.252   2.204   3.478  0.2786 -1.3508 -3.3527
 5836TP3      O29326   0.391   2.801   2.487 -0.1935 -0.1472 -0.3347
 5836TP3     H129327   0.449   2.876   2.500 -1.4807  1.3670 -2.7125
 5836TP3     H229328   0.437   2.747   2.422 -0.1995 -0.3774 -0.1489
 5837TP3      O29329   2.052   3.173   1.489  0.0961  0.5048  0.0928
 5837TP3     H129330   2.059   3.184   1.394  2.1875 -2.7375 -0.2692
 5837TP3     H229331   1.964   3.138   1.503  0.3109 -0.4712 -0.8816
 5838TP3      O29332   2.822   0.158   1.143 -0.0017 -0.2484 -0.2666
 5838TP3     H129333   2.835   0.090   1.208  0.2427 -0.6081 -0.6878
 5838TP3     H229334   2.904   0.207   1.141  0.2864 -0.7359 -0.8678
 5839TP3      O29335   4.858   4.217   3.074 -0.0853  0.0411  0.4658
 5839TP3     H129336   4.911   4.291   3.044 -1.5075  0.6975 -0.5508
 5839TP3     H229337   4.795   4.256   3.134 -0.5666 -0.4234  0.2642
 5840TP3      O29338   0.647   3.880   3.566 -0.0115 -0.2223 -0.1793
 5840TP3     H129339   0.632   3.927   3.484 -0.7524  0.2298  0.2126
 5840TP3     H229340   0.561   3.872   3.605  0.4580  0.4257  1.0296
 5841TP3      O29341   4.149   4.706   3.832  0.1634 -0.1323 -0.1600
 5841TP3     H129342   4.054   4.695   3.840  0.4548 -2.0147  1.4408
 5841TP3     H229343   4.160   4.787   3.782 -2.2803  1.2939  1.4159
 5842TP3      O29344   1.526   2.373   7.411  0.1019  0.4776  0.0438
 5842TP3     H129345   1.594   2.441   7.413  0.7479 -0.1649  1.0790
 5842TP3     H229346   1.446   2.420   7.387  0.8053  1.3446 -0.6995
 5843TP3      O29347   5.001   3.478   2.147 -0.1608 -0.4231 -0.1129
 5843TP3     H129348   5.084   3.432   2.130 -0.9222 -1.4827 -1.1147
 5843TP3     H229349   4.934   3.418   2.116 -1.2506  0.9563 -0.5126
 5844TP3      O29350   1.306   3.485   3.745  0.5844  0.0938 -0.7267
 5844TP3     H129351   1.222   3.529   3.735  0.6287  0.4600  0.3894
 5844TP3     H229352   1.362   3.550   3.786  0.8535 -0.7723  0.2977
 5845TP3      O29353   3.806   3.044   9.536 -0.0846  0.6499 -0.5892
 5845TP3     H129354   3.777   2.967   9.486 -0.3086  1.6616 -2.0674
 5845TP3     H229355   3.881   3.078   9.487 -0.7789  2.1132 -0.6737
 5846TP3      O29356   0.180   4.492  10.006 -0.3190  0.2482 -0.2622
 5846TP3     H129357   0.137   4.499  10.091 -0.7316  4.3856 -0.6290
 5846TP3     H229358   0.112   4.516   9.942  0.6638 -0.2176 -1.5369
 5847TP3      O29359   1.147   4.280   3.180  0.4720 -0.3770  0.4918
 5847TP3     H129360   1.194   4.199   3.201  1.3375 -0.0697 -0.2073
 5847TP3     H229361   1.096   4.258   3.102  0.9846 -0.1520  0.0903
 5848TP3      O29362   2.225   4.833   3.670  0.2521  0.2169  0.3091
 5848TP3     H129363   2.211   4.747   3.631  1.4920  0.7317 -1.3742
 5848TP3     H229364   2.137   4.863   3.694 -0.2974 -1.0860 -0.0034
 5849TP3      O29365   1.474   4.761   0.731 -0.0961 -0.4273 -0.4797
 5849TP3     H129366   1.410   4.785   0.663 -0.5112  1.9711  0.6599
 5849TP3     H229367   1.438   4.681   0.770 -2.4051  0.7332 -0.0083
 5850TP3      O29368   1.843   0.122   0.094 -0.3459 -0.0849 -0.1976
 5850TP3     H129369   1.934   0.103   0.118  0.6450  1.6180 -2.2692
 5850TP3     H229370   1.796   0.125   0.178  1.3735 -1.4755  0.8851
 5851TP3      O29371   2.010   0.470   1.547 -0.1331 -0.3897  0.1658
 5851TP3     H129372   2.004   0.444   1.455 -1.9710  0.3452  0.0325
 5851TP3     H229373   2.086   0.423   1.581  1.0593 -0.0813 -1.9106
 5852TP3      O29374   3.870   2.990   1.730  0.5760 -0.2307 -0.4577
 5852TP3     H129375   3.858   3.085   1.732  1.2805 -0.1400  0.5365
 5852TP3     H229376   3.784   2.954   1.751  0.1989  0.1694 -1.2781
 5853TP3      O29377   4.645   0.455  10.238  0.3844 -0.3646  0.3352
 5853TP3     H129378   4.741   0.453  10.228  0.3868  0.7559 -0.0166
 5853TP3     H229379   4.626   0.544  10.268 -0.4724 -0.8905  1.4371
 5854TP3      O29380   2.915   2.226   2.272  0.2889 -0.2649 -0.0710
 5854TP3     H129381   2.829   2.184   2.261 -0.2312  0.5570  0.6962
 5854TP3     H229382   2.955   2.180   2.345  1.3592 -1.9510 -1.6361
 5855TP3      O29383   2.428   4.956   0.076 -0.0187  0.6965  0.1566
 5855TP3     H129384   2.446   5.038   0.030 -1.7517  0.9855 -0.0638
 5855TP3     H229385   2.341   4.968   0.114 -0.4392 -1.1321 -0.1136
 5856TP3      O29386   0.896   1.911   8.144  0.1384 -0.0737  0.1683
 5856TP3     H129387   0.946   1.983   8.105  0.2256 -0.9520 -1.4412
 5856TP3     H229388   0.938   1.895   8.228  2.0077 -0.1693 -0.7402
 5857TP3      O29389   3.999   4.275   3.037  0.4809 -0.1569 -0.4379
 5857TP3     H129390   3.924   4.334   3.028  0.1215 -0.5469 -0.0696
 5857TP3     H229391   4.030   4.288   3.126  1.0679  0.2481 -0.6970
 5858TP3      O29392   0.892   4.021   9.888  0.5986 -0.0531  0.0346
 5858TP3     H129393   0.850   4.091   9.838 -1.7573 -1.0888  0.4699
 5858TP3     H229394   0.888   3.945   9.830  0.9589 -0.4250  0.4916
 5859TP3      O29395   3.616   3.694   2.906 -0.1777  0.0377 -0.7830
 5859TP3     H129396   3.690   3.754   2.902  0.4779 -0.6693  0.3855
 5859TP3     H229397   3.563   3.716   2.829  0.7811  1.1414 -1.1439
 5860TP3      O29398   0.661   1.065   0.911  0.8650 -0.3828  0.0963
 5860TP3     H129399   0.726   1.060   0.982  2.9156  0.9663 -1.5379
 5860TP3     H229400   0.704   1.024   0.836  0.2512  1.3747 -1.2990
 5861TP3      O29401   0.185   1.322  10.062 -0.0538 -0.3006 -0.7289
 5861TP3     H129402   0.108   1.303  10.008  0.9704 -0.2608 -2.2822
 5861TP3     H229403   0.251   1.259  10.032  0.1086 -1.3153  1.5880
 5862TP3      O29404   0.707   4.976   0.265 -0.2185  0.1020  0.1661
 5862TP3     H129405   0.634   4.976   0.327 -0.5984  0.0701 -0.2820
 5862TP3     H229406   0.781   4.943   0.316 -0.6425 -0.3787  0.4785
 5863TP3      O29407   4.011   1.193   2.140 -0.2006  0.4313 -0.0889
 5863TP3     H129408   3.970   1.245   2.209  0.1439  1.9523 -0.9813
 5863TP3     H229409   4.080   1.144   2.185 -1.3254 -0.2493  0.9827
 5864TP3      O29410   3.521   1.941   7.809 -0.0600 -0.5687  0.6654
 5864TP3     H129411   3.564   1.879   7.750 -0.2211 -1.2195  1.2215
 5864TP3     H229412   3.549   1.915   7.897  1.0209  1.0305  0.8524
 5865TP3      O29413   3.024   4.027   3.678 -0.8430 -0.2604  0.2142
 5865TP3     H129414   2.965   4.072   3.618 -0.3311  1.1537  0.7333
 5865TP3     H229415   3.024   4.081   3.757 -0.0570 -1.0787  0.8019
 5866TP3      O29416   0.474   0.320   7.758 -0.2526  0.2899 -0.2044
 5866TP3     H129417   0.446   0.338   7.848  1.1814  1.8567 -0.0395
 5866TP3     H229418   0.569   0.311   7.764 -0.2018 -0.1524 -1.4838
 5867TP3      O29419   4.580   3.262   3.804 -0.1477  0.0302  0.3377
 5867TP3     H129420   4.516   3.272   3.734 -1.5445 -2.5126  1.1258
 5867TP3     H229421   4.664   3.262   3.760 -0.7429  1.7801 -0.9134
 5868TP3      O29422   2.937   1.807   3.104  0.0654 -0.0764 -0.7290
 5868TP3     H129423   3.014   1.826   3.157  0.7180 -1.0664 -1.2927
 5868TP3     H229424   2.892   1.891   3.096  1.1723  0.5512 -0.5333
 5869TP3      O29425   4.862   4.571   3.544 -0.4612  0.5353  0.3764
 5869TP3     H129426   4.943   4.621   3.537 -0.9830  1.2260 -1.2779
 5869TP3     H229427   4.797   4.624   3.497 -1.8714 -0.0234  1.6110
 5870TP3      O29428   0.711   4.746   7.146 -0.2102  0.1904 -0.0399
 5870TP3     H129429   0.670   4.676   7.095 -2.0353  1.2113 -0.0366
 5870TP3     H229430   0.665   4.825   7.120  1.3006  1.3033  0.5240
 5871TP3      O29431   1.916   2.559   0.362 -0.0019  0.0362  0.2216
 5871TP3     H129432   1.844   2.555   0.426  0.6375  1.1460  1.0425
 5871TP3     H229433   1.995   2.547   0.414  0.4143 -1.8468 -0.7680
 5872TP3      O29434   3.303   3.894   3.125 -0.2647  0.1018  0.0527
 5872TP3     H129435   3.329   3.802   3.125  0.9844  0.4388  0.7902
 5872TP3     H229436   3.224   3.897   3.178  0.7387 -0.2832  1.6112
 5873TP3      O29437   2.831   3.658  10.365  0.2330 -0.5488  0.0291
 5873TP3     H129438   2.783   3.575  10.360 -0.5843 -0.0121 -1.6761
 5873TP3     H229439   2.854   3.678  10.275  1.1651  0.6725  0.5111
 5874TP3      O29440   1.423   0.331   0.032 -0.3197 -0.2686 -0.2917
 5874TP3     H129441   1.483   0.371  -0.031 -1.0680  0.4613 -0.5560
 5874TP3     H229442   1.398   0.402   0.090 -0.2778 -0.7588  0.3358
 5875TP3      O29443   1.481   3.268   1.938  0.4830 -0.0310  0.5365
 5875TP3     H129444   1.441   3.342   1.892  2.3888 -0.2741 -1.6976
 5875TP3     H229445   1.547   3.308   1.995 -0.6947  0.1521  1.8200
 5876TP3      O29446   0.993   0.148   0.618  0.7234  0.3357 -0.0575
 5876TP3     H129447   1.059   0.124   0.683 -0.1404 -2.1544 -0.0003
 5876TP3     H229448   0.916   0.172   0.670  0.7878  0.7636 -0.1548
 5877TP3      O29449   1.206   1.591  10.368 -0.2343 -0.2441  0.0596
 5877TP3     H129450   1.127   1.623  10.326 -1.0210  2.3610  3.1892
 5877TP3     H229451   1.181   1.507  10.405 -0.3226 -1.2346 -2.0654
 5878TP3      O29452   3.525   3.388   9.372  0.0798 -0.3050 -0.1140
 5878TP3     H129453   3.519   3.366   9.279 -2.7608  0.1297 -0.1022
 5878TP3     H229454   3.557   3.308   9.414  2.6796 -0.1385 -1.5165
 5879TP3      O29455   2.176   0.642   9.227  0.1119  0.1934 -0.2421
 5879TP3     H129456   2.253   0.661   9.173  0.2605  0.0103 -0.0952
 5879TP3     H229457   2.133   0.568   9.182  0.3480 -0.0945 -0.0013
 5880TP3      O29458   0.077   3.637   1.256  0.1890 -0.3186 -0.7920
 5880TP3     H129459   0.021   3.711   1.232 -0.1843 -0.4960 -0.4682
 5880TP3     H229460   0.114   3.662   1.341 -0.6328 -0.8866 -0.2565
 5881TP3      O29461   3.250   3.478   3.341 -0.1028  0.3873 -0.0986
 5881TP3     H129462   3.331   3.493   3.291 -0.2644  0.2403 -0.4056
 5881TP3     H229463   3.212   3.565   3.352  0.8705  0.6665  1.3754
 5882TP3      O29464   0.049   2.835   2.210 -0.3330 -0.0496 -0.0312
 5882TP3     H129465   0.062   2.847   2.305 -3.2807  0.2315  0.4184
 5882TP3     H229466   0.104   2.902   2.170  0.2678  0.4324  1.5212
 5883TP3      O29467   2.779   1.760   9.544 -0.4205  0.0789 -0.4719
 5883TP3     H129468   2.753   1.847   9.574  1.5259  0.0092  1.7763
 5883TP3     H229469   2.747   1.701   9.612  2.4478 -0.3334  0.6846
   5.22647   5.22647  10.42159
