Title
29469
    1NLYS     N    1   4.204   3.922   3.789  0.0457 -0.2452  0.0567
    1NLYS    H1    2   4.119   3.900   3.840  1.3875 -0.5897  2.2771
    1NLYS    H2    3   4.172   3.935   3.694  1.2295  3.5698  0.0031
    1NLYS    H3    4   4.239   4.012   3.820  0.4993 -0.5100  0.3242
    1NLYS    CA    5   4.302   3.810   3.798  0.5741 -0.5984  0.2671
    1NLYS    HA    6   4.255   3.719   3.761 -0.8500  0.5683 -0.9340
    1NLYS    CB    7   4.421   3.829   3.709 -0.6555 -0.1927  0.0734
    1NLYS   HB2    8   4.388   3.823   3.605 -0.7167 -2.6541  0.1909
    1NLYS   HB3    9   4.459   3.930   3.727 -1.5459 -0.1008  1.6091
    1NLYS    CG   10   4.538   3.734   3.723 -0.2407  0.9668  0.2087
    1NLYS   HG2   11   4.613   3.764   3.796  1.0040  0.7500 -0.9353
    1NLYS   HG3   12   4.509   3.633   3.753  3.0956 -0.4202 -0.7080
    1NLYS    CD   13   4.625   3.716   3.598  0.3298 -1.0061 -0.4934
    1NLYS   HD2   14   4.568   3.674   3.515 -1.3747  1.9637 -0.9687
    1NLYS   HD3   15   4.658   3.817   3.570  2.3592 -1.2356  0.8525
    1NLYS    CE   16   4.758   3.638   3.628 -0.2798 -0.0425  0.1477
    1NLYS   HE2   17   4.830   3.693   3.688 -1.1955 -1.4052  2.6826
    1NLYS   HE3   18   4.732   3.560   3.700  1.5887 -0.5459  0.3247
    1NLYS    NZ   19   4.818   3.582   3.503  0.1120 -0.5889  0.2646
    1NLYS   HZ1   20   4.761   3.512   3.458  0.5860 -0.7050 -0.1562
    1NLYS   HZ2   21   4.834   3.658   3.438 -0.7064 -1.4649 -0.9999
    1NLYS   HZ3   22   4.907   3.538   3.519 -0.6429 -1.5440  2.1442
    1NLYS     C   23   4.341   3.790   3.944 -0.4115 -0.1804 -0.6008
    1NLYS     O   24   4.372   3.884   4.017  0.3917 -0.1778  0.7344
    2GLY      N   25   4.362   3.667   3.988 -0.4670 -0.0906  0.6261
    2GLY      H   26   4.337   3.588   3.931  0.2928  0.7270 -0.9073
    2GLY     CA   27   4.406   3.639   4.134 -0.8574  0.4498 -0.5835
    2GLY    HA2   28   4.378   3.723   4.198  0.2124  0.7680 -0.5201
    2GLY    HA3   29   4.366   3.544   4.170  0.6943  0.0024  0.0214
    2GLY      C   30   4.553   3.630   4.138 -0.4731  0.1513 -0.4502
    2GLY      O   31   4.622   3.712   4.079 -0.3921 -0.0163  0.8626
    3PRO      N   32   4.616   3.544   4.225 -0.2325 -0.2615  0.3180
    3PRO     CD   33   4.552   3.440   4.300 -0.1449  0.1530  0.7528
    3PRO    HD2   34   4.526   3.354   4.239 -1.3330  1.4516 -0.6481
    3PRO    HD3   35   4.464   3.473   4.355 -1.7705 -1.1999 -0.9178
    3PRO     CG   36   4.659   3.386   4.397 -0.1047  1.0797  0.4807
    3PRO    HG2   37   4.641   3.283   4.426  0.5541  0.3608 -1.5191
    3PRO    HG3   38   4.669   3.452   4.483  0.5726  1.7136 -0.0727
    3PRO     CB   39   4.781   3.399   4.322  0.4360 -0.2533 -0.0333
    3PRO    HB2   40   4.794   3.316   4.253  0.2749  1.2285 -1.9251
    3PRO    HB3   41   4.868   3.402   4.388  2.0924  0.1836 -2.1373
    3PRO     CA   42   4.767   3.526   4.238  0.0223  0.6852  0.4163
    3PRO     HA   43   4.812   3.609   4.292  1.5640  0.1512 -0.0089
    3PRO      C   44   4.841   3.509   4.107  0.0667  0.5060  0.1145
    3PRO      O   45   4.795   3.422   4.030 -0.3850  0.1711 -0.1142
    4PRO      N   46   4.953   3.571   4.073 -0.7965  0.0645  0.3304
    4PRO     CD   47   5.002   3.697   4.138  0.5149 -0.5816  0.6258
    4PRO    HD2   48   5.035   3.673   4.239 -0.8594 -1.4538  0.8933
    4PRO    HD3   49   4.933   3.782   4.135  1.6105  0.3088 -0.0156
    4PRO     CG   50   5.127   3.731   4.058  0.4392  0.1940 -0.2938
    4PRO    HG2   51   5.196   3.784   4.124  1.3704 -0.5359 -0.6618
    4PRO    HG3   52   5.094   3.796   3.977 -0.5921 -0.5490 -0.4989
    4PRO     CB   53   5.176   3.600   3.994  0.5820 -0.5865  0.4824
    4PRO    HB2   54   5.221   3.533   4.068  0.4173 -1.7317 -0.4360
    4PRO    HB3   55   5.234   3.621   3.905 -0.7531 -1.2641 -0.5744
    4PRO     CA   56   5.040   3.542   3.960  0.4049  0.2579 -0.5494
    4PRO     HA   57   4.995   3.593   3.875 -1.1058  1.5051  0.9034
    4PRO      C   58   5.058   3.398   3.924 -0.0780 -0.6841  0.0738
    4PRO      O   59   5.087   3.318   4.013  0.2126  0.4739  0.3964
    5ARG      N   60   5.039   3.362   3.798  0.3032 -0.1527 -0.0148
    5ARG      H   61   5.011   3.434   3.732  2.4527 -0.2693 -1.1493
    5ARG     CA   62   5.017   3.224   3.753 -0.1441  0.0384 -0.4295
    5ARG     HA   63   5.109   3.168   3.769  0.3978  0.9343 -0.3500
    5ARG     CB   64   4.897   3.159   3.829  0.4787  0.6393 -0.4688
    5ARG    HB2   65   4.935   3.146   3.930 -1.6816  0.0304  0.3243
    5ARG    HB3   66   4.809   3.223   3.820  0.8339  1.4089  1.1868
    5ARG     CG   67   4.848   3.025   3.772 -0.5235 -0.3630 -0.2602
    5ARG    HG2   68   4.822   3.052   3.670  0.6515 -1.6668 -0.9362
    5ARG    HG3   69   4.936   2.962   3.771  0.9012  1.3950  2.1064
    5ARG     CD   70   4.736   2.963   3.843 -0.7233 -0.1308 -0.1662
    5ARG    HD2   71   4.774   2.930   3.939 -0.4002  0.6578 -0.0137
    5ARG    HD3   72   4.652   3.032   3.856  0.1140  0.9168 -0.1535
    5ARG     NE   73   4.692   2.831   3.777 -0.3139 -0.5934 -0.2218
    5ARG     HE   74   4.751   2.798   3.702 -0.4110 -0.3670 -0.3970
    5ARG     CZ   75   4.584   2.762   3.786  0.2502  0.2542  0.3216
    5ARG    NH1   76   4.477   2.783   3.856 -0.3306  0.1173 -0.6999
    5ARG   HH11   77   4.462   2.870   3.906 -1.3894  0.0588 -0.8787
    5ARG   HH12   78   4.399   2.721   3.837  0.6940 -1.7282  0.7465
    5ARG    NH2   79   4.563   2.665   3.701  0.0713 -0.4044  0.0707
    5ARG   HH21   80   4.622   2.622   3.632 -0.9247 -1.8979  0.0985
    5ARG   HH22   81   4.476   2.616   3.714 -0.4370 -0.3663 -2.6077
    5ARG      C   82   4.993   3.230   3.600 -0.0653  0.1561 -0.1749
    5ARG      O   83   4.925   3.322   3.554  0.3133  0.1886 -0.2496
    6CARG     N   84   5.046   3.137   3.521  0.7977 -0.3443 -0.0042
    6CARG     H   85   5.111   3.079   3.573 -0.1279 -0.9142  0.5585
    6CARG    CA   86   5.024   3.126   3.376  0.0644 -0.3379 -0.8460
    6CARG    HA   87   4.923   3.161   3.358 -0.9645 -1.2342  2.3279
    6CARG    CB   88   5.124   3.207   3.292 -0.5112 -0.5907  0.3799
    6CARG   HB2   89   5.221   3.158   3.286 -0.8434 -1.5687  2.1793
    6CARG   HB3   90   5.086   3.200   3.190 -0.1404 -0.4391  0.2331
    6CARG    CG   91   5.146   3.359   3.328  0.4127 -0.1165 -0.1064
    6CARG   HG2   92   5.054   3.416   3.318  0.5602  0.3614  1.0714
    6CARG   HG3   93   5.192   3.372   3.426 -0.8456  0.2739  0.4476
    6CARG    CD   94   5.251   3.403   3.232  0.5376 -0.0622 -0.6610
    6CARG   HD2   95   5.345   3.350   3.242  1.1562  1.2041  0.5050
    6CARG   HD3   96   5.211   3.397   3.131  2.9970  1.7461 -1.8472
    6CARG    NE   97   5.264   3.552   3.259 -0.0666  0.9165  0.4106
    6CARG    HE   98   5.176   3.590   3.290 -1.3235 -2.5910  1.5711
    6CARG    CZ   99   5.371   3.626   3.239 -0.5424 -0.9404 -0.2799
    6CARG   NH1  100   5.484   3.591   3.185 -0.3677  0.7159  0.3685
    6CARG  HH11  101   5.495   3.503   3.136 -0.3372  1.2453 -0.5917
    6CARG  HH12  102   5.553   3.663   3.170 -0.1686  0.8954  1.9802
    6CARG   NH2  103   5.372   3.747   3.277 -0.1117  0.0003 -0.0722
    6CARG  HH21  104   5.294   3.762   3.339  1.4278 -1.3394  2.3957
    6CARG  HH22  105   5.461   3.795   3.287 -0.2394  0.5271 -1.2858
    6CARG     C  106   5.020   2.982   3.336 -0.1485 -0.1089 -0.0968
    6CARG     O  107   5.120   2.907   3.356  0.3270 -0.0225 -0.6242
    6CARG   OXT  108   4.921   2.944   3.275 -0.9148  0.1766  0.3080
    1PA    C116  109   0.531   1.889   5.081  0.2182 -0.3280 -1.0579
    1PA    H16R  110   0.617   1.955   5.086  0.8355 -1.0148 -2.0388
    1PA    H16S  111   0.454   1.936   5.019  0.5435  0.9594 -0.5071
    1PA    H16T  112   0.546   1.788   5.040 -0.0869 -0.4206 -0.9459
    1PA    C115  113   0.473   1.878   5.220  0.2264 -0.3239  0.0143
    1PA    H15R  114   0.452   1.775   5.251  3.1200 -1.0159 -0.0636
    1PA    H15S  115   0.550   1.906   5.292  0.2967 -0.3957 -0.0334
    1PA    C114  116   0.344   1.968   5.227 -0.1218  0.5176 -0.6970
    1PA    H14R  117   0.363   2.076   5.222  0.4806  0.3437 -2.7090
    1PA    H14S  118   0.265   1.945   5.156 -0.2805  2.6472 -1.2855
    1PA    C113  119   0.283   1.942   5.368  0.1305 -0.6327 -0.8797
    1PA    H13R  120   0.234   1.844   5.369 -1.3568  0.0080  2.3650
    1PA    H13S  121   0.361   1.951   5.444 -0.5937 -3.5713  0.3512
    1PA    C112  122   0.170   2.040   5.410 -0.4189  0.5995 -0.0175
    1PA    H12R  123   0.204   2.142   5.431  1.2084 -0.0721  0.8244
    1PA    H12S  124   0.102   2.034   5.325 -2.2696 -0.6366  1.4764
    1PA    C111  125   0.074   2.000   5.524  0.1274 -0.3338 -0.8287
    1PA    H11R  126  -0.023   2.050   5.517  0.4730  0.2036 -1.9218
    1PA    H11S  127   0.063   1.892   5.538 -1.1336  0.0219  1.3355
    1PA    C110  128   0.143   2.044   5.654 -0.2564 -0.5271  0.0377
    1PA    H10R  129   0.249   2.019   5.658 -0.2404 -0.4430  0.1480
    1PA    H10S  130   0.137   2.153   5.653 -1.9867 -0.5457  1.7382
    1PA     C19  131   0.076   2.006   5.793 -0.6727  1.0116  0.3503
    1PA     H9R  132  -0.032   2.023   5.786 -0.6834  0.4564 -1.0103
    1PA     H9S  133   0.085   1.898   5.812 -2.3239  0.6225 -0.8638
    1PA     C18  134   0.140   2.085   5.907 -0.3909  0.8231  0.3747
    1PA     H8R  135   0.247   2.065   5.898 -0.3534  0.7064  1.0288
    1PA     H8S  136   0.117   2.190   5.892  1.4783  1.1632 -0.3157
    1PA     C17  137   0.095   2.040   6.039  0.1641  0.6837  0.1100
    1PA     H7R  138  -0.013   2.023   6.041  0.1596  0.7177  0.1461
    1PA     H7S  139   0.137   1.941   6.059  1.3546  1.2293  0.4423
    1PA     C16  140   0.134   2.133   6.151  0.0006 -0.3229 -0.8978
    1PA     H6R  141   0.068   2.220   6.142 -0.9154 -0.6745  1.6733
    1PA     H6S  142   0.121   2.092   6.252 -0.5106 -0.8477 -1.1712
    1PA     C15  143   0.278   2.181   6.141 -0.2709  0.5038 -0.5054
    1PA     H5R  144   0.350   2.099   6.142  0.1659  0.8214  2.1515
    1PA     H5S  145   0.286   2.239   6.049 -0.7568 -0.1816 -0.9927
    1PA     C14  146   0.327   2.270   6.258  0.4299 -0.3786 -0.3121
    1PA     H4R  147   0.430   2.305   6.254  0.0281  1.1136  1.1850
    1PA     H4S  148   0.266   2.360   6.249 -1.0446 -1.1321  1.4649
    1PA     C13  149   0.301   2.203   6.396 -0.6407  0.7325 -0.0462
    1PA     H3R  150   0.194   2.207   6.419 -0.5853 -2.4368  1.2559
    1PA     H3S  151   0.332   2.098   6.396 -2.5786  0.1124  0.1361
    1PA     C12  152   0.379   2.261   6.513  0.4810  1.5216  0.2669
    1PA     H2R  153   0.486   2.243   6.501  0.3216 -0.5869  1.4670
    1PA     H2S  154   0.358   2.368   6.516 -0.1247  1.4477 -0.6888
    1PC     C11  155   0.347   2.196   6.646  0.1173 -0.5115  0.4734
    1PC     O12  156   0.320   2.254   6.747  0.8230 -0.5988 -0.6970
    1PC     O11  157   0.370   2.065   6.647  1.2799  0.5784  0.1258
    1PC      C1  158   0.383   1.989   6.769 -0.4076 -0.1671  0.0630
    1PC      HR  159   0.449   1.905   6.749 -1.3022 -1.5899  2.6068
    1PC      HS  160   0.443   2.050   6.836 -0.0745  0.1302 -0.4943
    1PC      C2  161   0.250   1.957   6.849  0.1570  0.4869  0.9540
    1PC      HX  162   0.195   2.045   6.883 -0.1205 -0.1432  2.2080
    1PC      C3  163   0.285   1.883   6.985 -0.7197 -0.4572  0.6353
    1PC      HA  164   0.341   1.795   6.951 -1.2841 -0.5797  0.0013
    1PC      HB  165   0.348   1.940   7.053 -0.3813 -1.9845  1.6426
    1PC     O31  166   0.168   1.837   7.052  0.1113 -0.0168 -0.2653
    1PC     P31  167   0.074   1.933   7.137  0.5512 -0.1879 -0.0625
    1PC     O32  168  -0.017   2.007   7.030  0.2103  0.1239  0.9227
    1PC     C31  169  -0.123   1.942   6.959  0.4450 -0.2836  0.0140
    1PC     H1A  170  -0.153   2.009   6.878 -0.1235  0.6135  0.9553
    1PC     H1B  171  -0.089   1.846   6.919 -1.4987 -0.0275 -2.5375
    1PC     C32  172  -0.242   1.922   7.056  0.2774 -0.1636  0.5637
    1PC     H2A  173  -0.304   1.844   7.012 -0.8952  1.3103 -0.5133
    1PC     H2B  174  -0.193   1.893   7.149  0.0702 -1.5355  0.2699
    1PC     N31  175  -0.329   2.042   7.085  0.1610  0.1078 -0.2381
    1PC     C33  176  -0.253   2.169   7.117  0.5012 -0.0436 -0.8785
    1PC     H3A  177  -0.329   2.245   7.136 -0.0911 -1.0571  1.0264
    1PC     H3B  178  -0.202   2.161   7.212 -0.1551  4.1888  0.0423
    1PC     H3C  179  -0.198   2.198   7.027 -0.6518  0.4115 -1.4620
    1PC     C34  180  -0.439   2.061   6.988  0.0678 -0.3424  0.9345
    1PC     H4A  181  -0.508   2.138   7.025 -0.4631  0.1509 -0.9518
    1PC     H4B  182  -0.399   2.084   6.889  4.5101 -0.7333  2.4161
    1PC     H4C  183  -0.502   1.972   6.988 -0.4764 -0.0981  4.5199
    1PC     C35  184  -0.404   2.005   7.206 -0.1628  0.5163  0.6215
    1PC     H5A  185  -0.461   2.095   7.231 -1.7701 -0.4488  0.6145
    1PC     H5B  186  -0.328   1.985   7.282  1.5729 -0.5375 -1.2866
    1PC     H5C  187  -0.462   1.913   7.194 -1.7726  1.7627 -2.2004
    1PC     O33  188   0.002   1.845   7.233 -0.3876  0.3977  0.5139
    1PC     O34  189   0.167   2.034   7.190 -0.4939 -0.5351 -0.8664
    1PC     O21  190   0.158   1.877   6.777 -0.4213  0.0531  0.0210
    1PC     C21  191   0.068   1.936   6.696  0.3530 -0.2489  0.1183
    1PC     O22  192   0.066   2.057   6.682 -0.2901 -0.9755 -0.2540
    1OL     C12  193  -0.025   1.841   6.626  0.7327  0.3877  0.1530
    1OL     H2R  194  -0.127   1.863   6.661  1.0197  0.7206  0.8108
    1OL     H2S  195  -0.004   1.739   6.659 -0.1932 -0.1963 -0.9958
    1OL     C13  196  -0.026   1.852   6.480  0.0175  0.4852  1.0367
    1OL     H3R  197   0.066   1.806   6.443 -0.1350  0.9651  0.0296
    1OL     H3S  198  -0.039   1.958   6.453 -1.8935  0.5540  2.0795
    1OL     C14  199  -0.134   1.764   6.415  0.4591  0.5958  0.0382
    1OL     H4R  200  -0.233   1.792   6.451  0.7318  2.1587 -0.3835
    1OL     H4S  201  -0.126   1.660   6.449 -1.1096  0.8969  1.4441
    1OL     C15  202  -0.130   1.774   6.262 -0.2440 -0.2204  0.6890
    1OL     H5R  203  -0.032   1.754   6.218 -1.1957 -0.2175 -1.5398
    1OL     H5S  204  -0.166   1.874   6.238 -0.9160 -0.6653 -0.2064
    1OL     C16  205  -0.216   1.670   6.189 -0.1218  0.4873  0.3752
    1OL     H6R  206  -0.302   1.650   6.253 -0.0657 -4.0029 -0.6296
    1OL     H6S  207  -0.156   1.578   6.188 -0.7876  0.0440  0.6355
    1OL     C17  208  -0.254   1.692   6.041 -0.0893 -0.0950 -0.0705
    1OL     H7R  209  -0.301   1.790   6.038 -1.0251 -0.5161  0.4831
    1OL     H7S  210  -0.334   1.624   6.013 -2.3447  2.2040  0.3767
    1OL     C18  211  -0.126   1.686   5.950  0.7780  0.2952 -0.8922
    1OL     H8R  212  -0.039   1.739   5.989  0.2710  0.3107  0.2655
    1OL     H8S  213  -0.153   1.729   5.853  0.4827 -2.7911 -2.3176
    1OL     C19  214  -0.091   1.547   5.928 -0.3111  0.0698  0.0748
    1OL     H9R  215  -0.179   1.484   5.937  0.3936 -1.0560 -0.6369
    1OL    C110  216   0.029   1.492   5.898 -0.5136 -0.3637  0.1521
    1OL    H10R  217   0.036   1.386   5.875  0.6597 -0.5498  1.2474
    1OL    C111  218   0.153   1.569   5.878  0.0174 -0.0797  0.3279
    1OL    H11R  219   0.235   1.518   5.929  0.1977  0.9977  1.1604
    1OL    H11S  220   0.158   1.665   5.929  1.4152 -0.7682  1.5659
    1OL    C112  221   0.180   1.596   5.729  0.0351  0.3269 -0.2193
    1OL    H12R  222   0.281   1.635   5.715 -0.0024  0.0769 -1.2801
    1OL    H12S  223   0.112   1.669   5.686  0.5180  0.7958 -0.2068
    1OL    C113  224   0.171   1.467   5.643 -0.1855 -0.4752  0.2239
    1OL    H13R  225   0.067   1.438   5.633 -0.9159  1.6481  1.0812
    1OL    H13S  226   0.214   1.381   5.694  1.4155  0.3916  0.4307
    1OL    C114  227   0.244   1.466   5.508  0.2156  1.0138 -0.2808
    1OL    H14R  228   0.349   1.494   5.514  0.4960 -0.2330  1.6389
    1OL    H14S  229   0.189   1.538   5.446 -2.4407 -0.8214 -0.2163
    1OL    C115  230   0.239   1.335   5.433  0.8512 -0.4105  0.2029
    1OL    H15R  231   0.151   1.324   5.370  1.0150 -2.9033  0.3003
    1OL    H15S  232   0.230   1.254   5.506  0.6957 -0.5428  0.0362
    1OL    C116  233   0.368   1.307   5.357 -0.1299  0.8562  0.3787
    1OL    H16R  234   0.359   1.200   5.337  1.2437  0.9008 -0.6272
    1OL    H16S  235   0.451   1.321   5.426 -1.3201  1.9665  1.6576
    1OL    C117  236   0.379   1.365   5.215 -0.1124  0.0247 -0.5624
    1OL    H17R  237   0.285   1.343   5.163 -0.3390  1.2121 -0.6795
    1OL    H17S  238   0.460   1.314   5.162 -0.5663 -2.2386  0.8087
    1OL    C118  239   0.393   1.518   5.208 -0.3382 -0.2324  0.4051
    1OL    H18R  240   0.307   1.573   5.246 -0.3919  0.5145 -0.7458
    1OL    H18S  241   0.409   1.545   5.103 -1.7863  1.2580  0.5261
    1OL    H18T  242   0.470   1.542   5.282 -2.1578  2.6962  1.5336
    1PA    C116  243   3.604   2.801   4.995  0.9315  0.3958 -0.1447
    1PA    H16R  244   3.547   2.874   4.936 -1.7624 -0.6825  0.9485
    1PA    H16S  245   3.602   2.708   4.939 -0.4380  0.8739 -0.9486
    1PA    H16T  246   3.706   2.840   4.992  0.7904  0.7118 -1.2367
    1PA    C115  247   3.563   2.793   5.143  0.2167 -0.0686  0.5206
    1PA    H15R  248   3.556   2.894   5.184  0.1387 -0.0285  0.4082
    1PA    H15S  249   3.470   2.738   5.160 -1.1835  2.8695  3.4490
    1PA    C114  250   3.676   2.721   5.218 -0.5856  0.4226 -0.9237
    1PA    H14R  251   3.676   2.615   5.190  0.1106  0.4118 -0.8939
    1PA    H14S  252   3.773   2.765   5.198 -0.3323  0.6139  0.5883
    1PA    C113  253   3.655   2.738   5.371 -0.1775 -0.1429 -0.3542
    1PA    H13R  254   3.660   2.841   5.405 -0.2999 -0.4292  0.5752
    1PA    H13S  255   3.551   2.709   5.388 -1.2217  2.4887 -1.6394
    1PA    C112  256   3.755   2.653   5.457 -0.8100  1.0328 -0.2388
    1PA    H12R  257   3.720   2.549   5.452 -0.9295  0.8925  2.2239
    1PA    H12S  258   3.856   2.653   5.415  0.1010 -0.6744  1.6999
    1PA    C111  259   3.740   2.694   5.603 -0.1164 -0.2261 -1.0011
    1PA    H11R  260   3.774   2.798   5.611  0.9121 -0.5677 -0.7655
    1PA    H11S  261   3.632   2.692   5.620  0.0245  2.8990  1.3007
    1PA    C110  262   3.823   2.607   5.698  0.9808  0.0304  0.2931
    1PA    H10R  263   3.783   2.505   5.694 -3.0975  1.4417  0.3660
    1PA    H10S  264   3.930   2.606   5.675  0.8097  0.0717 -0.5361
    1PA     C19  265   3.798   2.646   5.846  0.6030  0.1983 -0.3415
    1PA     H9R  266   3.810   2.754   5.852  1.2574  0.0565  1.1140
    1PA     H9S  267   3.700   2.612   5.881  0.6036 -0.9685 -1.3932
    1PA     C18  268   3.908   2.577   5.927  0.0986  0.0867 -0.3144
    1PA     H8R  269   3.887   2.470   5.927  0.0677  0.0354 -3.2158
    1PA     H8S  270   4.006   2.607   5.889 -0.8388  1.8521 -1.4439
    1PA     C17  271   3.910   2.621   6.072  0.1231  0.1496 -0.1409
    1PA     H7R  272   3.930   2.728   6.072 -2.5052  0.7146  0.3211
    1PA     H7S  273   3.814   2.605   6.122  0.6051 -1.8092  0.2541
    1PA     C16  274   4.016   2.533   6.143  0.2599  0.1009  0.6769
    1PA     H6R  275   3.981   2.430   6.153  0.8676  0.0210  2.5686
    1PA     H6S  276   4.113   2.546   6.095 -0.8522 -0.6465 -1.9436
    1PA     C15  277   4.025   2.574   6.293  0.2164  0.1262  0.0778
    1PA     H5R  278   4.117   2.530   6.334 -0.2638 -1.5810 -0.5812
    1PA     H5S  279   4.030   2.683   6.301  0.5179  0.0933  0.3638
    1PA     C14  280   3.907   2.514   6.375 -0.1956  0.0563  0.4432
    1PA     H4R  281   3.818   2.533   6.314 -0.6796 -1.5093  0.6073
    1PA     H4S  282   3.923   2.405   6.376  1.4713  0.2075 -2.0604
    1PA     C13  283   3.891   2.558   6.520 -0.2509 -0.8644  0.2203
    1PA     H3R  284   3.826   2.488   6.572 -1.2052  0.3428  0.7250
    1PA     H3S  285   3.984   2.533   6.570  1.4663  2.0718 -1.2242
    1PA     C12  286   3.841   2.701   6.537 -0.5715 -0.6212  0.5461
    1PA     H2R  287   3.928   2.766   6.523 -0.2891 -1.1482 -0.1741
    1PA     H2S  288   3.764   2.723   6.462  1.0483  2.9642 -0.2686
    1PC     C11  289   3.797   2.708   6.680 -0.6188 -0.3825  0.0793
    1PC     O12  290   3.870   2.689   6.776 -1.2085 -0.0775  0.4060
    1PC     O11  291   3.674   2.761   6.687  0.1017  0.1389 -0.3554
    1PC      C1  292   3.617   2.784   6.820  0.1125 -0.4226  0.3451
    1PC      HR  293   3.512   2.753   6.829 -0.6040  1.4922 -0.6936
    1PC      HS  294   3.678   2.740   6.900  0.6309 -0.3831 -0.0267
    1PC      C2  295   3.624   2.935   6.854  0.2867 -0.1750 -0.0199
    1PC      HX  296   3.728   2.963   6.834  0.2047  0.1908  0.0456
    1PC      C3  297   3.601   2.966   7.001  0.6631  0.4207  0.2734
    1PC      HA  298   3.637   3.063   7.037  0.5799 -0.0415  1.6601
    1PC      HB  299   3.494   2.969   7.021  0.2009  0.3446 -1.9502
    1PC     O31  300   3.675   2.866   7.086 -0.1210 -0.9025 -0.2206
    1PC     P31  301   3.829   2.895   7.120 -0.0573 -0.3394 -0.0713
    1PC     O32  302   3.818   2.950   7.276  0.3419  0.2610  0.0534
    1PC     C31  303   3.864   3.082   7.311  0.3735 -0.2509  0.4105
    1PC     H1A  304   3.932   3.135   7.243  0.1502 -1.1150 -0.5031
    1PC     H1B  305   3.771   3.133   7.334  0.2260 -0.5930  0.5781
    1PC     C32  306   3.938   3.065   7.443  0.1325 -0.0218  0.3485
    1PC     H2A  307   3.864   3.010   7.501  0.5662 -1.5233 -0.4739
    1PC     H2B  308   4.028   3.004   7.432  2.2720  2.9876 -0.0576
    1PC     N31  309   3.969   3.192   7.515  0.4634 -0.5670  0.8912
    1PC     C33  310   4.072   3.284   7.454 -0.1622  0.3162  0.2113
    1PC     H3A  311   4.084   3.374   7.515  2.0664  0.3097 -0.1509
    1PC     H3B  312   4.168   3.234   7.450 -1.5508 -2.5481  0.3876
    1PC     H3C  313   4.041   3.307   7.352  1.7343 -0.3696 -0.5618
    1PC     C34  314   3.837   3.259   7.555  0.2964 -0.3827 -0.3331
    1PC     H4A  315   3.784   3.281   7.462 -0.5974 -1.6255 -0.1422
    1PC     H4B  316   3.788   3.198   7.631 -1.2833  2.5648  1.2240
    1PC     H4C  317   3.864   3.358   7.592 -1.7184  0.1078 -0.0289
    1PC     C35  318   4.019   3.143   7.644  0.5806  0.4377  0.5850
    1PC     H5A  319   3.955   3.062   7.679  0.3397  0.3959  0.0628
    1PC     H5B  320   4.024   3.224   7.717  1.7670 -0.2346  1.2778
    1PC     H5C  321   4.120   3.104   7.634 -0.4334 -2.0258 -1.1901
    1PC     O33  322   3.898   2.762   7.126 -0.7080 -0.8229  0.1241
    1PC     O34  323   3.877   3.010   7.036 -0.2673 -0.2316 -0.1173
    1PC     O21  324   3.530   3.017   6.775 -0.1333 -0.0755  0.2363
    1PC     C21  325   3.575   3.128   6.709  0.6528 -0.1930  0.3082
    1PC     O22  326   3.685   3.174   6.729  0.3487  0.3267  0.1691
    1OL     C12  327   3.476   3.173   6.599  0.2034  0.5662 -0.5124
    1OL     H2R  328   3.513   3.271   6.567 -1.4115  2.3606  2.6593
    1OL     H2S  329   3.377   3.182   6.643 -0.3357  1.2729 -1.8286
    1OL     C13  330   3.476   3.069   6.481 -1.0213 -0.3326  1.1206
    1OL     H3R  331   3.436   2.977   6.525  1.0075 -0.9295  1.8358
    1OL     H3S  332   3.579   3.050   6.450 -1.0495  0.5047  0.4771
    1OL     C14  333   3.396   3.120   6.357  0.0435 -0.2502  0.1807
    1OL     H4R  334   3.447   3.209   6.319  0.6018 -0.9240 -0.6831
    1OL     H4S  335   3.298   3.151   6.393 -0.1834 -0.7296 -0.0206
    1OL     C15  336   3.381   3.040   6.224 -0.5789 -0.5008 -0.5565
    1OL     H5R  337   3.312   2.957   6.237  0.5394 -1.3175  0.2767
    1OL     H5S  338   3.477   3.000   6.192 -1.9645 -3.7586 -1.0636
    1OL     C16  339   3.342   3.129   6.105 -0.0375  0.0280  0.4535
    1OL     H6R  340   3.414   3.212   6.102 -2.9197  2.7137 -0.0563
    1OL     H6S  341   3.244   3.174   6.124 -0.1316  0.6467 -1.3336
    1OL     C17  342   3.321   3.043   5.975  0.3993  0.0818  0.0744
    1OL     H7R  343   3.236   2.975   5.985  0.9766 -0.6299  0.2385
    1OL     H7S  344   3.403   2.975   5.951 -1.0618 -1.4732 -0.8329
    1OL     C18  345   3.316   3.132   5.853 -0.9426  0.1690 -0.4793
    1OL     H8R  346   3.225   3.192   5.842  0.5995  3.0414  1.2437
    1OL     H8S  347   3.323   3.063   5.769 -1.3900 -0.5374  0.0489
    1OL     C19  348   3.426   3.233   5.830  0.1792  0.1885 -0.5532
    1OL     H9R  349   3.528   3.211   5.862  0.3204 -0.5083 -1.4398
    1OL    C110  350   3.414   3.340   5.749 -0.2861 -0.4184 -0.8676
    1OL    H10R  351   3.498   3.407   5.734 -1.2434  0.2715 -3.8361
    1OL    C111  352   3.289   3.391   5.680 -0.8792 -0.1812 -0.3247
    1OL    H11R  353   3.233   3.453   5.750 -0.8144 -0.2828 -0.1829
    1OL    H11S  354   3.224   3.307   5.656 -0.2171 -1.0106  0.7007
    1OL    C112  355   3.305   3.468   5.546 -0.4674  0.0989  0.2384
    1OL    H12R  356   3.336   3.395   5.470  0.3487 -0.7504  1.3594
    1OL    H12S  357   3.389   3.536   5.559 -0.8955  0.7104 -0.1141
    1OL    C113  358   3.174   3.525   5.510  0.2020 -0.2498  0.9608
    1OL    H13R  359   3.185   3.609   5.442 -1.8709 -0.9529 -0.3315
    1OL    H13S  360   3.123   3.568   5.597  0.6989 -0.1570  1.2077
    1OL    C114  361   3.077   3.426   5.454 -0.2827 -0.1645  0.2663
    1OL    H14R  362   3.077   3.342   5.524  2.0951  1.3400  2.2563
    1OL    H14S  363   3.128   3.397   5.362 -1.1065  1.4028 -0.7201
    1OL    C115  364   2.936   3.471   5.411  0.1513  0.5533 -0.4145
    1OL    H15R  365   2.947   3.545   5.332  0.2449 -0.3963 -1.3178
    1OL    H15S  366   2.886   3.522   5.494 -1.8184 -2.4304  0.4035
    1OL    C116  367   2.841   3.351   5.373 -0.5617 -0.1106 -0.2759
    1OL    H16R  368   2.744   3.401   5.376 -0.6713 -0.3551  1.4649
    1OL    H16S  369   2.853   3.275   5.451 -1.8197 -0.4154 -0.3557
    1OL    C117  370   2.874   3.300   5.233  0.8191  0.6214  0.1324
    1OL    H17R  371   2.971   3.249   5.235  0.3562 -0.2842  0.1407
    1OL    H17S  372   2.879   3.375   5.154 -0.1977 -1.3703 -1.9522
    1OL    C118  373   2.758   3.211   5.183  0.7932 -0.5124 -0.2292
    1OL    H18R  374   2.730   3.138   5.259  2.8218  0.0821  1.1705
    1OL    H18S  375   2.774   3.164   5.086 -2.2957  0.1865 -1.2026
    1OL    H18T  376   2.666   3.269   5.166  1.2642  0.7909  1.4227
    1PA    C116  377   0.991   3.007   5.090  0.4634  0.4899  0.1309
    1PA    H16R  378   1.096   2.983   5.070  0.3995 -0.4442  0.8613
    1PA    H16S  379   0.953   3.102   5.052 -1.3032 -0.0414  0.4561
    1PA    H16T  380   0.941   2.922   5.043 -1.4922  0.4323  2.1660
    1PA    C115  381   0.982   3.008   5.244  0.4193  0.3936  0.0007
    1PA    H15R  382   1.040   3.097   5.269  0.4327  1.1635 -2.4617
    1PA    H15S  383   0.876   3.018   5.272  0.3803  0.8793 -0.3032
    1PA    C114  384   1.048   2.880   5.303 -0.3670 -0.4064  0.0204
    1PA    H14R  385   1.008   2.793   5.251  0.3482 -0.4256 -0.5208
    1PA    H14S  386   1.156   2.883   5.284 -0.4258  0.8491 -0.2126
    1PA    C113  387   1.012   2.862   5.452 -0.4595  0.5271  0.0908
    1PA    H13R  388   1.046   2.953   5.501 -1.5316  0.7182  0.5226
    1PA    H13S  389   0.903   2.858   5.461 -0.8101 -0.0312 -3.1725
    1PA    C112  390   1.092   2.741   5.517 -0.2581 -0.1429 -0.0670
    1PA    H12R  391   1.076   2.645   5.469 -0.7999 -0.9488  1.6409
    1PA    H12S  392   1.196   2.774   5.516 -0.5023  0.6894  0.5666
    1PA    C111  393   1.047   2.722   5.663  0.5373 -0.2138  0.1646
    1PA    H11R  394   1.026   2.821   5.704  0.7789 -0.5460  1.1331
    1PA    H11S  395   0.954   2.665   5.660  1.2394 -1.3665 -0.3433
    1PA    C110  396   1.141   2.635   5.742 -0.6570 -0.0716  0.5246
    1PA    H10R  397   1.156   2.545   5.683  1.5843  2.1559 -2.6848
    1PA    H10S  398   1.236   2.687   5.754 -0.9307  1.2323 -2.0802
    1PA     C19  399   1.078   2.617   5.881 -0.1712  0.3879  0.7886
    1PA     H9R  400   1.045   2.714   5.919 -1.5653  0.7045 -1.1074
    1PA     H9S  401   0.978   2.578   5.864  1.3105 -2.3816 -2.9497
    1PA     C18  402   1.155   2.549   5.990  0.3199 -0.5376 -0.6668
    1PA     H8R  403   1.180   2.445   5.968  0.5564 -1.8620  4.5601
    1PA     H8S  404   1.250   2.604   5.994  0.2848 -0.4926 -0.4851
    1PA     C17  405   1.091   2.561   6.126 -0.5800  0.0074 -0.2355
    1PA     H7R  406   1.048   2.661   6.139  1.3782  0.8112  0.3963
    1PA     H7S  407   1.016   2.481   6.118 -0.1930 -0.3358 -0.4626
    1PA     C16  408   1.184   2.534   6.247  0.6444  0.2029 -0.3152
    1PA     H6R  409   1.263   2.609   6.233  3.1584 -2.2001  0.1531
    1PA     H6S  410   1.119   2.551   6.334  0.1770 -1.0522 -0.4073
    1PA     C15  411   1.246   2.393   6.253 -0.4554 -0.7869 -0.6181
    1PA     H5R  412   1.166   2.319   6.251 -0.1414 -1.1078 -1.3661
    1PA     H5S  413   1.316   2.393   6.170  3.2845 -1.1688  2.2383
    1PA     C14  414   1.313   2.381   6.385 -0.8036  0.3056 -0.3314
    1PA     H4R  415   1.381   2.296   6.391 -0.1572  0.7143 -1.5037
    1PA     H4S  416   1.373   2.471   6.401 -0.0537 -0.1685 -0.4356
    1PA     C13  417   1.214   2.364   6.499 -0.1426 -0.3963 -0.3773
    1PA     H3R  418   1.159   2.457   6.515  0.8753  0.4039 -1.3076
    1PA     H3S  419   1.140   2.286   6.481 -2.0844  0.7018  2.2941
    1PA     C12  420   1.296   2.327   6.627  0.2140 -0.5720  0.7664
    1PA     H2R  421   1.368   2.245   6.614  0.9540 -0.4301  3.2778
    1PA     H2S  422   1.356   2.416   6.645  0.9289 -0.6535 -1.0326
    1PC     C11  423   1.203   2.302   6.743 -0.4091 -0.6834  0.4295
    1PC     O12  424   1.143   2.388   6.807  0.4541  0.3662  0.5593
    1PC     O11  425   1.207   2.170   6.775  0.3943 -0.3044  0.4426
    1PC      C1  426   1.130   2.121   6.891 -0.0294 -0.5684 -0.3712
    1PC      HR  427   1.170   2.033   6.943 -1.7149 -0.3631  1.4061
    1PC      HS  428   1.127   2.198   6.969  1.7578 -1.5974  0.7916
    1PC      C2  429   0.975   2.110   6.855 -0.5538  0.0559 -0.2368
    1PC      HX  430   0.956   2.201   6.797  0.4772  0.0827 -0.5671
    1PC      C3  431   0.888   2.102   6.980  0.2301 -0.5581  0.0736
    1PC      HA  432   0.792   2.057   6.953 -0.3346  1.5044 -1.5632
    1PC      HB  433   0.936   2.026   7.042 -0.9543 -2.0714 -0.7656
    1PC     O31  434   0.875   2.235   7.048  0.0586  0.9047 -0.4196
    1PC     P31  435   0.935   2.262   7.191 -0.1044  0.1532 -0.6391
    1PC     O32  436   0.804   2.245   7.280 -0.3293  0.7400 -0.1370
    1PC     C31  437   0.682   2.310   7.254  0.4748  0.2824 -0.1903
    1PC     H1A  438   0.688   2.409   7.208  1.0075  1.1535  1.6783
    1PC     H1B  439   0.632   2.248   7.179  0.3227 -2.0609  1.7317
    1PC     C32  440   0.594   2.321   7.387  0.3282 -0.1792 -0.2100
    1PC     H2A  441   0.521   2.398   7.363 -0.4662 -0.5537  0.9263
    1PC     H2B  442   0.537   2.231   7.408 -0.3953  0.7475  2.1218
    1PC     N31  443   0.665   2.371   7.512  0.0981 -0.3740  0.3067
    1PC     C33  444   0.738   2.263   7.577  0.1328  0.4377  0.1579
    1PC     H3A  445   0.822   2.252   7.508 -0.7137  0.0066 -0.8364
    1PC     H3B  446   0.774   2.307   7.670 -0.1727  1.6339 -0.2733
    1PC     H3C  447   0.675   2.175   7.587  0.4801  0.1897  0.2032
    1PC     C34  448   0.763   2.476   7.480 -0.2756 -0.0398 -0.2654
    1PC     H4A  449   0.785   2.546   7.560 -0.6084  0.2352 -0.4141
    1PC     H4B  450   0.858   2.429   7.455  0.4564  1.6287 -0.6875
    1PC     H4C  451   0.723   2.535   7.398 -1.0519  1.7225  1.3138
    1PC     C35  452   0.565   2.437   7.603 -0.3062 -0.1520 -0.6527
    1PC     H5A  453   0.514   2.516   7.549  1.4247  0.8805 -0.8504
    1PC     H5B  454   0.616   2.475   7.691 -1.8672 -0.2112  0.3012
    1PC     H5C  455   0.496   2.356   7.627 -1.0123  0.6250 -0.0281
    1PC     O33  456   1.032   2.155   7.220 -0.0331 -0.1939  0.7681
    1PC     O34  457   0.976   2.407   7.198 -0.4605  0.4192 -0.7747
    1PC     O21  458   0.951   2.005   6.762 -0.6466  0.2287 -0.4091
    1PC     C21  459   0.829   2.000   6.711  0.1770 -0.3723 -0.8646
    1PC     O22  460   0.748   2.088   6.712  0.5312 -1.1135 -0.2058
    1OL     C12  461   0.799   1.872   6.633 -0.4359 -0.5168 -0.1313
    1OL     H2R  462   0.717   1.814   6.675 -0.0599 -2.4674 -1.9043
    1OL     H2S  463   0.894   1.817   6.632  0.7164  1.2951  2.0836
    1OL     C13  464   0.763   1.909   6.485 -0.1871 -1.0042 -0.3570
    1OL     H3R  465   0.684   1.983   6.488  0.6725 -0.0931  2.0504
    1OL     H3S  466   0.731   1.820   6.430 -0.4439  0.6712 -3.0866
    1OL     C14  467   0.880   1.973   6.408  0.1730  0.5265  1.1089
    1OL     H4R  468   0.965   1.905   6.395 -0.3345  0.4740 -3.3450
    1OL     H4S  469   0.920   2.055   6.466  0.7250  1.6053 -0.7274
    1OL     C15  470   0.847   1.994   6.260  0.2237  0.4931 -1.1262
    1OL     H5R  471   0.762   2.062   6.247 -0.3678 -0.0053  0.0402
    1OL     H5S  472   0.822   1.901   6.209 -0.2084  1.3755 -2.5840
    1OL     C16  473   0.955   2.054   6.178  0.6518  0.1111  0.3971
    1OL     H6R  474   1.016   1.968   6.153  0.7499  0.1922  0.3568
    1OL     H6S  475   1.017   2.120   6.240  0.1470 -0.9148  2.0448
    1OL     C17  476   0.911   2.125   6.052  0.3520  0.4351 -0.4349
    1OL     H7R  477   0.857   2.216   6.082  2.1944  0.9052  1.6560
    1OL     H7S  478   0.840   2.059   6.001 -0.4356  1.6369 -0.9648
    1OL     C18  479   1.025   2.158   5.953  0.3719  0.2474 -1.0838
    1OL     H8R  480   1.066   2.067   5.909 -1.4063 -2.2115  1.9132
    1OL     H8S  481   1.103   2.205   6.013 -0.3736 -1.0803  1.0432
    1OL     C19  482   0.967   2.249   5.847 -0.1507 -0.2980 -1.2654
    1OL     H9R  483   0.908   2.331   5.886  0.5773  0.2668 -1.3107
    1OL    C110  484   1.002   2.250   5.717  1.1973  0.2789 -0.1050
    1OL    H10R  485   0.963   2.330   5.655  0.0477 -0.4545 -0.3588
    1OL    C111  486   1.080   2.142   5.638  0.5285  0.1534 -0.4834
    1OL    H11R  487   1.012   2.062   5.609  0.5910 -1.1425  2.5753
    1OL    H11S  488   1.158   2.101   5.703  0.8793  3.7014  1.6202
    1OL    C112  489   1.143   2.211   5.519  0.0908 -0.0297  0.2607
    1OL    H12R  490   1.197   2.304   5.538  2.7529 -1.3714 -0.1801
    1OL    H12S  491   1.059   2.244   5.457  1.5035  1.7080 -0.8674
    1OL    C113  492   1.249   2.128   5.443 -0.1061 -0.3395  0.0806
    1OL    H13R  493   1.338   2.110   5.504  0.5944  1.5502 -0.3190
    1OL    H13S  494   1.282   2.193   5.362 -1.8851  0.7790  0.2063
    1OL    C114  495   1.194   1.999   5.380  0.5084 -0.2376 -0.6197
    1OL    H14R  496   1.126   2.025   5.299  1.9716  0.4940 -1.6349
    1OL    H14S  497   1.134   1.951   5.458  0.6540  0.7526  0.1205
    1OL    C115  498   1.306   1.911   5.322 -0.1113  0.2894  0.3318
    1OL    H15R  499   1.366   1.886   5.410  0.4272  3.1846  0.9171
    1OL    H15S  500   1.360   1.972   5.249  0.3004  1.9598  1.9335
    1OL    C116  501   1.251   1.781   5.267 -0.5286  0.7376 -0.0613
    1OL    H16R  502   1.183   1.734   5.338 -1.0175  2.6131  0.7698
    1OL    H16S  503   1.334   1.713   5.247 -1.9274 -1.8331  2.3066
    1OL    C117  504   1.169   1.803   5.142 -0.2747 -0.3060  0.5260
    1OL    H17R  505   1.213   1.882   5.081 -2.0203 -0.4282 -0.9808
    1OL    H17S  506   1.068   1.839   5.163 -0.5826 -1.2947  0.8195
    1OL    C118  507   1.142   1.674   5.058  0.0887 -0.3438 -0.0304
    1OL    H18R  508   1.223   1.632   4.997 -1.2340 -0.8513 -1.5104
    1OL    H18S  509   1.058   1.689   4.990  0.3486  2.2284  0.1230
    1OL    H18T  510   1.109   1.592   5.122  1.1330 -0.1431  0.8024
    1PA    C116  511   0.712   4.444   5.266  0.4909 -0.0488  0.0941
    1PA    H16R  512   0.805   4.502   5.275  0.8440 -0.8868  3.0252
    1PA    H16S  513   0.646   4.474   5.347 -0.1196 -0.3136 -0.2999
    1PA    H16T  514   0.662   4.472   5.173 -0.1902  0.8097  0.6984
    1PA    C115  515   0.738   4.295   5.287  0.6081  0.4029  0.4540
    1PA    H15R  516   0.649   4.237   5.259  1.5523 -1.3201  0.8343
    1PA    H15S  517   0.812   4.258   5.215  0.9303 -0.4767  1.2103
    1PA    C114  518   0.782   4.257   5.429  0.2092 -0.4658 -0.1706
    1PA    H14R  519   0.862   4.325   5.458  0.3194 -0.4379 -0.5443
    1PA    H14S  520   0.697   4.251   5.498  0.2157 -2.3452 -0.2604
    1PA    C113  521   0.842   4.116   5.439 -0.3382 -0.4708 -0.4775
    1PA    H13R  522   0.756   4.066   5.393 -1.1340  0.8985 -0.5324
    1PA    H13S  523   0.928   4.111   5.372  0.2868 -0.5859  0.3235
    1PA    C112  524   0.866   4.059   5.577 -0.7594  0.2761 -0.0168
    1PA    H12R  525   0.773   4.054   5.634  0.1708  0.0110  1.5379
    1PA    H12S  526   0.900   3.957   5.561 -1.6516 -0.4001  2.0639
    1PA    C111  527   0.961   4.148   5.658 -0.3040  0.1524  0.2765
    1PA    H11R  528   1.040   4.189   5.596  0.3865  0.1360  1.1328
    1PA    H11S  529   0.909   4.239   5.687 -0.6739 -0.2087  0.7769
    1PA    C110  530   1.027   4.085   5.776 -0.2051 -0.7727  0.2728
    1PA    H10R  531   1.090   4.002   5.745  0.6886 -1.0721  2.7057
    1PA    H10S  532   1.089   4.163   5.820  1.4102 -1.3562 -0.8738
    1PA     C19  533   0.922   4.044   5.885 -0.0001 -0.6317  0.8847
    1PA     H9R  534   0.874   4.132   5.928  1.2373 -0.3786  1.8256
    1PA     H9S  535   0.837   4.002   5.832  1.9244 -1.1636 -2.0043
    1PA     C18  536   0.960   3.943   5.991 -0.3305 -0.6484  0.3088
    1PA     H8R  537   0.873   3.925   6.054 -0.6513 -1.8694 -0.4417
    1PA     H8S  538   0.971   3.850   5.934 -0.8284  0.4173 -1.6031
    1PA     C17  539   1.080   3.974   6.077 -0.2782  0.0892  1.2232
    1PA     H7R  540   1.159   3.918   6.026 -0.5144 -1.0011  2.0144
    1PA     H7S  541   1.110   4.078   6.070 -1.3622  0.3255 -0.2275
    1PA     C16  542   1.073   3.926   6.226  0.3927  0.5413 -0.3762
    1PA     H6R  543   1.171   3.937   6.274  0.0732 -1.0945  0.7394
    1PA     H6S  544   1.000   3.995   6.268  0.0812 -0.0410  0.0494
    1PA     C15  545   1.008   3.784   6.247  0.0243  0.1389  0.0797
    1PA     H5R  546   0.905   3.785   6.208 -0.4303 -1.0529  1.1822
    1PA     H5S  547   1.068   3.714   6.188 -1.9436 -1.7200  0.1654
    1PA     C14  548   1.003   3.732   6.391  0.1934 -0.3501  0.1825
    1PA     H4R  549   0.939   3.644   6.379 -0.1592 -0.2720  1.4186
    1PA     H4S  550   1.106   3.708   6.418  0.4857 -0.4128 -0.9480
    1PA     C13  551   0.939   3.833   6.494  0.3662  0.0078  0.4326
    1PA     H3R  552   0.992   3.929   6.494 -1.0016  0.7985  0.5730
    1PA     H3S  553   0.834   3.854   6.472 -0.1180 -0.9491  1.6901
    1PA     C12  554   0.948   3.783   6.641  0.5797  0.0440  0.3171
    1PA     H2R  555   0.905   3.683   6.637 -0.9745  0.7334 -1.2927
    1PA     H2S  556   1.054   3.776   6.669  0.9221 -0.1649 -0.9661
    1PC     C11  557   0.878   3.874   6.733  0.2954 -0.3917  0.1487
    1PC     O12  558   0.869   3.993   6.710  0.2234 -0.3258 -0.5614
    1PC     O11  559   0.821   3.809   6.839  0.0263 -0.6007  0.2248
    1PC      C1  560   0.721   3.883   6.926 -0.1831  0.0877 -0.2047
    1PC      HR  561   0.749   3.851   7.026  2.4987  1.1473 -0.5458
    1PC      HS  562   0.735   3.991   6.925 -0.6661  0.1666 -1.5383
    1PC      C2  563   0.576   3.841   6.893 -0.4639 -0.7903  0.4821
    1PC      HX  564   0.499   3.887   6.954  0.3621  0.0989  0.8849
    1PC      C3  565   0.569   3.691   6.888  0.4851 -0.1221 -0.3827
    1PC      HA  566   0.466   3.667   6.861  0.7642 -1.9441  0.0679
    1PC      HB  567   0.631   3.655   6.805 -0.7266  1.1171 -1.9037
    1PC     O31  568   0.611   3.628   7.011 -0.8494 -0.0330  0.5137
    1PC     P31  569   0.519   3.592   7.129  0.5243 -0.4893  0.2397
    1PC     O32  570   0.473   3.734   7.183 -0.0935 -0.3253 -0.1001
    1PC     C31  571   0.544   3.794   7.301  0.1268  0.4363  0.2741
    1PC     H1A  572   0.649   3.771   7.285  0.3429  3.4327 -4.1885
    1PC     H1B  573   0.541   3.903   7.304  1.8948  0.5405 -0.6260
    1PC     C32  574   0.487   3.734   7.431  0.1299 -0.4944 -0.1195
    1PC     H2A  575   0.387   3.777   7.440  1.0188  2.0936 -1.5807
    1PC     H2B  576   0.493   3.626   7.419 -0.9370 -0.5256 -0.4497
    1PC     N31  577   0.557   3.761   7.560 -0.7081 -0.0210  0.2526
    1PC     C33  578   0.551   3.906   7.596  0.2783 -0.5786  0.8259
    1PC     H3A  579   0.581   3.967   7.511  0.1294 -0.8021  0.6100
    1PC     H3B  580   0.448   3.922   7.627 -0.3445 -2.5014 -0.0897
    1PC     H3C  581   0.619   3.919   7.680 -0.3696 -2.5994  1.7223
    1PC     C34  582   0.502   3.694   7.677  0.5890  0.6981  0.0647
    1PC     H4A  583   0.553   3.718   7.770  0.8623 -1.7021  0.5972
    1PC     H4B  584   0.396   3.713   7.691  0.3203 -0.7820  0.1992
    1PC     H4C  585   0.512   3.587   7.658 -1.4117  0.7427 -1.5740
    1PC     C35  586   0.701   3.721   7.557 -0.1682 -0.5984  0.4862
    1PC     H5A  587   0.707   3.613   7.576  0.9647 -0.8318 -1.0686
    1PC     H5B  588   0.757   3.770   7.637  0.5602 -3.0298  1.5810
    1PC     H5C  589   0.747   3.737   7.460  2.6332 -2.8406  1.2940
    1PC     O33  590   0.394   3.525   7.086 -0.1084 -0.2370 -0.4508
    1PC     O34  591   0.601   3.523   7.233  0.4370 -0.3310 -0.2716
    1PC     O21  592   0.563   3.875   6.745  0.2418 -0.6376 -0.4965
    1PC     C21  593   0.549   4.001   6.711 -0.1096  0.1227  0.5204
    1PC     O22  594   0.555   4.098   6.788 -0.7279 -0.1597  0.0029
    1OL     C12  595   0.520   4.008   6.558  0.0844  0.4350  0.3291
    1OL     H2R  596   0.413   4.017   6.541  0.3825  2.5689 -0.7114
    1OL     H2S  597   0.556   3.918   6.507 -2.5378 -0.4868 -0.0470
    1OL     C13  598   0.590   4.119   6.477 -0.2875  0.5892 -0.3774
    1OL     H3R  599   0.697   4.112   6.498 -0.1916  0.1531 -0.9646
    1OL     H3S  600   0.563   4.219   6.512  1.9622  0.9591  0.4600
    1OL     C14  601   0.562   4.110   6.326 -0.4611  0.2683  0.5180
    1OL     H4R  602   0.608   4.198   6.280 -0.3054  1.0934  2.1898
    1OL     H4S  603   0.454   4.126   6.317 -0.5492 -0.1469  0.8215
    1OL     C15  604   0.609   3.986   6.250  0.2146  0.2633 -0.4662
    1OL     H5R  605   0.585   3.895   6.307 -1.2285  0.6020 -0.5058
    1OL     H5S  606   0.717   3.984   6.232  0.2469  0.3424 -0.2881
    1OL     C16  607   0.534   3.979   6.120  0.1184 -0.3676 -0.4028
    1OL     H6R  608   0.426   3.978   6.133  0.1798  0.3795  0.2609
    1OL     H6S  609   0.555   3.882   6.074 -2.3136 -1.1547 -0.0080
    1OL     C17  610   0.578   4.093   6.021 -0.1869 -0.3090 -0.2072
    1OL     H7R  611   0.686   4.105   6.026 -0.1439 -1.1410  1.8149
    1OL     H7S  612   0.544   4.191   6.056  2.7294  0.7040  0.0079
    1OL     C18  613   0.535   4.066   5.875 -0.9403 -0.0359 -0.5965
    1OL     H8R  614   0.544   3.960   5.849  1.5639  0.3110 -1.3997
    1OL     H8S  615   0.606   4.113   5.807 -0.3581  0.7574  0.5353
    1OL     C19  616   0.389   4.112   5.863  0.7164  0.2572  0.2806
    1OL     H9R  617   0.324   4.056   5.930 -0.0615  1.1020  0.2527
    1OL    C110  618   0.340   4.198   5.770  0.3997  0.5173 -0.0628
    1OL    H10R  619   0.234   4.219   5.766  0.6017  2.2909  1.9976
    1OL    C111  620   0.415   4.270   5.660 -0.7702 -0.1088 -0.0862
    1OL    H11R  621   0.447   4.217   5.571 -0.3629 -1.6770  0.9529
    1OL    H11S  622   0.511   4.299   5.704 -0.1705 -0.6276 -1.0263
    1OL    C112  623   0.343   4.407   5.630 -0.4200 -0.3257  0.1100
    1OL    H12R  624   0.349   4.472   5.717  3.0317  0.4013 -0.5428
    1OL    H12S  625   0.237   4.389   5.608  0.2630 -1.4149 -2.7723
    1OL    C113  626   0.406   4.477   5.505  0.3366 -0.3096 -0.3502
    1OL    H13R  627   0.398   4.408   5.421  0.5617  0.7919 -1.3064
    1OL    H13S  628   0.512   4.497   5.522  0.6053 -0.4924 -1.6427
    1OL    C114  629   0.327   4.602   5.461 -0.1144  0.4265  0.1579
    1OL    H14R  630   0.223   4.571   5.458  0.4508 -1.4955 -1.5131
    1OL    H14S  631   0.350   4.628   5.357 -1.0134  0.2626 -0.0863
    1OL    C115  632   0.319   4.719   5.558 -0.2973  0.5800 -0.1585
    1OL    H15R  633   0.423   4.750   5.568  0.1575 -1.3551  1.8002
    1OL    H15S  634   0.292   4.702   5.662  0.0743 -2.0548 -0.4159
    1OL    C116  635   0.215   4.823   5.507  0.0397 -0.3536 -0.1697
    1OL    H16R  636   0.214   4.908   5.575  1.3500 -0.7035  0.3337
    1OL    H16S  637   0.115   4.785   5.489  0.7024 -1.6578 -1.2853
    1OL    C117  638   0.254   4.880   5.362  0.1801  1.0924 -0.5769
    1OL    H17R  639   0.178   4.948   5.324 -1.6306 -1.6752 -2.2754
    1OL    H17S  640   0.238   4.802   5.287 -4.2142  0.0043  1.1727
    1OL    C118  641   0.392   4.948   5.354 -0.1572 -0.0302  0.8040
    1OL    H18R  642   0.415   4.974   5.250  3.2647 -0.1725  1.4338
    1OL    H18S  643   0.475   4.883   5.380  1.6315  1.3696 -1.0872
    1OL    H18T  644   0.400   5.040   5.413 -0.7162  0.6540 -0.1399
    1PA    C116  645   0.510   2.840   5.226  0.0572  0.4491 -0.2140
    1PA    H16R  646   0.422   2.905   5.233 -1.4914 -1.6045  0.6777
    1PA    H16S  647   0.479   2.752   5.168  1.5830 -0.8295  0.8234
    1PA    H16T  648   0.598   2.888   5.183  1.5098 -1.5952  0.3368
    1PA    C115  649   0.538   2.789   5.367 -0.2509 -0.2169  0.1588
    1PA    H15R  650   0.441   2.751   5.399 -0.3652 -1.2340 -1.3051
    1PA    H15S  651   0.615   2.712   5.364  1.7341  1.6698 -2.2425
    1PA    C114  652   0.577   2.896   5.466 -0.1251 -0.3787  0.2076
    1PA    H14R  653   0.672   2.935   5.428 -0.8041  0.2313 -0.9092
    1PA    H14S  654   0.509   2.980   5.451 -0.2361 -0.6355 -0.7620
    1PA    C113  655   0.580   2.859   5.618  0.7495 -0.7653 -0.1252
    1PA    H13R  656   0.659   2.785   5.637  0.2984 -1.5049 -1.0154
    1PA    H13S  657   0.609   2.949   5.672 -0.0732  0.3191 -1.4293
    1PA    C112  658   0.441   2.816   5.677 -0.0425 -0.1370 -0.7008
    1PA    H12R  659   0.409   2.729   5.618  0.1720 -1.9565  1.7172
    1PA    H12S  660   0.457   2.775   5.777  1.9984  1.0713 -0.4837
    1PA    C111  661   0.330   2.923   5.683  0.2938 -0.5982 -0.2542
    1PA    H11R  662   0.375   3.011   5.729  1.2213 -1.4947  0.6501
    1PA    H11S  663   0.305   2.943   5.579 -0.5293 -0.0074  0.0499
    1PA    C110  664   0.203   2.875   5.760 -0.3079  0.2657  0.4832
    1PA    H10R  665   0.184   2.773   5.727 -0.4802  0.6627 -0.6745
    1PA    H10S  666   0.222   2.883   5.867  0.2558 -0.5207  0.4474
    1PA     C19  667   0.069   2.948   5.724  0.0025  0.4036  0.3560
    1PA     H9R  668   0.089   3.055   5.727  1.4214  0.1394  1.0994
    1PA     H9S  669   0.038   2.924   5.622  0.0314  0.3184  0.3669
    1PA     C18  670  -0.043   2.909   5.825  0.3685  0.5361 -0.3184
    1PA     H8R  671  -0.044   2.801   5.838  1.9322  0.6072  0.7188
    1PA     H8S  672  -0.005   2.946   5.921 -0.6723 -1.1622  0.8057
    1PA     C17  673  -0.179   2.963   5.790  0.0811  0.1734 -0.2650
    1PA     H7R  674  -0.187   3.072   5.799 -0.4636  0.0788  0.5246
    1PA     H7S  675  -0.190   2.931   5.686  0.5949 -2.6388  0.4622
    1PA     C16  676  -0.292   2.878   5.853 -0.6043 -0.5727 -0.9377
    1PA     H6R  677  -0.388   2.920   5.823  0.2226  1.6936 -0.6020
    1PA     H6S  678  -0.283   2.782   5.801 -0.3377 -1.3595  0.4918
    1PA     C15  679  -0.277   2.847   6.003  0.6507  0.1298  0.4597
    1PA     H5R  680  -0.185   2.789   6.018 -0.3795 -1.5140  0.7118
    1PA     H5S  681  -0.274   2.934   6.069 -0.8713 -1.6676  3.0967
    1PA     C14  682  -0.384   2.757   6.049  0.1655 -0.0099  0.0759
    1PA     H4R  683  -0.481   2.800   6.024 -0.6434 -0.1806  2.6204
    1PA     H4S  684  -0.376   2.664   5.992 -1.2835  1.5641 -2.9257
    1PA     C13  685  -0.383   2.739   6.200 -0.0347  0.1768 -0.0792
    1PA     H3R  686  -0.289   2.699   6.238  0.1116 -0.5053 -1.1206
    1PA     H3S  687  -0.402   2.836   6.246 -0.0742 -0.1429  0.5872
    1PA     C12  688  -0.499   2.653   6.249  0.4543  0.0869 -0.8250
    1PA     H2R  689  -0.588   2.713   6.230  0.6101  1.1771  1.5347
    1PA     H2S  690  -0.513   2.557   6.197 -0.6249  1.0650 -2.4378
    1PC     C11  691  -0.489   2.633   6.400 -0.2100 -0.2758 -0.0835
    1PC     O12  692  -0.504   2.721   6.479 -0.4497 -0.5603 -0.3252
    1PC     O11  693  -0.467   2.502   6.437 -0.4039  0.3901  0.2674
    1PC      C1  694  -0.454   2.449   6.571 -0.2167 -0.4820  0.6415
    1PC      HR  695  -0.405   2.351   6.575  0.1030 -0.2805  1.8623
    1PC      HS  696  -0.393   2.514   6.634 -1.4464  3.0741 -1.5403
    1PC      C2  697  -0.598   2.435   6.629  0.1682  0.3701  0.7844
    1PC      HX  698  -0.642   2.534   6.641 -2.0838 -0.3492 -0.8944
    1PC      C3  699  -0.599   2.358   6.761  0.4841 -0.5140  0.9437
    1PC      HA  700  -0.704   2.352   6.790  0.5398 -1.0660  1.0486
    1PC      HB  701  -0.555   2.258   6.749 -0.8491 -0.8188 -2.6364
    1PC     O31  702  -0.516   2.417   6.868 -0.0896  0.3977  0.4306
    1PC     P31  703  -0.555   2.558   6.943  0.0425  0.2125 -0.3867
    1PC     O32  704  -0.676   2.523   7.039 -0.4543  0.2019 -0.1645
    1PC     C31  705  -0.656   2.443   7.159 -1.0612 -0.9108 -0.1107
    1PC     H1A  706  -0.593   2.355   7.142  0.0872 -0.1637  0.1996
    1PC     H1B  707  -0.590   2.506   7.219 -0.0641 -2.3876  0.4058
    1PC     C32  708  -0.789   2.400   7.216  0.2381 -1.3168  0.5207
    1PC     H2A  709  -0.844   2.334   7.148  0.4197  0.0786 -1.0410
    1PC     H2B  710  -0.780   2.337   7.305 -1.1589 -2.3021  0.0065
    1PC     N31  711  -0.885   2.508   7.248 -0.0789  0.1886 -0.1304
    1PC     C33  712  -0.828   2.617   7.325  0.9739 -0.1409  0.8973
    1PC     H3A  713  -0.753   2.674   7.270 -1.1388  0.6188 -1.3727
    1PC     H3B  714  -0.902   2.691   7.356  1.0904  0.8189 -0.9677
    1PC     H3C  715  -0.772   2.576   7.410  0.1991 -2.9774  0.1376
    1PC     C34  716  -0.941   2.562   7.121  0.7869  0.1589 -0.3262
    1PC     H4A  717  -0.862   2.586   7.050  0.6934 -1.4716 -1.0165
    1PC     H4B  718  -1.016   2.490   7.087  0.8519  0.4907 -1.1780
    1PC     H4C  719  -0.991   2.656   7.148  0.4363 -0.5180  1.5815
    1PC     C35  720  -0.995   2.451   7.324  0.1051 -0.1549 -0.4453
    1PC     H5A  721  -1.084   2.515   7.325  0.0201 -0.0773 -3.5002
    1PC     H5B  722  -0.963   2.413   7.420 -0.8512 -1.5252 -0.6443
    1PC     H5C  723  -1.020   2.353   7.282  2.6548 -1.1483  0.1793
    1PC     O33  724  -0.436   2.604   7.021 -0.4281  0.6422  0.3406
    1PC     O34  725  -0.611   2.651   6.842  0.5638 -0.1341  0.0188
    1PC     O21  726  -0.676   2.342   6.548 -0.1599  0.0191  0.6772
    1PC     C21  727  -0.794   2.379   6.505 -0.2810 -0.2279  0.1550
    1PC     O22  728  -0.851   2.482   6.528 -0.6491  0.1248  0.5990
    1OL     C12  729  -0.873   2.270   6.425  0.5482 -0.2097 -0.1854
    1OL     H2R  730  -0.977   2.301   6.424 -0.2280 -2.6651 -0.6255
    1OL     H2S  731  -0.865   2.175   6.478  0.2997  0.0083  0.2427
    1OL     C13  732  -0.823   2.264   6.282 -0.3060 -0.1449  0.1329
    1OL     H3R  733  -0.873   2.184   6.227 -2.3310  1.2139 -0.1139
    1OL     H3S  734  -0.716   2.242   6.274 -0.8584 -4.2117  1.3709
    1OL     C14  735  -0.852   2.390   6.205 -0.2186  0.1777  0.3896
    1OL     H4R  736  -0.790   2.474   6.236 -1.3810  1.1658  0.0803
    1OL     H4S  737  -0.953   2.424   6.229  0.9159  4.5916 -0.3065
    1OL     C15  738  -0.850   2.363   6.054 -1.0922  0.0705  0.2125
    1OL     H5R  739  -0.745   2.356   6.024 -0.9709 -0.5103  0.7457
    1OL     H5S  740  -0.875   2.456   6.002 -0.1310  1.1031  1.5138
    1OL     C16  741  -0.933   2.247   5.987 -0.0165  0.5133 -0.1978
    1OL     H6R  742  -0.871   2.158   6.001  2.2255  1.3549 -3.5717
    1OL     H6S  743  -0.936   2.258   5.879  0.1352 -3.9782 -0.8362
    1OL     C17  744  -1.076   2.233   6.037  0.7267  0.6305 -0.2029
    1OL     H7R  745  -1.133   2.321   6.006  0.4495 -0.3491 -2.6959
    1OL     H7S  746  -1.074   2.225   6.146  0.4072  1.7889 -0.0918
    1OL     C18  747  -1.151   2.110   5.982 -1.0970  0.0773  0.7653
    1OL     H8R  748  -1.090   2.030   6.025  0.1671  0.5890 -0.0044
    1OL     H8S  749  -1.152   2.105   5.873 -1.0478 -0.3061  0.7791
    1OL     C19  750  -1.285   2.098   6.052  0.3882  0.6047  0.3909
    1OL     H9R  751  -1.283   2.092   6.161 -0.0641 -4.5238  0.3451
    1OL    C110  752  -1.403   2.099   5.994 -0.5385  0.0339  0.1622
    1OL    H10R  753  -1.488   2.073   6.056 -1.8814  0.6516 -1.3503
    1OL    C111  754  -1.427   2.093   5.844 -0.0504  0.1907  0.3625
    1OL    H11R  755  -1.467   1.995   5.814  0.3125 -0.2548  1.2944
    1OL    H11S  756  -1.336   2.110   5.786 -0.4320 -1.2318 -0.7146
    1OL    C112  757  -1.536   2.199   5.812 -0.1771 -0.1207 -0.6050
    1OL    H12R  758  -1.487   2.294   5.834 -0.8449 -0.0861  0.8681
    1OL    H12S  759  -1.630   2.194   5.867  0.1991  3.3748  0.5773
    1OL    C113  760  -1.561   2.171   5.663 -0.4877 -0.2983  0.0075
    1OL    H13R  761  -1.602   2.070   5.649 -2.1190  0.3785 -0.3820
    1OL    H13S  762  -1.472   2.176   5.599 -1.4954  0.7369 -1.3888
    1OL    C114  763  -1.658   2.266   5.593 -0.5438 -0.5145 -0.1942
    1OL    H14R  764  -1.616   2.366   5.576 -1.6408  0.1571  0.8708
    1OL    H14S  765  -1.748   2.273   5.654 -0.2880 -0.0217  0.1326
    1OL    C115  766  -1.702   2.205   5.463 -0.2964 -0.2311 -1.2083
    1OL    H15R  767  -1.777   2.275   5.427  0.3169  0.2603 -1.5469
    1OL    H15S  768  -1.737   2.103   5.483  0.4584 -0.4565 -0.9811
    1OL    C116  769  -1.598   2.215   5.352  0.3703  0.6968  0.3580
    1OL    H16R  770  -1.506   2.162   5.374  0.3568  0.4589 -0.1510
    1OL    H16S  771  -1.575   2.321   5.338  1.3695  0.9212  3.1590
    1OL    C117  772  -1.675   2.151   5.230 -0.7031  0.1558  0.5807
    1OL    H17R  773  -1.612   2.171   5.143 -0.8803  0.9830  0.6390
    1OL    H17S  774  -1.772   2.198   5.212 -0.2708  1.2919  1.1680
    1OL    C118  775  -1.696   1.998   5.249  0.4212 -1.2117  0.1193
    1OL    H18R  776  -1.730   1.964   5.151  0.7209 -3.0975  0.6342
    1OL    H18S  777  -1.772   1.982   5.325 -1.6933  0.5271 -1.5064
    1OL    H18T  778  -1.601   1.950   5.274  0.4667 -1.2989 -0.2082
    1PA    C116  779   0.028   0.286   5.284  0.6645  0.1092 -0.2527
    1PA    H16R  780   0.082   0.381   5.275  2.5981 -0.8662  0.5242
    1PA    H16S  781   0.019   0.260   5.389 -0.1004  1.8989  0.1672
    1PA    H16T  782  -0.071   0.301   5.238  2.4399  3.2519 -3.6086
    1PA    C115  783   0.099   0.179   5.204 -0.0647 -0.5804 -0.9382
    1PA    H15R  784   0.041   0.088   5.220 -0.5175  0.1895  2.6423
    1PA    H15S  785   0.093   0.206   5.098 -0.3155  2.0600 -0.3207
    1PA    C114  786   0.244   0.167   5.259 -0.8492 -0.0689  0.1889
    1PA    H14R  787   0.250   0.113   5.354  1.4015 -0.7179 -0.2561
    1PA    H14S  788   0.294   0.109   5.181 -0.4692 -0.6420  0.8505
    1PA    C113  789   0.346   0.283   5.277  0.4603 -0.2914  0.2297
    1PA    H13R  790   0.351   0.338   5.183  0.7895 -1.2724 -0.3388
    1PA    H13S  791   0.308   0.343   5.360  1.6873  0.0514  0.5646
    1PA    C112  792   0.496   0.248   5.308 -0.1354 -0.1867 -0.0095
    1PA    H12R  793   0.543   0.205   5.219 -1.2000 -0.7682 -0.3080
    1PA    H12S  794   0.551   0.339   5.332  2.1151 -0.8856 -2.1374
    1PA    C111  795   0.517   0.160   5.429  0.2755  0.2766 -0.4937
    1PA    H11R  796   0.474   0.194   5.523 -0.7578 -0.0600 -0.8371
    1PA    H11S  797   0.463   0.069   5.400  0.0072  0.0186  0.7275
    1PA    C110  798   0.664   0.124   5.463 -0.4058 -0.4601 -0.4857
    1PA    H10R  799   0.698   0.065   5.377  0.6582 -0.8406  0.1735
    1PA    H10S  800   0.727   0.213   5.469  1.0682 -1.5399  0.6315
    1PA     C19  801   0.679   0.040   5.595 -0.1708  0.2134 -0.2773
    1PA     H9R  802   0.591  -0.024   5.598 -0.4974  0.6880  1.3312
    1PA     H9S  803   0.763  -0.030   5.597 -2.1545 -2.3312  1.9239
    1PA     C18  804   0.691   0.112   5.732 -0.3222  0.6612 -0.3302
    1PA     H8R  805   0.767   0.190   5.723  0.2889 -0.1449 -3.5592
    1PA     H8S  806   0.593   0.160   5.732  0.5981  2.7225 -2.5374
    1PA     C17  807   0.720   0.021   5.848  0.0426  0.1825 -0.4688
    1PA     H7R  808   0.639  -0.052   5.854 -0.8613  0.9301 -2.7040
    1PA     H7S  809   0.807  -0.044   5.839  0.1592  0.2865 -0.1093
    1PA     C16  810   0.720   0.092   5.981 -0.4020  0.0073  0.5890
    1PA     H6R  811   0.807   0.158   5.976  1.2025 -1.9796  0.5260
    1PA     H6S  812   0.636   0.160   5.995 -0.6280 -0.5798  2.3320
    1PA     C15  813   0.735   0.003   6.102  0.3051 -0.4146  0.6132
    1PA     H5R  814   0.830  -0.051   6.100  0.3497 -0.3549  0.9268
    1PA     H5S  815   0.748   0.070   6.187  1.8673 -2.2502  1.9297
    1PA     C14  816   0.628  -0.096   6.137  0.4104  0.7042 -0.2356
    1PA     H4R  817   0.640  -0.185   6.074  0.5354  0.3527  0.2741
    1PA     H4S  818   0.654  -0.137   6.235 -0.6736 -1.4019 -0.7535
    1PA     C13  819   0.485  -0.041   6.141 -0.0070 -0.5213  0.0380
    1PA     H3R  820   0.457  -0.001   6.043  1.8516 -2.1779 -1.2574
    1PA     H3S  821   0.414  -0.120   6.168  2.7541 -2.8136  1.1859
    1PA     C12  822   0.476   0.075   6.241 -0.1166  0.1386 -0.6924
    1PA     H2R  823   0.567   0.134   6.258  0.8729 -1.5220 -0.0037
    1PA     H2S  824   0.408   0.148   6.197 -1.9547 -1.5774 -0.8197
    1PC     C11  825   0.423   0.029   6.378  0.6090 -0.2854 -0.7205
    1PC     O12  826   0.485  -0.039   6.462  0.0895 -0.2032 -0.2712
    1PC     O11  827   0.309   0.084   6.419 -0.2372  0.7032 -0.4220
    1PC      C1  828   0.278   0.084   6.559  0.3695  0.6968  0.0284
    1PC      HR  829   0.169   0.093   6.567  0.1548 -1.0585 -0.5222
    1PC      HS  830   0.309  -0.009   6.608 -1.4262  0.1403  0.1999
    1PC      C2  831   0.342   0.203   6.636  0.0052 -0.3213  0.7562
    1PC      HX  832   0.446   0.174   6.652  0.6865  1.2331 -0.5389
    1PC      C3  833   0.273   0.225   6.761 -0.0341 -0.3806  0.1514
    1PC      HA  834   0.300   0.321   6.806 -1.3801 -0.1894  0.5912
    1PC      HB  835   0.167   0.230   6.736 -0.1060  1.5764  0.6254
    1PC     O31  836   0.288   0.115   6.858 -0.1123  0.1090  0.2181
    1PC     P31  837   0.407   0.111   6.951 -0.0505  0.1398 -0.0460
    1PC     O32  838   0.507   0.039   6.869 -0.1501  0.4644  0.4242
    1PC     C31  839   0.486  -0.099   6.835  0.2896  0.0485  0.5363
    1PC     H1A  840   0.380  -0.121   6.821 -0.0705  1.1761  1.3660
    1PC     H1B  841   0.547  -0.113   6.745  1.0100 -0.0155  1.0280
    1PC     C32  842   0.560  -0.182   6.946 -0.1464  0.3931  0.2245
    1PC     H2A  843   0.654  -0.137   6.977  0.5240 -1.3605  0.8808
    1PC     H2B  844   0.493  -0.177   7.033 -1.0565 -0.8149 -0.3676
    1PC     N31  845   0.585  -0.327   6.929 -0.2257  0.9377  0.0552
    1PC     C33  846   0.479  -0.398   6.852  0.3385  0.7145  0.1213
    1PC     H3A  847   0.387  -0.352   6.888  1.5660  1.0612  3.0588
    1PC     H3B  848   0.484  -0.393   6.743  0.2496 -1.9446 -0.0662
    1PC     H3C  849   0.493  -0.505   6.871  0.1882  0.7261  0.2958
    1PC     C34  850   0.705  -0.351   6.840 -0.3362 -0.0497 -0.6161
    1PC     H4A  851   0.664  -0.363   6.740 -1.0827  4.9322 -1.1721
    1PC     H4B  852   0.776  -0.268   6.841  1.3610 -1.4207 -1.9047
    1PC     H4C  853   0.756  -0.442   6.872 -0.8469  0.6322  2.5340
    1PC     C35  854   0.604  -0.390   7.067  0.8877 -0.2030 -0.4743
    1PC     H5A  855   0.508  -0.394   7.117  0.5147  2.2613 -0.8364
    1PC     H5B  856   0.684  -0.342   7.125  0.9568 -0.1194 -0.6347
    1PC     H5C  857   0.641  -0.490   7.046  2.9100  0.2805  0.5205
    1PC     O33  858   0.457   0.246   6.983  0.4008  0.0528  0.1488
    1PC     O34  859   0.375   0.024   7.067 -0.7374  0.0383 -0.4593
    1PC     O21  860   0.324   0.331   6.559  0.1713  0.2636 -0.4349
    1PC     C21  861   0.428   0.374   6.481  0.1885 -0.2412  0.3575
    1PC     O22  862   0.533   0.313   6.468 -0.2872 -0.1075 -0.4884
    1OL     C12  863   0.399   0.504   6.408 -0.3745 -0.7211  0.1179
    1OL     H2R  864   0.427   0.579   6.481 -0.9851  0.2783 -0.6551
    1OL     H2S  865   0.292   0.512   6.390 -0.1530 -0.6147 -1.2571
    1OL     C13  866   0.472   0.514   6.273  0.2728 -0.4073 -0.4192
    1OL     H3R  867   0.464   0.416   6.224  1.5851 -0.2124 -1.0547
    1OL     H3S  868   0.580   0.524   6.278  0.3714 -0.9607 -1.2069
    1OL     C14  869   0.429   0.621   6.172 -0.6157 -0.7704 -0.5347
    1OL     H4R  870   0.333   0.590   6.129 -0.1599 -1.7547 -0.8793
    1OL     H4S  871   0.504   0.618   6.093  0.4318  0.8840  0.3469
    1OL     C15  872   0.425   0.765   6.231 -0.4422 -0.2390  0.3370
    1OL     H5R  873   0.521   0.793   6.276 -0.6160  0.5100  0.2602
    1OL     H5S  874   0.353   0.771   6.313 -0.0045 -0.8815  0.7754
    1OL     C16  875   0.398   0.863   6.112 -0.4378  0.1661  1.0589
    1OL     H6R  876   0.370   0.802   6.026  2.8334 -1.9530  1.3459
    1OL     H6S  877   0.490   0.917   6.089 -0.8740 -0.1532 -1.7094
    1OL     C17  878   0.276   0.943   6.140 -0.4457  0.5545 -0.0068
    1OL     H7R  879   0.278   1.004   6.230 -0.0103  2.1465 -1.0499
    1OL     H7S  880   0.187   0.881   6.135  0.6111 -0.9745 -0.8109
    1OL     C18  881   0.266   1.056   6.041  1.1409  0.0021  0.3572
    1OL     H8R  882   0.268   1.028   5.935 -0.2755 -0.4130  0.4184
    1OL     H8S  883   0.343   1.132   6.058  1.1097 -0.2468  1.6546
    1OL     C19  884   0.143   1.139   6.064  0.0862 -0.4310  1.0828
    1OL     H9R  885   0.164   1.221   6.132  1.3180  0.5194 -0.3826
    1OL    C110  886   0.028   1.143   5.986 -0.7658 -0.4883  0.3386
    1OL    H10R  887  -0.044   1.217   6.020 -3.8393 -2.7399 -0.8231
    1OL    C111  888  -0.012   1.050   5.880 -0.2468  0.1788 -0.2528
    1OL    H11R  889  -0.110   1.014   5.911 -0.3325 -0.4108 -1.1857
    1OL    H11S  890   0.057   0.965   5.880 -1.3954 -0.7971 -1.2964
    1OL    C112  891  -0.020   1.126   5.747  0.0236  0.1166 -0.3497
    1OL    H12R  892   0.076   1.171   5.720  1.1785 -1.9448  0.0615
    1OL    H12S  893  -0.094   1.205   5.761 -0.8497 -0.8027  0.4159
    1OL    C113  894  -0.066   1.028   5.637 -0.3804 -0.3976  0.2535
    1OL    H13R  895  -0.118   1.079   5.556 -0.0690 -0.3694  0.0683
    1OL    H13S  896  -0.144   0.963   5.678 -0.6405 -0.5563 -0.4837
    1OL    C114  897   0.061   0.961   5.581  0.0268  0.5413  0.0157
    1OL    H14R  898   0.116   0.908   5.659 -2.6155 -2.7429 -0.1411
    1OL    H14S  899   0.130   1.042   5.555  1.8031 -0.3480  1.7132
    1OL    C115  900   0.050   0.877   5.458 -0.0355  0.2642  1.3134
    1OL    H15R  901   0.008   0.936   5.376  0.8508 -0.2487  0.4708
    1OL    H15S  902  -0.032   0.807   5.477 -0.5474  0.3445 -0.4604
    1OL    C116  903   0.178   0.805   5.410  0.0929 -0.2261 -0.5077
    1OL    H16R  904   0.211   0.736   5.488  1.6134 -0.0017 -0.9104
    1OL    H16S  905   0.259   0.878   5.400 -0.0737  0.0418  0.0517
    1OL    C117  906   0.158   0.719   5.282 -0.3817  0.1359 -1.0741
    1OL    H17R  907   0.123   0.778   5.197 -2.0120 -2.3466 -2.2486
    1OL    H17S  908   0.076   0.648   5.295  0.4533 -0.7356 -0.4275
    1OL    C118  909   0.279   0.634   5.242 -0.0432  0.1929  0.1268
    1OL    H18R  910   0.263   0.589   5.143  1.1398  0.5651 -0.2465
    1OL    H18S  911   0.298   0.566   5.325 -3.5859  0.8851  1.7065
    1OL    H18T  912   0.366   0.697   5.222  0.4124 -0.6991 -0.8224
    1PA    C116  913   2.493   3.266   5.974  0.0402  0.1835  0.6430
    1PA    H16R  914   2.530   3.164   5.965 -3.5961 -1.3119  1.0023
    1PA    H16S  915   2.385   3.250   5.979  0.0683 -0.6680 -0.9606
    1PA    H16T  916   2.533   3.331   6.052  0.2744 -0.3232  0.9423
    1PA    C115  917   2.520   3.346   5.838 -0.9757 -0.8750 -0.5265
    1PA    H15R  918   2.496   3.292   5.745 -0.2539 -1.6839 -0.2603
    1PA    H15S  919   2.454   3.432   5.835 -1.7249 -1.4157  0.0499
    1PA    C114  920   2.664   3.399   5.843  0.4368 -0.4405 -0.0535
    1PA    H14R  921   2.676   3.470   5.925 -0.8005  1.8320 -1.7170
    1PA    H14S  922   2.729   3.312   5.854  2.3994  0.9158 -0.3950
    1PA    C113  923   2.711   3.466   5.716 -0.3132  0.3265  0.1779
    1PA    H13R  924   2.821   3.466   5.718 -0.2643 -0.1663 -1.3009
    1PA    H13S  925   2.694   3.397   5.633 -0.5042 -2.1772  2.1731
    1PA    C112  926   2.646   3.605   5.681 -0.6269 -0.1521  0.0091
    1PA    H12R  927   2.577   3.594   5.597 -3.3229 -1.6960  2.2738
    1PA    H12S  928   2.588   3.631   5.769 -0.8096  0.9029 -0.4022
    1PA    C111  929   2.743   3.723   5.670 -0.2077  0.3883 -0.4870
    1PA    H11R  930   2.829   3.688   5.613 -0.4830 -0.7912 -0.2090
    1PA    H11S  931   2.690   3.802   5.617 -1.6435 -0.5420 -0.5049
    1PA    C110  932   2.802   3.775   5.802 -0.4037 -0.0608 -0.2958
    1PA    H10R  933   2.854   3.694   5.853  0.3661  1.0166  0.7010
    1PA    H10S  934   2.885   3.840   5.774  2.5013 -2.8446  1.2994
    1PA     C19  935   2.694   3.837   5.904  0.0263  0.2668 -0.0861
    1PA     H9R  936   2.639   3.754   5.947 -0.6656  0.3006 -0.8789
    1PA     H9S  937   2.745   3.891   5.985  2.3720 -0.9699 -0.6692
    1PA     C18  938   2.602   3.942   5.838 -0.3762  0.5399  0.4100
    1PA     H8R  939   2.658   4.002   5.765 -0.9222 -0.2090 -0.6504
    1PA     H8S  940   2.548   3.880   5.766 -1.5972  0.7961  1.0760
    1PA     C17  941   2.504   4.027   5.917  0.3163  0.6281 -0.8276
    1PA     H7R  942   2.552   4.106   5.974  0.1938  0.5793 -0.6552
    1PA     H7S  943   2.430   4.082   5.858 -1.5330 -0.3681  0.4561
    1PA     C16  944   2.430   3.932   6.016 -0.6343 -0.2976 -0.1059
    1PA     H6R  945   2.396   3.846   5.958  0.4631 -1.0885  0.3989
    1PA     H6S  946   2.497   3.888   6.090 -0.5071 -0.0165 -0.0543
    1PA     C15  947   2.310   3.992   6.090  0.3936 -0.8031 -0.5961
    1PA     H5R  948   2.338   4.074   6.156 -2.6435 -1.0818  1.1833
    1PA     H5S  949   2.245   4.031   6.012 -0.8272 -0.2059  0.6987
    1PA     C14  950   2.221   3.888   6.158  0.6565  0.8936 -0.3290
    1PA     H4R  951   2.141   3.944   6.207 -0.6597  1.6186 -3.0559
    1PA     H4S  952   2.172   3.826   6.082 -0.7617  0.7450  0.6644
    1PA     C13  953   2.287   3.805   6.267  0.6941 -0.3759  0.1876
    1PA     H3R  954   2.366   3.740   6.227  0.0058 -0.5187 -1.0004
    1PA     H3S  955   2.330   3.873   6.341 -0.1137  0.5919 -0.2189
    1PA     C12  956   2.195   3.717   6.355 -0.1714 -0.0962 -0.8528
    1PA     H2R  957   2.144   3.646   6.289  1.5038 -0.8774 -1.3730
    1PA     H2S  958   2.264   3.662   6.420  0.2388  1.2724 -0.0923
    1PC     C11  959   2.109   3.803   6.441  0.3068  0.6600  0.3081
    1PC     O12  960   2.146   3.881   6.528  0.0908 -0.0910  0.0012
    1PC     O11  961   1.977   3.799   6.400  0.1269  0.0008 -0.3314
    1PC      C1  962   1.875   3.875   6.469 -0.9302 -0.0609 -0.2312
    1PC      HR  963   1.776   3.841   6.436 -0.8599 -0.2640 -0.2329
    1PC      HS  964   1.870   3.853   6.576 -2.3476  0.3435 -0.1926
    1PC      C2  965   1.886   4.030   6.455  0.3256 -0.5004 -0.4688
    1PC      HX  966   1.988   4.059   6.481  0.1683 -1.1543  0.9881
    1PC      C3  967   1.796   4.108   6.553 -0.2400 -0.3031  0.1575
    1PC      HA  968   1.820   4.214   6.538  2.2555 -1.0062 -1.4478
    1PC      HB  969   1.691   4.086   6.531  0.2204 -2.3209 -0.2471
    1PC     O31  970   1.819   4.059   6.689 -0.4177 -0.5398 -0.0058
    1PC     P31  971   1.828   4.152   6.814 -0.2202 -0.5362 -0.1776
    1PC     O32  972   1.935   4.252   6.767 -0.1639  0.4784  0.4289
    1PC     C31  973   2.066   4.202   6.733 -0.6395  0.5495  0.1159
    1PC     H1A  974   2.119   4.206   6.828 -0.7513  2.4147  0.1283
    1PC     H1B  975   2.067   4.103   6.685  0.7873  1.0130 -0.8794
    1PC     C32  976   2.124   4.303   6.631 -0.3710  0.4026 -0.3905
    1PC     H2A  977   2.063   4.291   6.542 -1.9808 -1.7112  0.8850
    1PC     H2B  978   2.102   4.399   6.677  1.1047  0.1848  0.8606
    1PC     N31  979   2.272   4.293   6.600  0.2047 -0.1024  0.4574
    1PC     C33  980   2.304   4.403   6.511 -0.4195 -0.2133  0.2278
    1PC     H3A  981   2.267   4.503   6.533  1.5397  0.4302  0.8009
    1PC     H3B  982   2.413   4.409   6.503 -0.4580  0.5821  0.2465
    1PC     H3C  983   2.266   4.368   6.415  3.9794 -0.8270 -1.5113
    1PC     C34  984   2.343   4.314   6.724  0.1136 -0.2107 -0.3767
    1PC     H4A  985   2.334   4.235   6.798  2.9447  0.1084  0.4295
    1PC     H4B  986   2.451   4.320   6.711  0.0424  0.0597 -0.8916
    1PC     H4C  987   2.295   4.397   6.777 -1.6382 -0.2185 -1.8414
    1PC     C35  988   2.298   4.167   6.531  0.4093 -0.2514 -0.1898
    1PC     H5A  989   2.280   4.086   6.602 -0.3455 -1.0840 -1.2983
    1PC     H5B  990   2.404   4.163   6.504  0.3449 -0.0333 -0.4781
    1PC     H5C  991   2.233   4.164   6.444 -2.3653  4.1884  1.4183
    1PC     O33  992   1.702   4.220   6.832  0.5337  0.4195  0.0834
    1PC     O34  993   1.887   4.086   6.933 -0.2418  0.1032 -0.0005
    1PC     O21  994   1.862   4.074   6.325  0.1711 -0.5158  0.0414
    1PC     C21  995   1.942   4.171   6.270 -0.7596 -0.0615 -0.2058
    1PC     O22  996   2.048   4.214   6.308 -0.4645 -0.4095  0.7537
    1OL     C12  997   1.892   4.219   6.138  0.1155  0.1441  0.9321
    1OL     H2R  998   1.869   4.325   6.150 -2.7620 -0.2240 -0.3177
    1OL     H2S  999   1.795   4.173   6.118  0.3398 -0.0327  0.2252
    1OL     C13 1000   1.981   4.164   6.015 -0.1017  0.3358  0.1531
    1OL     H3R 1001   1.978   4.055   6.014 -0.2836  0.3430 -0.5337
    1OL     H3S 1002   2.086   4.191   6.022 -0.5840  2.3472  0.3388
    1OL     C14 1003   1.901   4.201   5.884 -0.3951  0.2896 -0.3310
    1OL     H4R 1004   1.884   4.309   5.885  1.2534  0.5806 -1.1151
    1OL     H4S 1005   1.802   4.153   5.884  0.8350 -2.4974 -1.5501
    1OL     C15 1006   1.992   4.167   5.766 -0.1370  0.5827 -0.4803
    1OL     H5R 1007   2.029   4.065   5.776  0.5126  0.8880  0.3511
    1OL     H5S 1008   2.079   4.233   5.765  1.8812 -1.6145  3.4823
    1OL     C16 1009   1.919   4.195   5.631  0.1847  0.1099 -0.2010
    1OL     H6R 1010   1.825   4.140   5.629  1.4269 -2.1999  0.8225
    1OL     H6S 1011   1.893   4.300   5.621  3.0096  0.9484  0.4167
    1OL     C17 1012   2.003   4.153   5.514 -0.0766  0.0628 -0.3406
    1OL     H7R 1013   2.018   4.046   5.532  0.7799  0.5813  2.5080
    1OL     H7S 1014   2.096   4.210   5.521 -1.4473  2.2655  1.4778
    1OL     C18 1015   1.943   4.176   5.375 -0.3686  0.3731 -0.0974
    1OL     H8R 1016   1.888   4.270   5.373 -0.4438  0.4099  1.7494
    1OL     H8S 1017   1.863   4.102   5.369  0.7785 -0.8735 -0.8830
    1OL     C19 1018   2.040   4.160   5.267  0.3375  0.4780 -0.3470
    1OL     H9R 1019   2.111   4.077   5.271 -0.0263  0.2004  0.5812
    1OL    C110 1020   2.045   4.240   5.162 -0.2842  0.6502  0.3365
    1OL    H10R 1021   2.126   4.219   5.092  0.6505 -1.5224  1.9217
    1OL    C111 1022   1.938   4.332   5.117  0.0489  0.3948 -0.5242
    1OL    H11R 1023   1.843   4.290   5.152 -0.2912  0.3594 -1.4602
    1OL    H11S 1024   1.936   4.342   5.009  0.1923  4.3823 -0.3109
    1OL    C112 1025   1.959   4.475   5.171  0.6442 -0.3550 -0.0281
    1OL    H12R 1026   2.066   4.493   5.186  0.7106  1.8532 -2.5325
    1OL    H12S 1027   1.916   4.490   5.271  1.3630 -0.3608  0.2899
    1OL    C113 1028   1.894   4.578   5.079 -0.1689  0.6890  0.7400
    1OL    H13R 1029   1.785   4.573   5.072 -0.1291  0.3014  0.3715
    1OL    H13S 1030   1.930   4.576   4.976 -0.9749  1.7411  0.4182
    1OL    C114 1031   1.925   4.722   5.127  0.8575  0.0962 -1.0286
    1OL    H14R 1032   1.937   4.790   5.043  2.6178  0.4549 -0.5269
    1OL    H14S 1033   2.026   4.725   5.170  0.6002  1.5208 -0.4718
    1OL    C115 1034   1.814   4.776   5.223 -0.1703  0.1012 -0.8713
    1OL    H15R 1035   1.777   4.700   5.292  0.1992  0.8049  0.1272
    1OL    H15S 1036   1.731   4.800   5.157 -0.1374 -0.4584 -1.1181
    1OL    C116 1037   1.844   4.905   5.299  0.5492 -0.2998 -0.3872
    1OL    H16R 1038   1.931   4.888   5.362  1.7456 -0.5243 -2.0330
    1OL    H16S 1039   1.758   4.936   5.359  0.8057 -0.2410 -0.0458
    1OL    C117 1040   1.873   5.026   5.205 -0.3140 -0.2040 -0.0905
    1OL    H17R 1041   1.959   5.001   5.144 -0.5897  0.4338 -0.7603
    1OL    H17S 1042   1.900   5.112   5.268 -1.6781  0.7783 -0.7836
    1OL    C118 1043   1.751   5.059   5.118 -0.1143  0.1112 -0.0916
    1OL    H18R 1044   1.759   5.159   5.075 -0.0506  0.2746  0.2940
    1OL    H18S 1045   1.664   5.043   5.182  0.7488 -4.0115  0.3133
    1OL    H18T 1046   1.739   4.994   5.031  0.2518  0.6396 -0.5448
    1PA    C116 1047   1.181   1.145   5.090  0.2869 -0.3195 -0.5971
    1PA    H16R 1048   1.100   1.158   5.161 -0.8624 -0.9023 -1.7451
    1PA    H16S 1049   1.180   1.043   5.050  1.1703  0.3594 -2.4765
    1PA    H16T 1050   1.158   1.211   5.006  0.6851 -1.8717 -1.9847
    1PA    C115 1051   1.314   1.190   5.145 -0.2271  1.0867  0.1189
    1PA    H15R 1052   1.349   1.138   5.234  1.1223  0.4308 -0.7554
    1PA    H15S 1053   1.388   1.170   5.067  2.7372  1.7876  2.5813
    1PA    C114 1054   1.319   1.338   5.165  0.0634 -0.0756 -0.3507
    1PA    H14R 1055   1.423   1.369   5.170  0.1651 -0.5574  0.8313
    1PA    H14S 1056   1.278   1.384   5.075 -1.2946 -1.3534 -0.4248
    1PA    C113 1057   1.248   1.390   5.286  0.5391  0.4112 -0.6435
    1PA    H13R 1058   1.250   1.499   5.294 -2.0699  0.3738  4.5397
    1PA    H13S 1059   1.142   1.364   5.285  0.8247 -0.9734 -2.9848
    1PA    C112 1060   1.304   1.335   5.421  0.2528 -0.2697  0.5297
    1PA    H12R 1061   1.264   1.234   5.417 -1.2159  0.3067 -2.4813
    1PA    H12S 1062   1.413   1.329   5.418  0.4789  2.2669  1.2977
    1PA    C111 1063   1.244   1.414   5.537  0.3874 -0.8861  0.1191
    1PA    H11R 1064   1.283   1.516   5.534  0.2622 -0.8381  0.1267
    1PA    H11S 1065   1.135   1.415   5.531  0.2846  0.1230  1.7115
    1PA    C110 1066   1.281   1.339   5.667 -0.2049 -0.0717 -0.0797
    1PA    H10R 1067   1.252   1.234   5.661  2.9960 -1.1712  1.1960
    1PA    H10S 1068   1.389   1.322   5.671 -0.0728 -0.0164 -2.1225
    1PA     C19 1069   1.230   1.398   5.794 -0.0460 -0.1104 -0.5698
    1PA     H9R 1070   1.219   1.322   5.872  0.1295  0.1153 -0.3251
    1PA     H9S 1071   1.302   1.474   5.825 -1.0304  1.2745 -1.5480
    1PA     C18 1072   1.087   1.463   5.790  0.0053 -0.4188 -0.0721
    1PA     H8R 1073   1.097   1.563   5.747  2.5752 -0.1882  0.9104
    1PA     H8S 1074   1.020   1.399   5.732 -0.9710  0.0888  0.4658
    1PA     C17 1075   1.032   1.484   5.932  0.3113  0.2441  1.1276
    1PA     H7R 1076   0.924   1.472   5.921  0.4105  1.1660 -1.6749
    1PA     H7S 1077   1.061   1.393   5.985  1.3461  1.2833  2.4111
    1PA     C16 1078   1.073   1.613   6.012  0.8256  0.2765 -0.3117
    1PA     H6R 1079   1.177   1.600   6.044  0.5458  0.2772  0.6330
    1PA     H6S 1080   1.073   1.695   5.940 -0.2337  1.2211  0.7125
    1PA     C15 1081   0.982   1.645   6.140 -0.6788  0.4802 -0.2801
    1PA     H5R 1082   1.026   1.718   6.209 -0.2618 -1.2893  1.4311
    1PA     H5S 1083   0.896   1.698   6.097 -3.1035 -1.2496  2.1107
    1PA     C14 1084   0.942   1.521   6.231  0.2268 -0.2351 -0.4227
    1PA     H4R 1085   0.861   1.555   6.295  1.9450  0.6377  1.3846
    1PA     H4S 1086   0.901   1.438   6.173  0.4482 -1.8678  1.6331
    1PA     C13 1087   1.062   1.469   6.317 -0.1776  0.3440  0.0441
    1PA     H3R 1088   1.135   1.424   6.249 -0.3706  0.1985 -0.0658
    1PA     H3S 1089   1.100   1.561   6.361  0.2963  0.1099  0.1337
    1PA     C12 1090   1.026   1.371   6.436 -0.0007 -0.4226  0.2315
    1PA     H2R 1091   0.979   1.281   6.395  0.0405 -1.5046  2.4543
    1PA     H2S 1092   1.122   1.336   6.473  0.9138  1.1457 -0.5365
    1PC     C11 1093   0.955   1.449   6.542  0.8526 -0.3475  0.1404
    1PC     O12 1094   0.834   1.456   6.557  0.0629  0.0653  0.0379
    1PC     O11 1095   1.040   1.505   6.628  0.3873  0.0351  0.0988
    1PC      C1 1096   0.990   1.564   6.746  0.9432 -0.5201 -0.8450
    1PC      HR 1097   0.899   1.618   6.719  0.7642 -1.9519 -3.4903
    1PC      HS 1098   0.955   1.487   6.815  0.5406  0.2955 -0.1180
    1PC      C2 1099   1.103   1.647   6.810  0.3828 -0.0449  0.3881
    1PC      HX 1100   1.195   1.587   6.806  0.2106 -0.4531  1.9866
    1PC      C3 1101   1.054   1.688   6.949 -0.2852  0.5565  0.1705
    1PC      HA 1102   1.044   1.591   6.998  0.5825 -1.0431 -2.5429
    1PC      HB 1103   1.136   1.752   6.985  2.1907 -1.0059 -2.2556
    1PC     O31 1104   0.936   1.759   6.946  0.1582 -0.4137  0.3060
    1PC     P31 1105   0.828   1.743   7.066 -0.3760 -0.1554  0.2316
    1PC     O32 1106   0.886   1.830   7.186  0.4276  0.6118  0.4984
    1PC     C31 1107   0.992   1.765   7.261  0.6465 -0.6219 -0.4146
    1PC     H1A 1108   0.969   1.667   7.303  1.6661 -1.2220 -1.2233
    1PC     H1B 1109   1.086   1.747   7.208  0.7248 -0.3533 -0.3687
    1PC     C32 1110   1.038   1.849   7.383  0.5180 -0.6292 -0.2198
    1PC     H2A 1111   1.137   1.814   7.413  0.2599 -0.7686  0.4969
    1PC     H2B 1112   1.057   1.949   7.344  1.2448 -0.3475  0.8007
    1PC     N31 1113   0.939   1.872   7.501  0.1375  0.0150  0.1947
    1PC     C33 1114   0.989   1.994   7.577  0.0020  0.8052  0.5441
    1PC     H3A 1115   0.969   1.974   7.682  1.3282  0.1875  0.7015
    1PC     H3B 1116   1.097   1.988   7.562 -0.2110 -0.1641 -0.8124
    1PC     H3C 1117   0.948   2.085   7.532  1.2318  1.2353  0.2535
    1PC     C34 1118   0.798   1.891   7.460  0.2423 -0.4552  0.1183
    1PC     H4A 1119   0.761   1.808   7.399 -2.1919  0.3342  0.4032
    1PC     H4B 1120   0.732   1.898   7.547  0.5314 -0.4278  0.3367
    1PC     H4C 1121   0.790   1.987   7.409 -0.3352 -0.0658  0.9031
    1PC     C35 1122   0.948   1.761   7.593  0.2418  0.4551 -0.2443
    1PC     H5A 1123   0.935   1.667   7.540 -0.5363 -0.2015  1.0740
    1PC     H5B 1124   0.874   1.773   7.672  2.2539 -1.0819  2.0236
    1PC     H5C 1125   1.048   1.756   7.637  0.2487  1.8722 -0.0391
    1PC     O33 1126   0.702   1.807   7.028  0.2525  0.2199 -0.0065
    1PC     O34 1127   0.831   1.598   7.103 -0.1293  0.4452 -0.4926
    1PC     O21 1128   1.117   1.758   6.725 -0.8473 -0.7245  0.4300
    1PC     C21 1129   1.237   1.822   6.726 -0.5743  0.1546 -0.9350
    1PC     O22 1130   1.330   1.807   6.806 -0.3943  0.3747 -0.2421
    1OL     C12 1131   1.254   1.899   6.596 -0.1142  0.2324 -0.2548
    1OL     H2R 1132   1.344   1.959   6.610 -0.0408 -0.5565  3.7001
    1OL     H2S 1133   1.173   1.971   6.578 -0.3662  0.0478  0.1255
    1OL     C13 1134   1.270   1.792   6.483 -0.1607 -0.9164  0.7207
    1OL     H3R 1135   1.180   1.730   6.490 -1.2590  0.6807  1.8811
    1OL     H3S 1136   1.360   1.733   6.500  1.3612  0.8480 -0.7758
    1OL     C14 1137   1.285   1.871   6.348  1.2806  0.4359  0.0724
    1OL     H4R 1138   1.197   1.935   6.338  2.1816  1.4458 -2.0445
    1OL     H4S 1139   1.262   1.807   6.262 -1.7110 -2.8685  2.9857
    1OL     C15 1140   1.418   1.950   6.328 -0.1717  0.4113 -0.4711
    1OL     H5R 1141   1.493   1.874   6.300  1.2813  1.8003 -0.4919
    1OL     H5S 1142   1.456   1.986   6.424  0.5776 -1.5660  0.0476
    1OL     C16 1143   1.409   2.056   6.216 -0.2841  0.0005  0.6428
    1OL     H6R 1144   1.356   2.150   6.231  2.5769  1.9081 -0.3091
    1OL     H6S 1145   1.364   2.004   6.132 -0.4900 -0.6473  1.1437
    1OL     C17 1146   1.551   2.099   6.178  0.2745 -0.0992 -0.2939
    1OL     H7R 1147   1.608   2.128   6.267 -0.8550  0.7535  0.1760
    1OL     H7S 1148   1.546   2.188   6.115  1.1343  0.9973  1.1170
    1OL     C18 1149   1.641   2.000   6.108  0.4485 -0.6176 -0.0271
    1OL     H8R 1150   1.590   1.944   6.029  1.1037 -0.7260 -0.3801
    1OL     H8S 1151   1.667   1.918   6.175 -1.3167 -2.9664 -2.0054
    1OL     C19 1152   1.759   2.069   6.043 -0.8053 -0.3552 -1.2172
    1OL     H9R 1153   1.850   2.057   6.102 -0.1779 -1.5456 -2.3798
    1OL    C110 1154   1.762   2.137   5.932  0.1485  0.2788  0.4946
    1OL    H10R 1155   1.855   2.187   5.907 -1.4826  2.4605 -1.7399
    1OL    C111 1156   1.649   2.176   5.838  0.4316 -0.4340 -0.6730
    1OL    H11R 1157   1.629   2.283   5.849 -0.8763 -0.5834 -1.4128
    1OL    H11S 1158   1.561   2.114   5.857 -0.7429  1.9883  2.6481
    1OL    C112 1159   1.697   2.171   5.696  0.7278 -0.0149  0.0893
    1OL    H12R 1160   1.731   2.068   5.687  1.0180  0.2498 -2.5333
    1OL    H12S 1161   1.772   2.250   5.690 -1.4125  1.9915 -2.7933
    1OL    C113 1162   1.581   2.196   5.600  0.0254  0.2463  0.5249
    1OL    H13R 1163   1.534   2.290   5.631  0.6794  0.7725 -0.0411
    1OL    H13S 1164   1.506   2.117   5.606 -1.8884  1.8689 -0.6312
    1OL    C114 1165   1.621   2.225   5.453  0.5934 -0.2181 -0.3070
    1OL    H14R 1166   1.701   2.299   5.458  1.6109 -1.2979 -0.4331
    1OL    H14S 1167   1.531   2.260   5.400 -0.4992 -1.7113  0.4931
    1OL    C115 1168   1.669   2.107   5.376 -0.3162  0.0545  0.2628
    1OL    H15R 1169   1.585   2.038   5.372 -1.1757  1.0484  0.8270
    1OL    H15S 1170   1.746   2.068   5.443  0.1213  2.6381  1.3672
    1OL    C116 1171   1.713   2.137   5.232 -0.1694  0.1599 -0.3508
    1OL    H16R 1172   1.782   2.063   5.191 -1.7753 -0.1438 -2.7180
    1OL    H16S 1173   1.759   2.236   5.224  0.0234  0.0981 -0.0310
    1OL    C117 1174   1.592   2.126   5.132 -0.4275 -0.5969  0.4810
    1OL    H17R 1175   1.508   2.175   5.181 -0.2161  0.0241  0.2400
    1OL    H17S 1176   1.568   2.020   5.126 -1.9714 -0.1922 -1.4644
    1OL    C118 1177   1.621   2.183   4.995  0.0896  0.0383  0.0360
    1OL    H18R 1178   1.539   2.179   4.923  0.5710 -0.6869 -0.4815
    1OL    H18S 1179   1.710   2.133   4.957  1.0153  0.6604  1.3301
    1OL    H18T 1180   1.641   2.289   5.007  1.3661 -0.0798 -0.9393
    1PA    C116 1181   1.853   3.300   5.615  0.1419 -0.6643  0.1229
    1PA    H16R 1182   1.897   3.206   5.581 -0.1950 -0.7028 -0.2079
    1PA    H16S 1183   1.902   3.330   5.708  0.3614 -0.6820  0.0127
    1PA    H16T 1184   1.869   3.375   5.537 -1.9182 -2.6287 -2.4062
    1PA    C115 1185   1.704   3.283   5.647  0.3406 -0.6315 -0.0354
    1PA    H15R 1186   1.651   3.378   5.646  0.0967 -0.7678 -0.0929
    1PA    H15S 1187   1.652   3.222   5.572 -0.6658 -0.3060  0.3816
    1PA    C114 1188   1.700   3.204   5.788  1.0860  0.6315 -0.1510
    1PA    H14R 1189   1.764   3.116   5.778 -0.1369 -0.1619 -1.2749
    1PA    H14S 1190   1.739   3.268   5.868 -0.9625  1.3394  0.3493
    1PA    C113 1191   1.558   3.182   5.823  0.5863 -0.7486  0.3554
    1PA    H13R 1192   1.547   3.181   5.932  1.4712 -2.4034  0.4601
    1PA    H13S 1193   1.504   3.270   5.788  0.5990  0.1207  2.3448
    1PA    C112 1194   1.492   3.053   5.767  0.2379 -0.4154  0.6460
    1PA    H12R 1195   1.494   3.070   5.659 -2.4276  0.5607  0.6625
    1PA    H12S 1196   1.542   2.959   5.789 -0.8901 -1.4905 -1.1434
    1PA    C111 1197   1.347   3.025   5.811 -0.8976  0.2617 -0.4932
    1PA    H11R 1198   1.274   3.090   5.761  0.9807  1.0888 -2.3467
    1PA    H11S 1199   1.314   2.928   5.775 -1.7657  0.5364 -0.4494
    1PA    C110 1200   1.334   3.014   5.966 -0.5962 -0.4350 -0.4359
    1PA    H10R 1201   1.404   2.938   6.002  0.2177  1.4148  2.2885
    1PA    H10S 1202   1.374   3.091   6.033 -1.3270 -1.1954  0.9168
    1PA     C19 1203   1.184   3.004   6.004  0.3282 -0.3824  0.2866
    1PA     H9R 1204   1.142   3.099   5.968 -1.3844 -1.8803 -1.9684
    1PA     H9S 1205   1.132   2.930   5.943  0.4059  0.6422 -1.0813
    1PA     C18 1206   1.155   2.966   6.151  0.5484 -0.2467 -0.5443
    1PA     H8R 1207   1.196   2.865   6.155  0.2889 -0.3270  0.2579
    1PA     H8S 1208   1.211   3.035   6.214 -1.3672 -0.3873  1.4286
    1PA     C17 1209   1.010   2.961   6.194  0.0490 -0.5662  0.5665
    1PA     H7R 1210   0.968   3.062   6.197  3.6572  1.1378 -1.1428
    1PA     H7S 1211   0.948   2.902   6.127 -0.6064 -0.1477  0.7904
    1PA     C16 1212   0.987   2.908   6.340  0.5053  0.7409 -0.1648
    1PA     H6R 1213   1.015   2.803   6.348 -1.7686  0.1438  0.9009
    1PA     H6S 1214   1.053   2.963   6.408  0.8833 -0.2517  0.2870
    1PA     C15 1215   0.842   2.933   6.383  0.0610  0.2549 -0.1221
    1PA     H5R 1216   0.787   2.925   6.289 -0.2763  0.0183  0.0950
    1PA     H5S 1217   0.810   2.853   6.450 -0.6620  1.4977  1.0767
    1PA     C14 1218   0.808   3.065   6.451  0.8257  0.2158 -0.8477
    1PA     H4R 1219   0.878   3.073   6.534 -0.3021  0.2924  0.1328
    1PA     H4S 1220   0.809   3.153   6.386 -0.6232  1.8365  1.1811
    1PA     C13 1221   0.669   3.059   6.505 -0.3134 -0.0669  0.2899
    1PA     H3R 1222   0.640   3.162   6.525  1.2683  0.3393  0.5947
    1PA     H3S 1223   0.597   3.024   6.430 -1.3605 -0.0550  1.2565
    1PA     C12 1224   0.628   2.980   6.630 -0.1970 -0.1338 -0.4150
    1PA     H2R 1225   0.651   2.875   6.610  1.6598  0.2305 -0.3776
    1PA     H2S 1226   0.692   3.008   6.714  0.1459 -0.7145 -0.4744
    1PC     C11 1227   0.482   2.992   6.660  0.0367  0.4230  0.3963
    1PC     O12 1228   0.403   2.901   6.645  0.6692  0.1351 -0.1157
    1PC     O11 1229   0.441   3.117   6.684 -0.7133  0.2631 -0.0574
    1PC      C1 1230   0.301   3.141   6.737 -0.0473  0.2209 -0.5037
    1PC      HR 1231   0.228   3.103   6.666  0.1089 -0.0395 -0.5280
    1PC      HS 1232   0.301   3.081   6.828 -0.9079  1.0310  0.0515
    1PC      C2 1233   0.285   3.291   6.775 -0.6733 -0.0470  0.4315
    1PC      HX 1234   0.369   3.310   6.843 -1.2417 -1.4530  1.5775
    1PC      C3 1235   0.147   3.317   6.822  0.2051 -0.1616  1.3568
    1PC      HA 1236   0.147   3.423   6.847 -1.1889  0.3492 -0.5920
    1PC      HB 1237   0.078   3.292   6.742  0.8868  0.5620  0.5274
    1PC     O31 1238   0.106   3.235   6.941  0.5129 -0.3199  0.1154
    1PC     P31 1239  -0.019   3.278   7.021  0.0850  0.2615  0.4374
    1PC     O32 1240  -0.127   3.262   6.913 -0.1523 -0.1801 -0.3602
    1PC     C31 1241  -0.171   3.132   6.877  0.1764  0.5927  0.2868
    1PC     H1A 1242  -0.092   3.083   6.820  0.7872 -0.0597  1.6507
    1PC     H1B 1243  -0.178   3.067   6.964  2.0318 -1.3214 -0.8827
    1PC     C32 1244  -0.302   3.146   6.797 -0.7274  0.3254  1.1636
    1PC     H2A 1245  -0.271   3.203   6.710  0.7715 -0.7757  0.9474
    1PC     H2B 1246  -0.344   3.050   6.767 -1.0577  0.1791  2.0637
    1PC     N31 1247  -0.405   3.225   6.865  0.3310  0.3370 -0.3068
    1PC     C33 1248  -0.390   3.365   6.831 -0.4159 -0.1716  0.7063
    1PC     H3A 1249  -0.435   3.419   6.914 -0.8332 -0.3163  0.5776
    1PC     H3B 1250  -0.290   3.407   6.820 -1.0335  0.8579 -1.6304
    1PC     H3C 1251  -0.441   3.386   6.737  2.5458 -0.0808 -1.0242
    1PC     C34 1252  -0.537   3.180   6.809 -0.0101 -0.0932 -0.7806
    1PC     H4A 1253  -0.540   3.193   6.701 -0.3206  1.0685 -0.6429
    1PC     H4B 1254  -0.551   3.074   6.829  1.0874 -0.2642 -0.8353
    1PC     H4C 1255  -0.613   3.240   6.859  0.9251  1.5948 -1.3105
    1PC     C35 1256  -0.414   3.205   7.010  0.0634 -0.9136 -0.7126
    1PC     H5A 1257  -0.496   3.263   7.053  1.1647  0.6991 -0.6646
    1PC     H5B 1258  -0.322   3.244   7.055 -0.2676  0.0507 -0.8360
    1PC     H5C 1259  -0.424   3.099   7.035 -2.1563 -1.0068 -1.7939
    1PC     O33 1260  -0.046   3.192   7.139  0.2730 -0.8634 -0.2326
    1PC     O34 1261  -0.005   3.425   7.039  0.6446 -0.8567  0.5123
    1PC     O21 1262   0.310   3.364   6.648  0.1193 -0.1944 -0.1592
    1PC     C21 1263   0.419   3.444   6.634  0.2248  1.3140 -0.1223
    1PC     O22 1264   0.514   3.449   6.713 -0.2708 -0.4954 -0.0756
    1OL     C12 1265   0.420   3.518   6.500 -0.0833  0.6770  0.1170
    1OL     H2R 1266   0.347   3.599   6.510 -0.2792  0.2732  2.6462
    1OL     H2S 1267   0.379   3.455   6.422 -0.4682  0.5046  0.4532
    1OL     C13 1268   0.556   3.582   6.457  0.2791 -0.0767  0.1025
    1OL     H3R 1269   0.596   3.652   6.530  0.8991 -0.5430  0.2204
    1OL     H3S 1270   0.539   3.643   6.368 -0.5876  0.5761  0.6960
    1OL     C14 1271   0.660   3.473   6.440  0.3503 -0.6113  0.1715
    1OL     H4R 1272   0.677   3.402   6.521  1.5640 -2.0158 -1.2416
    1OL     H4S 1273   0.760   3.507   6.414  0.0512  0.3622  0.2657
    1OL     C15 1274   0.635   3.375   6.320 -0.2688 -0.4792 -0.3514
    1OL     H5R 1275   0.552   3.310   6.349 -0.6073  0.9263  2.1116
    1OL     H5S 1276   0.724   3.313   6.310 -0.3779 -1.1273  1.9579
    1OL     C16 1277   0.602   3.444   6.193 -0.3085  0.0914  0.1916
    1OL     H6R 1278   0.522   3.518   6.193 -0.5197 -0.1000 -1.7615
    1OL     H6S 1279   0.556   3.372   6.125 -1.0284  0.2749  0.4717
    1OL     C17 1280   0.715   3.494   6.107  0.1470 -0.3817  0.0442
    1OL     H7R 1281   0.795   3.424   6.078  0.6160  0.6115 -1.1456
    1OL     H7S 1282   0.769   3.554   6.180  1.0077  0.1915 -1.0314
    1OL     C18 1283   0.673   3.581   5.988 -0.1775  0.3779  0.2984
    1OL     H8R 1284   0.609   3.660   6.028 -2.0382 -0.4905 -0.8230
    1OL     H8S 1285   0.605   3.522   5.927 -0.1677  1.6130 -0.9415
    1OL     C19 1286   0.790   3.639   5.913  0.0230  0.4916 -0.2561
    1OL     H9R 1287   0.879   3.645   5.975 -1.8416  3.1419  2.4757
    1OL    C110 1288   0.803   3.678   5.789 -0.6269 -0.0118 -0.9597
    1OL    H10R 1289   0.903   3.703   5.754  0.9600 -2.9357  1.0433
    1OL    C111 1290   0.699   3.657   5.679 -0.1290  0.4164  0.1934
    1OL    H11R 1291   0.661   3.747   5.630 -0.2269  0.1016 -0.3123
    1OL    H11S 1292   0.620   3.602   5.730  1.1144 -1.7784 -0.1101
    1OL    C112 1293   0.763   3.568   5.571 -0.1503  0.1804  0.3416
    1OL    H12R 1294   0.777   3.463   5.598  0.4750  0.4994  1.2979
    1OL    H12S 1295   0.868   3.597   5.568 -0.0703  0.0234  1.3701
    1OL    C113 1296   0.698   3.587   5.432 -0.2760 -0.0312  0.2619
    1OL    H13R 1297   0.763   3.554   5.352  0.2193  2.2639 -0.3491
    1OL    H13S 1298   0.686   3.694   5.418  0.4991 -0.0991 -1.0389
    1OL    C114 1299   0.558   3.515   5.421  0.1018 -0.3034 -0.0262
    1OL    H14R 1300   0.486   3.563   5.354 -0.2055 -2.4230 -1.3274
    1OL    H14S 1301   0.510   3.503   5.518 -1.0833  0.9383 -0.4261
    1OL    C115 1302   0.572   3.367   5.376  1.1298 -0.0199 -0.5837
    1OL    H15R 1303   0.474   3.322   5.395  1.7295 -1.4911 -0.9078
    1OL    H15S 1304   0.644   3.316   5.440  0.2354 -1.7136 -0.8524
    1OL    C116 1305   0.606   3.350   5.224 -0.1617 -0.7596  0.1095
    1OL    H16R 1306   0.709   3.383   5.213 -0.8912  1.7460  0.2335
    1OL    H16S 1307   0.544   3.408   5.155 -0.1144  0.1409  0.8203
    1OL    C117 1308   0.600   3.207   5.171 -0.3662 -0.5314  0.8595
    1OL    H17R 1309   0.500   3.167   5.184 -0.1223 -1.7914 -0.7464
    1OL    H17S 1310   0.674   3.153   5.230  4.2816  2.2598 -1.7913
    1OL    C118 1311   0.638   3.206   5.017  0.2203 -0.2273 -0.4451
    1OL    H18R 1312   0.743   3.234   5.006  0.3082 -1.0879 -2.0408
    1OL    H18S 1313   0.588   3.284   4.959  3.1225  0.1108 -2.7183
    1OL    H18T 1314   0.621   3.107   4.973 -0.7087 -1.3433  2.2157
    1PA    C116 1315   1.828   0.486   5.078  0.6424  0.3027 -0.3718
    1PA    H16R 1316   1.910   0.453   5.142  1.1745  0.7341 -0.8160
    1PA    H16S 1317   1.864   0.527   4.984  0.4401 -0.5034 -0.8098
    1PA    H16T 1318   1.773   0.395   5.052  2.1383 -1.0112  0.8748
    1PA    C115 1319   1.737   0.594   5.152 -0.0449  0.0024 -0.2964
    1PA    H15R 1320   1.791   0.687   5.171  0.0801 -0.2194  0.5061
    1PA    H15S 1321   1.666   0.637   5.082 -2.6468 -1.5517  1.2168
    1PA    C114 1322   1.664   0.531   5.273  0.0373  0.0004  0.2128
    1PA    H14R 1323   1.580   0.590   5.309  1.1170  0.3202  2.3527
    1PA    H14S 1324   1.620   0.438   5.238 -0.2735 -0.6328  2.1390
    1PA    C113 1325   1.754   0.487   5.383 -0.2562 -0.5284  0.0007
    1PA    H13R 1326   1.829   0.424   5.335  0.2273 -0.3673  0.5320
    1PA    H13S 1327   1.808   0.567   5.435 -0.4921 -0.9809  0.9465
    1PA    C112 1328   1.677   0.410   5.499  0.2840  0.0989 -0.2634
    1PA    H12R 1329   1.585   0.363   5.461 -0.2926  1.4628 -0.6031
    1PA    H12S 1330   1.738   0.339   5.554 -0.2088  1.1002  1.6605
    1PA    C111 1331   1.625   0.506   5.602  0.4202 -0.0375  0.1630
    1PA    H11R 1332   1.535   0.552   5.561 -0.4059  0.4317  2.3274
    1PA    H11S 1333   1.582   0.453   5.688  0.1414 -2.2017 -1.2233
    1PA    C110 1334   1.716   0.608   5.668 -0.8180  0.5357 -0.1335
    1PA    H10R 1335   1.741   0.682   5.591  3.0190 -2.0150 -1.6572
    1PA    H10S 1336   1.651   0.649   5.745 -1.0129  2.4433 -1.2237
    1PA     C19 1337   1.847   0.552   5.733  0.2016  0.6023 -0.0453
    1PA     H9R 1338   1.914   0.516   5.655  0.4219  0.0577  0.3854
    1PA     H9S 1339   1.905   0.633   5.779  1.7055 -0.7209  0.4898
    1PA     C18 1340   1.834   0.438   5.837  0.4437  0.6381 -0.1186
    1PA     H8R 1341   1.784   0.354   5.788 -2.8834  2.5885 -0.4300
    1PA     H8S 1342   1.934   0.414   5.871 -0.2172 -0.4339  1.1518
    1PA     C17 1343   1.764   0.485   5.965  0.0208 -0.6736  0.2690
    1PA     H7R 1344   1.772   0.593   5.977  3.1275 -0.8721  0.8197
    1PA     H7S 1345   1.657   0.465   5.953 -0.4533  1.4637  0.4563
    1PA     C16 1346   1.818   0.435   6.099  0.4011  0.2022  0.2428
    1PA     H6R 1347   1.760   0.464   6.187  1.0990 -0.3242  0.8864
    1PA     H6S 1348   1.798   0.329   6.089 -1.4394  0.5622 -0.2568
    1PA     C15 1349   1.969   0.460   6.133  0.0339 -0.4060  0.6985
    1PA     H5R 1350   2.034   0.398   6.071 -0.2412 -0.9042  0.9044
    1PA     H5S 1351   1.983   0.567   6.116  0.8160  0.3351  4.9134
    1PA     C14 1352   2.015   0.434   6.273  0.2438 -0.1658 -0.1738
    1PA     H4R 1353   1.988   0.331   6.295 -0.4896  0.0129 -0.2124
    1PA     H4S 1354   2.123   0.442   6.291 -0.1478 -0.5302  2.6592
    1PA     C13 1355   1.940   0.524   6.374 -0.4558 -0.0172 -0.1408
    1PA     H3R 1356   1.930   0.622   6.328  1.7812 -0.3086 -1.3790
    1PA     H3S 1357   1.842   0.479   6.392  0.3230 -1.1112  1.7544
    1PA     C12 1358   1.999   0.524   6.519 -1.0149  0.1295 -0.1398
    1PA     H2R 1359   1.992   0.422   6.556  3.0754  0.6249  2.6584
    1PA     H2S 1360   2.105   0.551   6.522 -0.7910 -0.3443 -2.0836
    1PC     C11 1361   1.918   0.613   6.608  1.1587 -1.1174  0.7662
    1PC     O12 1362   1.897   0.729   6.576  0.2571 -0.2731  0.0597
    1PC     O11 1363   1.866   0.544   6.712  0.1992  0.4926 -0.1814
    1PC      C1 1364   1.757   0.605   6.776  0.5258 -0.0946  0.9581
    1PC      HR 1365   1.745   0.564   6.877  1.2121 -1.7475  0.3969
    1PC      HS 1366   1.759   0.714   6.787 -0.3228  0.1594 -1.0499
    1PC      C2 1367   1.624   0.569   6.702 -0.3872  0.1247  0.0131
    1PC      HX 1368   1.543   0.615   6.760 -2.1442  0.5092 -2.5591
    1PC      C3 1369   1.594   0.416   6.700 -0.3217  0.7631  1.1567
    1PC      HA 1370   1.490   0.398   6.671 -0.3468  1.8496  0.5008
    1PC      HB 1371   1.673   0.371   6.638 -0.8911  0.8993  0.3131
    1PC     O31 1372   1.604   0.351   6.826  0.1230 -0.4735 -0.6271
    1PC     P31 1373   1.484   0.349   6.936  0.1473 -0.2776  0.5449
    1PC     O32 1374   1.405   0.211   6.904  0.0194 -0.6674 -0.4525
    1PC     C31 1375   1.441   0.080   6.950 -0.0432  0.6640 -0.3229
    1PC     H1A 1376   1.477   0.019   6.867 -0.4272 -0.1362  0.0863
    1PC     H1B 1377   1.514   0.097   7.030  0.9138 -1.0045 -0.7962
    1PC     C32 1378   1.309   0.023   7.008 -0.8141  0.0937  0.0527
    1PC     H2A 1379   1.268   0.102   7.070  0.3510 -0.2550  1.3021
    1PC     H2B 1380   1.247   0.005   6.920  1.0532 -1.0398 -1.1087
    1PC     N31 1381   1.324  -0.109   7.076  0.6930 -0.3778  0.2232
    1PC     C33 1382   1.441  -0.110   7.166  0.1097  0.3789  0.4275
    1PC     H3A 1383   1.527  -0.102   7.100 -2.7573  0.2382 -3.7100
    1PC     H3B 1384   1.429  -0.045   7.253  1.9023 -2.1493  2.7242
    1PC     H3C 1385   1.447  -0.212   7.204  0.3556  0.3833  0.4015
    1PC     C34 1386   1.211  -0.141   7.171  0.3405 -0.0524  0.0984
    1PC     H4A 1387   1.221  -0.065   7.248 -0.6609  0.7251 -0.5196
    1PC     H4B 1388   1.114  -0.130   7.122  0.1929 -0.8225  0.1909
    1PC     H4C 1389   1.221  -0.241   7.214 -0.3081 -0.0076  0.3617
    1PC     C35 1390   1.344  -0.221   6.986 -0.1422 -0.3996  0.6115
    1PC     H5A 1391   1.334  -0.313   7.043  0.1164 -2.3065 -2.2524
    1PC     H5B 1392   1.439  -0.206   6.935 -0.9918 -1.1179 -1.2389
    1PC     H5C 1393   1.259  -0.213   6.919  0.8998 -0.8649 -0.7981
    1PC     O33 1394   1.543   0.337   7.068  0.2202  0.6950 -0.1399
    1PC     O34 1395   1.388   0.459   6.908  0.2177  0.1670  0.5492
    1PC     O21 1396   1.617   0.618   6.573  0.4809 -0.0577  0.1429
    1PC     C21 1397   1.599   0.751   6.557  0.3141  0.6397 -0.1533
    1PC     O22 1398   1.612   0.837   6.641  0.1078  0.4827  0.0536
    1OL     C12 1399   1.566   0.770   6.415 -0.1841 -0.1905  0.4058
    1OL     H2R 1400   1.564   0.677   6.359 -0.1552 -0.2026  0.4249
    1OL     H2S 1401   1.644   0.830   6.368 -0.9400 -0.1523 -0.8575
    1OL     C13 1402   1.419   0.828   6.410 -0.7936  0.2138 -0.3406
    1OL     H3R 1403   1.425   0.924   6.461  2.9128  0.4275 -0.9383
    1OL     H3S 1404   1.361   0.760   6.474  0.2802 -0.6195 -0.2325
    1OL     C14 1405   1.361   0.829   6.269  0.0115 -0.0426  0.5775
    1OL     H4R 1406   1.304   0.737   6.258  0.4010 -0.0702 -1.5191
    1OL     H4S 1407   1.440   0.832   6.194  0.7098  0.8741  1.3132
    1OL     C15 1408   1.259   0.945   6.254 -0.4716 -0.2460 -0.1209
    1OL     H5R 1409   1.296   1.044   6.281 -2.4504  0.0575  1.7517
    1OL     H5S 1410   1.185   0.936   6.334  0.0740 -1.0697  0.2952
    1OL     C16 1411   1.194   0.953   6.110 -0.3797 -0.0305 -0.2297
    1OL     H6R 1412   1.137   0.866   6.077 -1.8383  0.6733  0.3086
    1OL     H6S 1413   1.270   0.976   6.036  1.4240 -0.9340  1.2694
    1OL     C17 1414   1.085   1.060   6.110  0.1489 -0.3356 -0.5604
    1OL     H7R 1415   1.128   1.149   6.156 -0.6692  0.7298 -1.7790
    1OL     H7S 1416   1.005   1.031   6.178  0.4867 -0.1439 -0.0730
    1OL     C18 1417   1.029   1.094   5.969  0.3927 -0.3983  0.0412
    1OL     H8R 1418   1.105   1.124   5.896  0.6552  1.5758  1.0532
    1OL     H8S 1419   0.961   1.178   5.984  0.1804 -0.6818  0.7093
    1OL     C19 1420   0.933   0.992   5.905  0.2735  0.3486 -0.1140
    1OL     H9R 1421   0.875   0.927   5.970  1.1902 -0.7806 -0.4037
    1OL    C110 1422   0.923   0.966   5.775 -0.5391 -0.7360 -0.1364
    1OL    H10R 1423   0.863   0.885   5.733 -1.1000 -0.6645  0.5068
    1OL    C111 1424   1.001   1.034   5.662 -0.5017 -0.7861  0.0692
    1OL    H11R 1425   1.066   0.964   5.610 -1.5585 -1.8338  0.1354
    1OL    H11S 1426   1.059   1.118   5.702  0.7508 -1.0104 -1.1865
    1OL    C112 1427   0.901   1.078   5.555 -0.1955 -0.4201 -0.3243
    1OL    H12R 1428   0.847   1.160   5.602 -0.3709 -1.0835  0.6497
    1OL    H12S 1429   0.830   0.996   5.541 -0.1083 -0.8606  1.5815
    1OL    C113 1430   0.971   1.123   5.427 -0.5458  0.2526 -0.0061
    1OL    H13R 1431   1.009   1.028   5.387 -0.3574 -0.9229  2.7536
    1OL    H13S 1432   1.053   1.189   5.454 -1.2629  0.9405  0.5176
    1OL    C114 1433   0.867   1.188   5.332 -0.0962  0.1863 -0.9153
    1OL    H14R 1434   0.921   1.269   5.282 -1.3471  1.1425 -0.7530
    1OL    H14S 1435   0.782   1.223   5.391 -0.5839 -0.2342 -1.3590
    1OL    C115 1436   0.828   1.085   5.228  0.7341  0.2027  0.3062
    1OL    H15R 1437   0.820   0.991   5.284 -1.1688  0.3175  0.3069
    1OL    H15S 1438   0.901   1.086   5.147 -0.2048 -0.4503 -0.5780
    1OL    C116 1439   0.690   1.126   5.172  0.1138 -0.0040  0.0294
    1OL    H16R 1440   0.697   1.214   5.107 -0.0574 -0.4386 -0.5837
    1OL    H16S 1441   0.625   1.146   5.258  0.8942  0.6577  0.4813
    1OL    C117 1442   0.632   1.011   5.078 -0.2284  0.7060  0.0078
    1OL    H17R 1443   0.603   0.925   5.139 -1.2290  0.3175 -0.9907
    1OL    H17S 1444   0.711   0.982   5.009  1.8259 -0.6240  2.7167
    1OL    C118 1445   0.498   1.055   5.010 -0.5498 -0.1237 -0.3473
    1OL    H18R 1446   0.478   1.004   4.916  0.4527 -0.9221 -0.1473
    1OL    H18S 1447   0.512   1.161   4.987 -0.6849  0.2235  1.0624
    1OL    H18T 1448   0.412   1.044   5.077 -1.1325 -0.8444 -1.2077
    1PA    C116 1449   1.702   1.491   5.211 -0.1843 -0.0050  0.1691
    1PA    H16R 1450   1.765   1.422   5.267 -0.5387  0.5356  1.2409
    1PA    H16S 1451   1.754   1.539   5.128  0.5913  2.3173  1.9017
    1PA    H16T 1452   1.633   1.434   5.148  1.8986 -0.2891 -2.0341
    1PA    C115 1453   1.622   1.594   5.293 -0.2221 -0.1744  0.0962
    1PA    H15R 1454   1.531   1.622   5.238 -0.9187 -1.0948  0.7499
    1PA    H15S 1455   1.592   1.545   5.386 -0.4561  1.4528  0.9097
    1PA    C114 1456   1.714   1.715   5.330  0.0717 -0.2111  0.0419
    1PA    H14R 1457   1.740   1.771   5.240  0.2968 -1.4084 -0.6482
    1PA    H14S 1458   1.644   1.779   5.385 -1.0422 -2.2169  1.0893
    1PA    C113 1459   1.838   1.679   5.409 -0.2395 -0.6390  0.2105
    1PA    H13R 1460   1.813   1.600   5.480 -0.2747 -1.1239 -0.3294
    1PA    H13S 1461   1.913   1.637   5.341 -1.3004 -1.3870 -0.5353
    1PA    C112 1462   1.906   1.801   5.481  0.0369 -0.7871  0.8641
    1PA    H12R 1463   1.938   1.877   5.410  1.1345 -0.5183  1.6221
    1PA    H12S 1464   1.835   1.836   5.556 -0.7033  1.6237 -0.8340
    1PA    C111 1465   2.031   1.753   5.550 -0.2765 -0.2734  0.0638
    1PA    H11R 1466   2.016   1.670   5.619 -1.7567 -0.6198 -0.6504
    1PA    H11S 1467   2.105   1.715   5.480  1.1215  2.1277  0.1201
    1PA    C110 1468   2.106   1.871   5.624 -0.3210  0.2928  0.0966
    1PA    H10R 1469   2.205   1.827   5.635 -1.5028 -2.7180 -0.2258
    1PA    H10S 1470   2.126   1.952   5.553 -1.8676 -0.7658 -1.6323
    1PA     C19 1471   2.052   1.911   5.763  0.0122 -0.2450  0.4330
    1PA     H9R 1472   2.095   2.005   5.798  0.2947 -0.0868 -0.3168
    1PA     H9S 1473   1.946   1.937   5.762  0.2703  0.9682  1.3943
    1PA     C18 1474   2.070   1.807   5.878 -0.2344  0.1792  0.0192
    1PA     H8R 1475   2.024   1.711   5.851  1.0781 -0.9175  1.4942
    1PA     H8S 1476   2.177   1.788   5.888 -0.7385 -2.5184  1.3581
    1PA     C17 1477   2.015   1.844   6.017  0.1688  0.5852 -0.6105
    1PA     H7R 1478   2.063   1.939   6.042  0.3354  0.5053 -0.6250
    1PA     H7S 1479   1.906   1.850   6.014 -0.4140 -4.5405  0.8325
    1PA     C16 1480   2.044   1.745   6.135 -0.1329 -0.0109 -0.7456
    1PA     H6R 1481   2.010   1.643   6.114 -0.9749  0.7249 -3.3845
    1PA     H6S 1482   2.150   1.734   6.159 -0.1663 -0.9002 -0.9652
    1PA     C15 1483   1.969   1.781   6.263  0.1772  0.4751  0.0339
    1PA     H5R 1484   1.864   1.799   6.241 -0.6224  0.5352  3.3408
    1PA     H5S 1485   1.973   1.708   6.344  1.2349 -0.4197 -0.7832
    1PA     C14 1486   2.019   1.914   6.319  0.0979 -0.4349  0.2176
    1PA     H4R 1487   2.127   1.909   6.334 -0.0566 -0.1472  1.6414
    1PA     H4S 1488   1.999   1.986   6.240  2.2210 -0.7206 -0.6434
    1PA     C13 1489   1.943   1.965   6.450 -0.0015  0.3916 -0.0595
    1PA     H3R 1490   1.979   2.061   6.488  0.6911  0.1313 -0.0462
    1PA     H3S 1491   1.843   1.991   6.412  0.4398  0.5733 -1.1441
    1PA     C12 1492   1.928   1.871   6.566  0.0074  0.4558 -0.9250
    1PA     H2R 1493   1.872   1.783   6.532  0.6040 -0.4542  0.3607
    1PA     H2S 1494   2.025   1.838   6.604 -0.4661  1.9719  1.8377
    1PC     C11 1495   1.863   1.925   6.696 -0.5913  0.0537 -0.2614
    1PC     O12 1496   1.928   1.955   6.795  0.5912 -0.0425 -0.2748
    1PC     O11 1497   1.730   1.941   6.681  0.4740  0.3983  0.1183
    1PC      C1 1498   1.653   1.963   6.805 -0.1748 -0.1806 -0.3544
    1PC      HR 1499   1.551   1.930   6.786 -0.3647 -2.0923  3.2676
    1PC      HS 1500   1.675   1.895   6.887 -2.7635 -1.6499 -0.7840
    1PC      C2 1501   1.654   2.120   6.850  0.4211 -0.1606  0.4589
    1PC      HX 1502   1.753   2.144   6.890  0.1924 -0.1549  1.0311
    1PC      C3 1503   1.546   2.136   6.962 -0.0717 -0.2549 -0.3525
    1PC      HA 1504   1.529   2.241   6.988  0.3779 -0.2018 -0.2709
    1PC      HB 1505   1.449   2.094   6.933  0.0204 -0.9503  0.3063
    1PC     O31 1506   1.602   2.069   7.079  0.3007 -0.4803 -0.2511
    1PC     P31 1507   1.570   2.111   7.227 -0.0870 -0.0691 -0.0047
    1PC     O32 1508   1.690   2.211   7.253  0.7346  0.2997  0.3838
    1PC     C31 1509   1.827   2.159   7.271  0.2132  0.2824 -0.2512
    1PC     H1A 1510   1.826   2.086   7.353  1.5652  0.1452 -0.3415
    1PC     H1B 1511   1.872   2.114   7.182  0.2115  0.7129 -0.4699
    1PC     C32 1512   1.921   2.279   7.307 -0.0269 -0.5523 -0.2803
    1PC     H2A 1513   1.964   2.319   7.215  1.6019  0.1304  0.7342
    1PC     H2B 1514   1.864   2.350   7.367  0.2359 -1.3295  0.9315
    1PC     N31 1515   2.045   2.249   7.398  0.2278  0.7218  0.0742
    1PC     C33 1516   2.119   2.374   7.426  0.0120 -0.0393 -0.1412
    1PC     H3A 1517   2.222   2.358   7.460 -0.1058 -0.1601  0.1683
    1PC     H3B 1518   2.130   2.446   7.345 -0.4416  2.8208  2.1321
    1PC     H3C 1519   2.056   2.425   7.500  1.7614  1.7438  0.2229
    1PC     C34 1520   2.013   2.171   7.518  0.3430  0.7126 -0.2470
    1PC     H4A 1521   1.944   2.092   7.489  0.8777  0.1384  0.0296
    1PC     H4B 1522   2.098   2.134   7.574 -0.7332 -0.5523  0.6049
    1PC     H4C 1523   1.957   2.237   7.584  1.1007  1.7469 -0.6015
    1PC     C35 1524   2.136   2.158   7.314  0.2373 -0.5938 -0.2308
    1PC     H5A 1525   2.185   2.212   7.233  1.4356 -0.6421  0.4250
    1PC     H5B 1526   2.085   2.068   7.278  1.8373 -0.9799 -1.6499
    1PC     H5C 1527   2.221   2.121   7.372  2.6279  0.3276 -2.8671
    1PC     O33 1528   1.438   2.183   7.227 -0.3852 -0.0690 -0.4472
    1PC     O34 1529   1.590   1.994   7.313  0.5073  0.1036 -0.5572
    1PC     O21 1530   1.618   2.195   6.729 -0.3556  0.2704 -0.5295
    1PC     C21 1531   1.700   2.281   6.674 -0.6018 -0.3087  0.0632
    1PC     O22 1532   1.804   2.315   6.732  0.5154 -0.0993 -0.3539
    1OL     C12 1533   1.676   2.314   6.530 -0.2530  0.2642 -0.0219
    1OL     H2R 1534   1.585   2.375   6.526 -1.5211 -1.5710 -0.5698
    1OL     H2S 1535   1.659   2.218   6.482  1.0977 -1.2346  2.3197
    1OL     C13 1536   1.800   2.381   6.463  0.0756 -0.0621 -0.3649
    1OL     H3R 1537   1.894   2.331   6.486 -0.0446  0.0841  0.4926
    1OL     H3S 1538   1.813   2.486   6.492  1.4217 -0.8177  2.0261
    1OL     C14 1539   1.781   2.374   6.304 -0.0035 -0.2438  0.1917
    1OL     H4R 1540   1.756   2.272   6.274  0.3192 -0.1455 -0.4290
    1OL     H4S 1541   1.878   2.389   6.256 -0.4344 -1.8605 -1.3084
    1OL     C15 1542   1.674   2.474   6.248  0.4741  0.6064  0.0664
    1OL     H5R 1543   1.679   2.566   6.307 -3.1544 -0.1366  1.8048
    1OL     H5S 1544   1.573   2.435   6.260  0.2629  1.3762  0.9146
    1OL     C16 1545   1.703   2.505   6.098 -0.0634 -0.1740  0.0387
    1OL     H6R 1546   1.710   2.410   6.046 -0.8178 -0.2644  0.0920
    1OL     H6S 1547   1.805   2.544   6.104  0.0180 -0.4634  0.7311
    1OL     C17 1548   1.597   2.598   6.035 -0.2331 -0.2314 -0.5500
    1OL     H7R 1549   1.601   2.695   6.085  0.6994 -0.4817 -0.1310
    1OL     H7S 1550   1.502   2.547   6.052 -0.9103  1.3814  0.7818
    1OL     C18 1551   1.637   2.607   5.886 -0.0262  0.0115 -0.2097
    1OL     H8R 1552   1.643   2.508   5.841  1.3983 -0.4279  0.8476
    1OL     H8S 1553   1.737   2.652   5.887 -0.8698  2.0016 -0.6675
    1OL     C19 1554   1.537   2.699   5.811  0.1101 -0.1977 -0.1244
    1OL     H9R 1555   1.484   2.770   5.874  1.1970 -1.7144  2.6695
    1OL    C110 1556   1.515   2.690   5.679  0.4586 -0.5306 -0.4048
    1OL    H10R 1557   1.429   2.742   5.636 -0.3986 -1.7998 -0.2620
    1OL    C111 1558   1.598   2.604   5.585  0.4285 -0.3636  0.9504
    1OL    H11R 1559   1.635   2.509   5.625  1.3192 -0.3261  0.2446
    1OL    H11S 1560   1.689   2.655   5.552 -0.4207 -0.0513 -1.0700
    1OL    C112 1561   1.527   2.582   5.443 -0.0323  0.0289  0.5677
    1OL    H12R 1562   1.588   2.504   5.395 -2.9494 -1.0650 -1.7272
    1OL    H12S 1563   1.542   2.668   5.378  0.3895 -0.1756  0.3869
    1OL    C113 1564   1.383   2.521   5.438 -0.3931  0.2279  0.6084
    1OL    H13R 1565   1.306   2.590   5.474 -0.3217  1.5313 -1.5975
    1OL    H13S 1566   1.384   2.429   5.496 -1.4438 -1.8474 -2.4304
    1OL    C114 1567   1.353   2.477   5.292 -0.1013  0.2401 -0.2611
    1OL    H14R 1568   1.262   2.416   5.298  0.5640 -0.9424 -1.4824
    1OL    H14S 1569   1.426   2.406   5.252  0.8880  1.3884 -0.5451
    1OL    C115 1570   1.338   2.590   5.194 -0.0061 -0.3187  0.4722
    1OL    H15R 1571   1.438   2.635   5.187 -0.2989  0.7146  2.2678
    1OL    H15S 1572   1.269   2.663   5.236 -0.8290 -0.0285 -1.3113
    1OL    C116 1573   1.270   2.558   5.057 -0.5263  0.5588 -0.6152
    1OL    H16R 1574   1.232   2.651   5.014 -3.0674  1.3020  2.8440
    1OL    H16S 1575   1.186   2.493   5.081  0.6831 -1.3373 -1.2209
    1OL    C117 1576   1.364   2.490   4.961 -0.5642  0.0537 -0.5049
    1OL    H17R 1577   1.378   2.389   5.000  1.9039  0.3464 -0.4484
    1OL    H17S 1578   1.463   2.535   4.956  0.2805 -1.5561  0.8749
    1OL    C118 1579   1.317   2.492   4.817  0.1850 -0.2700 -0.5713
    1OL    H18R 1580   1.387   2.438   4.753  0.7365 -0.4585  0.1765
    1OL    H18S 1581   1.317   2.596   4.783 -2.7061  0.3960  1.1512
    1OL    H18T 1582   1.221   2.442   4.803  0.9133 -1.6473 -0.7578
    1PA    C116 1583   4.433   4.877   4.784 -0.5281 -0.6714  0.1576
    1PA    H16R 1584   4.337   4.858   4.833 -0.9165  2.9663  1.0368
    1PA    H16S 1585   4.465   4.785   4.733  0.9355  0.5283 -1.1881
    1PA    H16T 1586   4.414   4.950   4.705 -1.6361 -0.7045  0.3795
    1PA    C115 1587   4.538   4.932   4.882  0.4284  0.0362  0.3547
    1PA    H15R 1588   4.555   4.853   4.955 -1.3595 -1.0171 -0.3044
    1PA    H15S 1589   4.625   4.957   4.821 -1.0870  0.5249 -1.7183
    1PA    C114 1590   4.491   5.066   4.950 -0.1700 -0.2514 -0.0118
    1PA    H14R 1591   4.482   5.152   4.884 -1.5382  0.8032  1.4774
    1PA    H14S 1592   4.395   5.053   5.000 -0.1967 -1.9638 -0.4424
    1PA    C113 1593   4.594   5.099   5.061 -0.2445  0.4962 -0.1754
    1PA    H13R 1594   4.584   5.017   5.133  0.3159  0.9140  0.3922
    1PA    H13S 1595   4.696   5.098   5.022 -0.5796  0.7539 -1.0636
    1PA    C112 1596   4.562   5.219   5.150  0.1244  0.8462 -0.1143
    1PA    H12R 1597   4.552   5.309   5.088 -3.3660  0.4381 -0.3337
    1PA    H12S 1598   4.465   5.203   5.197 -0.2193  1.2474 -0.6677
    1PA    C111 1599   4.675   5.238   5.254  0.1063  0.3414  0.2351
    1PA    H11R 1600   4.697   5.144   5.304 -0.0120 -0.1123 -0.5576
    1PA    H11S 1601   4.768   5.259   5.202 -1.1898 -0.6094 -2.6603
    1PA    C110 1602   4.636   5.330   5.370 -0.0767  0.5165  0.1593
    1PA    H10R 1603   4.612   5.433   5.343  3.2450  1.6412  0.9495
    1PA    H10S 1604   4.549   5.294   5.425  0.7234 -1.2096  0.3788
    1PA     C19 1605   4.751   5.354   5.472 -0.4958 -0.7256 -0.0517
    1PA     H9R 1606   4.775   5.259   5.518 -0.0065  0.0143  1.2842
    1PA     H9S 1607   4.836   5.398   5.419 -1.6845  0.4182 -1.0904
    1PA     C18 1608   4.706   5.459   5.575  0.3078  0.4273 -0.2523
    1PA     H8R 1609   4.648   5.543   5.537  1.2893  0.4529 -1.7546
    1PA     H8S 1610   4.636   5.416   5.648  0.2635  3.5517  1.7471
    1PA     C17 1611   4.823   5.502   5.667 -0.1455 -0.4904 -0.5080
    1PA     H7R 1612   4.858   5.410   5.713 -1.0938 -0.8286 -0.4446
    1PA     H7S 1613   4.898   5.548   5.602 -0.5903 -2.1664 -2.2698
    1PA     C16 1614   4.789   5.592   5.791 -0.5391 -0.2186 -0.2575
    1PA     H6R 1615   4.783   5.697   5.760 -0.6137 -0.0790  0.2281
    1PA     H6S 1616   4.692   5.562   5.829  0.2204  1.1015  3.0757
    1PA     C15 1617   4.893   5.575   5.906 -1.0877 -0.6490 -0.7793
    1PA     H5R 1618   4.891   5.472   5.942 -2.0345 -0.5285 -0.4748
    1PA     H5S 1619   4.995   5.568   5.867  0.1837 -1.2815  2.3460
    1PA     C14 1620   4.863   5.673   6.019  0.4369 -1.1846 -0.3073
    1PA     H4R 1621   4.889   5.773   5.983 -0.2443 -1.3791 -1.3889
    1PA     H4S 1622   4.755   5.675   6.028  0.5102  0.7398  0.6900
    1PA     C13 1623   4.922   5.661   6.153  0.1929 -0.0353 -0.6724
    1PA     H3R 1624   4.897   5.568   6.205  3.1272  0.8332  2.7067
    1PA     H3S 1625   5.031   5.672   6.153  0.1108  0.8818 -0.8990
    1PA     C12 1626   4.876   5.779   6.251  0.3314  0.2194 -0.4261
    1PA     H2R 1627   4.953   5.790   6.329 -2.0659 -1.0761  2.3113
    1PA     H2S 1628   4.858   5.873   6.199 -1.3857 -0.6479 -1.4520
    1PC     C11 1629   4.757   5.747   6.337  0.4753 -0.6025  0.2924
    1PC     O12 1630   4.688   5.652   6.316 -0.0573  0.5725  0.3804
    1PC     O11 1631   4.740   5.844   6.429  0.1348  0.3399  0.4755
    1PC      C1 1632   4.674   5.814   6.552  0.3789  0.3960 -0.5617
    1PC      HR 1633   4.647   5.913   6.591  0.0811  0.2529 -0.4010
    1PC      HS 1634   4.587   5.753   6.525  1.1037  0.3429 -3.0116
    1PC      C2 1635   4.770   5.733   6.641 -0.2254 -0.2940  0.0830
    1PC      HX 1636   4.715   5.692   6.726  0.6343  0.1765  0.8760
    1PC      C3 1637   4.890   5.822   6.693 -0.0645 -0.3829  0.1085
    1PC      HA 1638   4.955   5.758   6.754  0.6495 -0.2082 -0.4530
    1PC      HB 1639   4.944   5.859   6.605  1.4226 -3.5729 -0.4927
    1PC     O31 1640   4.836   5.940   6.771  0.1049  0.7329 -0.0043
    1PC     P31 1641   4.819   5.933   6.937  0.2260  0.1497  0.2238
    1PC     O32 1642   4.967   5.891   6.991  0.0672  0.5065 -0.1323
    1PC     C31 1643   4.985   5.757   7.048  0.1292 -0.0375  0.0311
    1PC     H1A 1644   4.933   5.679   6.992 -0.5290 -0.6070  1.3917
    1PC     H1B 1645   5.089   5.724   7.045  1.2607  3.2387 -0.6581
    1PC     C32 1646   4.944   5.758   7.199  0.5479  0.5980  0.1831
    1PC     H2A 1647   4.839   5.785   7.207  0.9498  1.7835  2.2104
    1PC     H2B 1648   4.952   5.656   7.236 -1.0314  0.6248  0.6627
    1PC     N31 1649   5.018   5.851   7.289  0.4146  0.0113 -0.3775
    1PC     C33 1650   4.955   5.986   7.285 -0.2479 -0.0621  0.1614
    1PC     H3A 1651   4.865   5.980   7.346 -0.4844  1.4362 -0.0059
    1PC     H3B 1652   5.020   6.063   7.326 -0.8869 -0.3271  1.7506
    1PC     H3C 1653   4.928   6.001   7.180  1.3056  2.5403  0.0423
    1PC     C34 1654   4.997   5.796   7.426 -0.3767 -0.3123  0.0881
    1PC     H4A 1655   4.893   5.787   7.459 -1.0421  0.1369 -1.7433
    1PC     H4B 1656   5.031   5.693   7.416 -1.5993 -0.6786 -0.5307
    1PC     H4C 1657   5.060   5.857   7.490  0.6075 -0.1474 -0.9819
    1PC     C35 1658   5.158   5.862   7.252 -0.6548 -0.8272  0.3131
    1PC     H5A 1659   5.172   5.938   7.175 -2.0912 -1.0227 -0.1660
    1PC     H5B 1660   5.196   5.766   7.215  0.1183 -0.8432  1.1160
    1PC     H5C 1661   5.209   5.887   7.345 -0.7159 -2.0673  0.7058
    1PC     O33 1662   4.789   6.071   6.989  0.5363 -0.0706  0.5153
    1PC     O34 1663   4.723   5.831   6.966 -0.3816  0.8489 -0.1103
    1PC     O21 1664   4.839   5.629   6.569 -0.2516 -0.4748  0.0281
    1PC     C21 1665   4.773   5.509   6.565 -0.7942 -0.5575 -0.5313
    1PC     O22 1666   4.675   5.485   6.631 -0.1455 -0.1880  0.2274
    1OL     C12 1667   4.837   5.407   6.478 -0.1526  0.0959 -0.1026
    1OL     H2R 1668   4.926   5.381   6.535 -0.4656  0.5183  0.6055
    1OL     H2S 1669   4.872   5.452   6.385 -1.4356  0.6351 -0.3577
    1OL     C13 1670   4.746   5.290   6.444  1.2580  0.5259 -0.2574
    1OL     H3R 1671   4.717   5.246   6.540 -0.5282  0.9027 -0.5909
    1OL     H3S 1672   4.797   5.215   6.383 -0.6188  0.1902 -1.4673
    1OL     C14 1673   4.618   5.318   6.361  0.4747 -0.1496 -0.7328
    1OL     H4R 1674   4.647   5.372   6.270  0.6785 -0.4120 -0.8225
    1OL     H4S 1675   4.549   5.379   6.420  0.6533 -1.1066  0.5073
    1OL     C15 1676   4.544   5.193   6.327  0.4614  0.2795 -0.1234
    1OL     H5R 1677   4.527   5.142   6.422  2.1373 -0.2965 -0.1168
    1OL     H5S 1678   4.622   5.139   6.273 -0.3716 -0.9967 -0.0969
    1OL     C16 1679   4.417   5.227   6.246  0.5912  0.4625  0.3221
    1OL     H6R 1680   4.361   5.308   6.294  1.5246  0.9919  0.5494
    1OL     H6S 1681   4.359   5.135   6.248  0.6732  0.2612 -2.5560
    1OL     C17 1682   4.444   5.265   6.098 -0.1025  0.1568 -0.3377
    1OL     H7R 1683   4.502   5.356   6.085  0.2757 -0.0515 -0.1152
    1OL     H7S 1684   4.344   5.289   6.062 -0.4809 -1.3561 -0.3634
    1OL     C18 1685   4.505   5.163   6.003 -0.0728  0.7510 -0.2442
    1OL     H8R 1686   4.431   5.083   5.999  1.3085 -0.6036  0.2388
    1OL     H8S 1687   4.599   5.122   6.039  0.2081  0.6173 -1.0918
    1OL     C19 1688   4.539   5.219   5.866 -0.7441  0.1129 -0.5575
    1OL     H9R 1689   4.596   5.310   5.850  1.9032 -1.0891  1.3295
    1OL    C110 1690   4.499   5.162   5.751  0.1378 -0.2764 -0.1923
    1OL    H10R 1691   4.538   5.208   5.661 -0.9963 -0.1691 -0.6363
    1OL    C111 1692   4.416   5.037   5.729 -0.8020 -0.3180  0.5888
    1OL    H11R 1693   4.309   5.059   5.738 -1.0575 -1.6211  0.9543
    1OL    H11S 1694   4.438   4.967   5.810  1.6425  1.1606  1.3130
    1OL    C112 1695   4.443   4.966   5.596 -1.8223 -0.0866  0.2380
    1OL    H12R 1696   4.403   5.005   5.503 -0.5743 -1.4067 -0.8909
    1OL    H12S 1697   4.407   4.864   5.615  0.2914 -0.8998  0.1724
    1OL    C113 1698   4.599   4.940   5.567 -0.2431  0.5337  0.1344
    1OL    H13R 1699   4.641   4.893   5.656  2.5642  1.9719 -0.3151
    1OL    H13S 1700   4.660   5.028   5.549  0.0524  0.2361 -0.3487
    1OL    C114 1701   4.615   4.841   5.455  0.5066 -0.0178 -0.8819
    1OL    H14R 1702   4.550   4.877   5.375  0.3499 -0.1684 -0.8231
    1OL    H14S 1703   4.565   4.748   5.482 -0.3263  0.6002 -0.2183
    1OL    C115 1704   4.756   4.826   5.401  0.6201  0.1227 -0.0690
    1OL    H15R 1705   4.821   4.770   5.469 -1.1158 -0.2954  1.3246
    1OL    H15S 1706   4.794   4.923   5.371  1.6128 -0.5212 -0.9861
    1OL    C116 1707   4.749   4.732   5.286 -0.5637  0.0604 -0.1799
    1OL    H16R 1708   4.854   4.726   5.255 -0.5713 -0.6084 -0.1055
    1OL    H16S 1709   4.679   4.773   5.214 -3.0100 -3.2384  0.0856
    1OL    C117 1710   4.707   4.590   5.318 -0.0883  0.3033 -0.4478
    1OL    H17R 1711   4.603   4.588   5.353 -0.5498 -1.0838 -1.7802
    1OL    H17S 1712   4.775   4.557   5.396  1.3099  1.5765 -1.0912
    1OL    C118 1713   4.709   4.499   5.198  0.1065 -0.1935 -0.2279
    1OL    H18R 1714   4.652   4.552   5.121 -0.4707 -0.4086  0.0494
    1OL    H18S 1715   4.663   4.403   5.222  0.4512 -0.8216 -1.9258
    1OL    H18T 1716   4.814   4.481   5.173  0.2385  0.5168 -0.2216
    1PA    C116 1717   2.770   3.882   5.208  0.3180  0.3938 -0.4018
    1PA    H16R 1718   2.727   3.835   5.119  0.6277  1.7629 -1.3086
    1PA    H16S 1719   2.869   3.839   5.221  0.9110  1.7171 -0.4422
    1PA    H16T 1720   2.764   3.991   5.204  1.3521  0.5053  0.5922
    1PA    C115 1721   2.681   3.859   5.332  0.5765 -0.8465  0.4235
    1PA    H15R 1722   2.675   3.753   5.355  0.0671 -0.8964  0.0928
    1PA    H15S 1723   2.733   3.898   5.420 -2.6781 -0.1854  2.2474
    1PA    C114 1724   2.530   3.913   5.340  0.1533 -0.1623  0.7184
    1PA    H14R 1725   2.533   4.021   5.323 -1.1170 -0.0132  1.3399
    1PA    H14S 1726   2.479   3.851   5.266  0.0400  0.8386 -0.0634
    1PA    C113 1727   2.465   3.895   5.477  0.0053  0.1174  0.4178
    1PA    H13R 1728   2.479   3.789   5.499  0.9112 -0.3987 -2.2268
    1PA    H13S 1729   2.526   3.959   5.541  2.0218 -1.4048  0.1309
    1PA    C112 1730   2.309   3.927   5.496 -0.1958  0.0933 -0.5738
    1PA    H12R 1731   2.297   4.034   5.509  0.0281 -0.1985  3.3517
    1PA    H12S 1732   2.248   3.894   5.412  0.4919 -0.7426 -0.7586
    1PA    C111 1733   2.251   3.868   5.625 -0.0543 -0.1340 -0.6276
    1PA    H11R 1734   2.307   3.900   5.713 -0.1670  0.1258 -0.6491
    1PA    H11S 1735   2.150   3.910   5.625  0.8967  2.5339  1.6104
    1PA    C110 1736   2.234   3.720   5.633  0.1600  0.2090 -0.0196
    1PA    H10R 1737   2.155   3.697   5.562  0.5077  0.6635 -0.5604
    1PA    H10S 1738   2.333   3.681   5.607 -1.2523 -2.9923 -1.0819
    1PA     C19 1739   2.201   3.667   5.778 -0.1352  0.7114 -0.5922
    1PA     H9R 1740   2.292   3.677   5.837 -0.6266  0.4202  0.2375
    1PA     H9S 1741   2.121   3.726   5.825 -0.7598 -1.6231  1.4570
    1PA     C18 1742   2.158   3.519   5.792 -0.1075  0.1686  0.2858
    1PA     H8R 1743   2.062   3.511   5.740  0.7711  1.4904 -1.6928
    1PA     H8S 1744   2.230   3.452   5.745 -0.3872  0.4875 -0.6189
    1PA     C17 1745   2.147   3.475   5.940  0.1907 -0.1506 -0.4854
    1PA     H7R 1746   2.239   3.487   5.997 -0.5527 -0.0132  0.7464
    1PA     H7S 1747   2.079   3.545   5.989  0.5013 -1.0452  1.3486
    1PA     C16 1748   2.093   3.327   5.960 -0.5102 -0.0273  0.6973
    1PA     H6R 1749   2.007   3.304   5.896 -0.0688 -1.8644  0.7103
    1PA     H6S 1750   2.166   3.253   5.926 -1.5845 -0.2285 -1.2920
    1PA     C15 1751   2.055   3.304   6.108  0.2744 -0.0702 -0.0547
    1PA     H5R 1752   1.984   3.382   6.137  0.9389  0.5009  0.0752
    1PA     H5S 1753   1.995   3.214   6.116 -0.2642  0.1796 -1.1391
    1PA     C14 1754   2.179   3.312   6.199  0.1752  0.2827 -0.5184
    1PA     H4R 1755   2.243   3.225   6.183  1.1286  0.4822  1.6947
    1PA     H4S 1756   2.239   3.404   6.199  1.3072 -0.3867  1.0388
    1PA     C13 1757   2.137   3.303   6.346 -0.6833 -0.2387  0.5181
    1PA     H3R 1758   2.058   3.376   6.370 -0.9549 -1.4177  3.6029
    1PA     H3S 1759   2.098   3.202   6.360  2.0021 -1.2927  0.8863
    1PA     C12 1760   2.255   3.335   6.434 -0.6982 -0.3679 -0.2889
    1PA     H2R 1761   2.340   3.270   6.412  0.2837  0.8566 -0.2464
    1PA     H2S 1762   2.294   3.432   6.403 -0.1917 -0.6911 -0.6907
    1PC     C11 1763   2.235   3.330   6.589 -0.6671  0.3373  0.9232
    1PC     O12 1764   2.175   3.408   6.655  0.2092  0.0243 -0.6463
    1PC     O11 1765   2.296   3.220   6.630  0.0404 -0.3925 -0.1756
    1PC      C1 1766   2.320   3.207   6.774  0.5496 -0.8044  0.1945
    1PC      HR 1767   2.408   3.266   6.801  1.0851 -1.8499  0.8171
    1PC      HS 1768   2.237   3.242   6.836  0.9421  0.6529 -0.0651
    1PC      C2 1769   2.343   3.059   6.812 -0.2897  0.2046 -0.3214
    1PC      HX 1770   2.252   3.001   6.795 -1.4488  1.3767  1.5771
    1PC      C3 1771   2.372   3.046   6.968 -0.1591  0.1349 -0.2134
    1PC      HA 1772   2.282   3.068   7.026 -0.3788 -1.8048  0.2651
    1PC      HB 1773   2.384   2.939   6.989  2.3316  0.5814  0.9501
    1PC     O31 1774   2.492   3.115   7.010 -0.3429  0.1982  0.2533
    1PC     P31 1775   2.513   3.158   7.161 -0.1430  0.5923  0.3272
    1PC     O32 1776   2.520   3.019   7.243 -0.0867  0.2225 -0.0567
    1PC     C31 1777   2.409   2.959   7.310 -0.3080 -0.1141  0.2390
    1PC     H1A 1778   2.361   3.037   7.371  0.0177  1.7131 -1.7042
    1PC     H1B 1779   2.336   2.918   7.239 -1.7959 -0.8581  2.1114
    1PC     C32 1780   2.460   2.841   7.395  0.0520  0.9349 -0.2931
    1PC     H2A 1781   2.374   2.785   7.433 -0.0088 -0.1749 -1.9472
    1PC     H2B 1782   2.519   2.774   7.333  0.5070  1.2478 -0.1998
    1PC     N31 1783   2.562   2.877   7.507  0.3650 -0.2820 -0.2020
    1PC     C33 1784   2.521   2.995   7.590 -0.5510  0.6652  0.5213
    1PC     H3A 1785   2.519   3.082   7.525 -3.7971  1.0100  0.8950
    1PC     H3B 1786   2.417   2.971   7.615 -0.1018 -0.8247  1.0928
    1PC     H3C 1787   2.579   3.013   7.681  0.3855  3.1100 -0.4924
    1PC     C34 1788   2.575   2.761   7.592  0.0540 -0.7344 -0.4511
    1PC     H4A 1789   2.473   2.743   7.624 -0.8104  2.1649 -1.3143
    1PC     H4B 1790   2.627   2.676   7.547  1.7339 -1.1585  2.0396
    1PC     H4C 1791   2.642   2.773   7.678 -3.4390 -0.5691  2.4652
    1PC     C35 1792   2.696   2.901   7.438 -0.7135  0.0573 -0.2671
    1PC     H5A 1793   2.769   2.929   7.514  0.4609 -0.4964 -1.1596
    1PC     H5B 1794   2.686   2.992   7.379 -0.1725  1.0918  1.1673
    1PC     H5C 1795   2.734   2.813   7.387  1.2377  1.0012 -0.5240
    1PC     O33 1796   2.646   3.223   7.184  0.3211 -0.0005  0.2201
    1PC     O34 1797   2.389   3.224   7.208 -0.2741 -0.4688  0.4162
    1PC     O21 1798   2.456   3.013   6.736 -0.2303  0.2683 -0.3827
    1PC     C21 1799   2.460   2.897   6.679  0.9504  0.0403  0.1800
    1PC     O22 1800   2.374   2.811   6.688 -0.1923  0.0035 -0.1032
    1OL     C12 1801   2.590   2.888   6.605 -0.5959 -0.6889  0.3677
    1OL     H2R 1802   2.675   2.881   6.672 -0.5488 -0.1535  0.3688
    1OL     H2S 1803   2.606   2.985   6.558  0.2720 -0.1046  1.8014
    1OL     C13 1804   2.610   2.781   6.503  0.4492 -0.5072 -0.4145
    1OL     H3R 1805   2.707   2.799   6.457  1.0127 -1.6240  0.2605
    1OL     H3S 1806   2.530   2.786   6.429  1.7723 -0.5177 -1.8901
    1OL     C14 1807   2.592   2.642   6.564 -0.6013  0.6719  0.0903
    1OL     H4R 1808   2.527   2.637   6.652  0.7448 -0.3343  1.0650
    1OL     H4S 1809   2.686   2.614   6.611 -1.2562 -1.2160  0.3554
    1OL     C15 1810   2.564   2.522   6.467  0.0684  1.2907 -0.1872
    1OL     H5R 1811   2.579   2.438   6.535  1.1360  3.5116  2.5080
    1OL     H5S 1812   2.635   2.523   6.384  1.6916 -0.5392  1.1084
    1OL     C16 1813   2.421   2.529   6.409 -0.3661  0.3579 -0.7503
    1OL     H6R 1814   2.422   2.609   6.335  0.7429  1.4689  0.4090
    1OL     H6S 1815   2.365   2.556   6.499  1.8312 -0.7564  1.0943
    1OL     C17 1816   2.373   2.393   6.358 -0.2506 -0.4414  0.3094
    1OL     H7R 1817   2.385   2.310   6.427 -2.7854  0.7166  2.2993
    1OL     H7S 1818   2.420   2.376   6.261 -1.7036  1.0978 -0.7354
    1OL     C18 1819   2.220   2.406   6.329  0.0508  0.5926  0.0689
    1OL     H8R 1820   2.202   2.504   6.284  1.0595  0.3920 -0.8160
    1OL     H8S 1821   2.181   2.390   6.429  0.7581 -2.6794 -0.0679
    1OL     C19 1822   2.182   2.283   6.248  1.0154  0.4238 -0.0425
    1OL     H9R 1823   2.216   2.192   6.296 -0.8484  0.9443  2.5055
    1OL    C110 1824   2.124   2.271   6.129  0.1670  0.3143  0.1966
    1OL    H10R 1825   2.107   2.172   6.086  0.9126 -0.4327  1.5520
    1OL    C111 1826   2.064   2.385   6.049 -0.0729  0.0985 -0.8048
    1OL    H11R 1827   2.003   2.443   6.118  0.6734 -1.1101  0.9281
    1OL    H11S 1828   1.987   2.344   5.983  0.6808 -0.4557 -1.3605
    1OL    C112 1829   2.171   2.474   5.979  0.0982 -0.3794  0.1419
    1OL    H12R 1830   2.247   2.410   5.934 -1.0467 -3.7241  2.6472
    1OL    H12S 1831   2.225   2.536   6.051  0.4817 -0.1609 -0.3255
    1OL    C113 1832   2.115   2.570   5.866 -0.4216  0.0722 -0.6513
    1OL    H13R 1833   2.182   2.651   5.837  0.6742 -1.0156 -1.2467
    1OL    H13S 1834   2.034   2.616   5.922  1.2640 -0.1882  2.1814
    1OL    C114 1835   2.073   2.507   5.738  0.4910 -0.4327  0.4435
    1OL    H14R 1836   2.009   2.583   5.691  2.0295  1.5547  1.3804
    1OL    H14S 1837   2.012   2.422   5.767  1.4902 -1.9049 -1.4911
    1OL    C115 1838   2.193   2.462   5.657 -0.0396  0.6479  0.0514
    1OL    H15R 1839   2.250   2.391   5.717 -0.8822  0.9191  1.2240
    1OL    H15S 1840   2.263   2.544   5.640  0.9806 -0.7215 -2.9066
    1OL    C116 1841   2.154   2.402   5.521 -0.9196  0.1205 -0.8717
    1OL    H16R 1842   2.240   2.367   5.463  0.8150  1.3614  0.7760
    1OL    H16S 1843   2.100   2.479   5.466 -2.2213 -0.2093 -0.0806
    1OL    C117 1844   2.068   2.273   5.542  0.8517  0.2572  0.3817
    1OL    H17R 1845   1.970   2.298   5.584  0.3623  1.2497 -1.2640
    1OL    H17S 1846   2.126   2.214   5.613  1.2936 -0.4122 -0.5071
    1OL    C118 1847   2.056   2.205   5.408  0.4012  0.1716 -0.1255
    1OL    H18R 1848   2.025   2.276   5.331 -1.2145  0.7630  1.0213
    1OL    H18S 1849   1.992   2.117   5.403  0.7197 -0.0764  0.1200
    1OL    H18T 1850   2.155   2.176   5.373  1.0747  1.0465  0.9969
    1PA    C116 1851   1.972   3.784   5.209  1.0502 -0.1039  0.4504
    1PA    H16R 1852   2.080   3.784   5.194  1.1477 -0.7444  1.0982
    1PA    H16S 1853   1.949   3.890   5.207  0.2675 -0.1422  3.2642
    1PA    H16T 1854   1.936   3.725   5.124  0.0787 -0.3954  1.0396
    1PA    C115 1855   1.945   3.726   5.354  0.7615  0.7462 -0.2333
    1PA    H15R 1856   2.005   3.637   5.375  1.5249  1.4632  0.7367
    1PA    H15S 1857   1.970   3.807   5.423 -2.5316  0.8078  1.0621
    1PA    C114 1858   1.797   3.702   5.387 -0.0442  0.5260  0.9049
    1PA    H14R 1859   1.737   3.783   5.346  2.0139  1.9502  0.5090
    1PA    H14S 1860   1.767   3.615   5.329  0.3089 -0.3356  1.9669
    1PA    C113 1861   1.769   3.687   5.536 -0.5164  0.0826  0.3392
    1PA    H13R 1862   1.698   3.605   5.546  1.2343 -1.5552  0.0111
    1PA    H13S 1863   1.861   3.644   5.576 -1.2791 -1.5631  0.4123
    1PA    C112 1864   1.720   3.819   5.607 -0.2139 -0.3381 -0.1046
    1PA    H12R 1865   1.794   3.894   5.580 -0.2511  0.1466  1.0766
    1PA    H12S 1866   1.622   3.849   5.569 -1.1446 -1.7365  1.0751
    1PA    C111 1867   1.715   3.814   5.758 -0.1740 -0.1889 -0.5108
    1PA    H11R 1868   1.660   3.902   5.792 -0.0446 -0.6058  0.8062
    1PA    H11S 1869   1.664   3.720   5.776  0.6890 -0.5227  0.2539
    1PA    C110 1870   1.856   3.813   5.823 -0.0508  0.2911  0.9887
    1PA    H10R 1871   1.912   3.733   5.775 -0.2506  1.3666 -1.2043
    1PA    H10S 1872   1.891   3.914   5.799 -1.5288  0.7203  0.4854
    1PA     C19 1873   1.851   3.775   5.971 -0.4135 -0.3630  0.1415
    1PA     H9R 1874   1.948   3.783   6.020  0.4518  2.0125 -1.7815
    1PA     H9S 1875   1.787   3.848   6.021  0.2558 -1.1951  2.3017
    1PA     C18 1876   1.785   3.633   5.991 -0.8652 -0.1945 -0.0829
    1PA     H8R 1877   1.688   3.625   5.943 -1.9290  2.8374  1.3215
    1PA     H8S 1878   1.849   3.561   5.938 -0.7932 -1.4114  1.5814
    1PA     C17 1879   1.776   3.609   6.141  0.0733  0.0287 -0.2543
    1PA     H7R 1880   1.879   3.620   6.173 -0.2257 -1.4527  1.3646
    1PA     H7S 1881   1.739   3.695   6.197  2.5538  0.7170  0.4422
    1PA     C16 1882   1.698   3.479   6.189 -0.1276 -0.2538  0.5782
    1PA     H6R 1883   1.591   3.492   6.171  0.0549  1.4467  0.6116
    1PA     H6S 1884   1.732   3.396   6.126 -3.0356 -0.6553 -0.6249
    1PA     C15 1885   1.723   3.429   6.336 -0.6325 -0.0735 -0.2916
    1PA     H5R 1886   1.828   3.408   6.359 -0.5412  0.6085 -0.0608
    1PA     H5S 1887   1.688   3.502   6.409 -3.5790  0.1543 -1.7960
    1PA     C14 1888   1.630   3.301   6.355  0.3513 -0.5226  1.1539
    1PA     H4R 1889   1.526   3.309   6.325  0.5563 -0.8169  0.3365
    1PA     H4S 1890   1.682   3.230   6.291 -1.7883 -0.3582 -0.8872
    1PA     C13 1891   1.631   3.250   6.496 -1.1357  0.4278 -1.3154
    1PA     H3R 1892   1.572   3.321   6.555  0.8191  2.2274 -1.4301
    1PA     H3S 1893   1.581   3.152   6.500  2.6011 -1.6543 -0.5900
    1PA     C12 1894   1.773   3.220   6.558  0.4000 -0.0546 -0.9517
    1PA     H2R 1895   1.816   3.138   6.501  0.9732 -0.1796 -0.3500
    1PA     H2S 1896   1.836   3.307   6.539  0.7205 -0.3044 -1.0353
    1PC     C11 1897   1.781   3.193   6.707 -0.2197  0.3907  0.6232
    1PC     O12 1898   1.694   3.193   6.788 -0.0755 -0.6154 -0.0286
    1PC     O11 1899   1.915   3.174   6.742  0.0573 -0.5080  0.1909
    1PC      C1 1900   1.947   3.139   6.881 -0.2908 -0.1355 -0.3567
    1PC      HR 1901   2.044   3.170   6.921  0.4644 -1.3326 -1.1812
    1PC      HS 1902   1.883   3.197   6.947  0.8501  1.9470 -1.0056
    1PC      C2 1903   1.935   2.985   6.900  0.1971 -0.0149  0.1687
    1PC      HX 1904   1.829   2.959   6.903 -0.2124  1.0609 -2.3943
    1PC      C3 1905   1.998   2.936   7.031  0.8174 -0.4848 -0.1075
    1PC      HA 1906   1.988   2.828   7.037  0.1232 -0.3634  1.4374
    1PC      HB 1907   2.102   2.968   7.035  0.9369 -1.0104  1.5395
    1PC     O31 1908   1.928   2.985   7.150 -0.0015 -0.4412 -0.4771
    1PC     P31 1909   1.776   2.950   7.186  0.0735  0.4368  0.2290
    1PC     O32 1910   1.702   3.068   7.097 -0.4523  0.3198 -0.5832
    1PC     C31 1911   1.700   3.209   7.137 -0.3685 -0.2298  0.1983
    1PC     H1A 1912   1.796   3.235   7.183 -0.0564  0.7707 -0.9609
    1PC     H1B 1913   1.688   3.275   7.051  1.4147 -1.3128 -0.9457
    1PC     C32 1914   1.579   3.230   7.234 -0.5020 -0.1877  0.2148
    1PC     H2A 1915   1.578   3.145   7.303 -0.3371  1.2662  2.0786
    1PC     H2B 1916   1.596   3.326   7.283  1.1524  0.6454 -1.8659
    1PC     N31 1917   1.439   3.238   7.180 -0.0227  0.0825 -0.3984
    1PC     C33 1918   1.343   3.247   7.294  0.1894 -0.4769  0.0080
    1PC     H3A 1919   1.247   3.204   7.265 -0.7570  2.2438 -1.1849
    1PC     H3B 1920   1.375   3.192   7.383 -3.6565  1.3306  2.7860
    1PC     H3C 1921   1.319   3.349   7.322  0.7388 -0.8413  1.9850
    1PC     C34 1922   1.410   3.340   7.082  0.3111 -0.4331  0.1050
    1PC     H4A 1923   1.304   3.363   7.088  0.4782  0.9730 -1.6737
    1PC     H4B 1924   1.463   3.429   7.117 -1.6705  0.8564 -0.0544
    1PC     H4C 1925   1.433   3.296   6.985 -1.0428 -0.1940 -0.3488
    1PC     C35 1926   1.400   3.105   7.124  0.2732  0.0769 -0.0039
    1PC     H5A 1927   1.407   3.036   7.208  1.7255 -1.9184 -1.6545
    1PC     H5B 1928   1.463   3.073   7.041 -1.2807 -0.9059 -0.8685
    1PC     H5C 1929   1.297   3.112   7.088  1.3625 -0.9190 -3.7264
    1PC     O33 1930   1.740   2.817   7.125 -0.3231 -0.4035 -0.0411
    1PC     O34 1931   1.746   2.968   7.326 -0.2135 -0.6230 -0.2532
    1PC     O21 1932   2.001   2.913   6.790 -0.1285  0.5260  0.8157
    1PC     C21 1933   1.924   2.874   6.686 -0.0901  0.4369 -0.4716
    1PC     O22 1934   1.803   2.899   6.683  0.2374 -0.2774  0.1007
    1OL     C12 1935   1.997   2.813   6.569  0.2167 -0.2948  0.1269
    1OL     H2R 1936   1.933   2.774   6.489 -1.8831  1.2658  0.9410
    1OL     H2S 1937   2.058   2.728   6.596  1.9657  0.5810 -0.8964
    1OL     C13 1938   2.082   2.915   6.493 -0.3865  0.2897  1.2594
    1OL     H3R 1939   2.146   2.972   6.561 -0.0701  1.6254 -0.1129
    1OL     H3S 1940   2.010   2.982   6.446 -1.1216 -0.4215  1.3507
    1OL     C14 1941   2.165   2.845   6.385 -0.0884  0.2425  0.3931
    1OL     H4R 1942   2.106   2.795   6.308 -1.5554  0.3719  1.3972
    1OL     H4S 1943   2.214   2.767   6.444 -1.4678 -1.6848 -0.9088
    1OL     C15 1944   2.274   2.937   6.323  0.0706  0.2544 -0.4747
    1OL     H5R 1945   2.349   2.979   6.390  0.4834  1.1555 -1.4783
    1OL     H5S 1946   2.230   3.032   6.290  2.4061  1.2781 -0.8300
    1OL     C16 1947   2.348   2.867   6.208  0.3519  0.4232 -0.7573
    1OL     H6R 1948   2.272   2.813   6.151 -0.0729  0.2017 -0.0009
    1OL     H6S 1949   2.406   2.785   6.250 -0.1847  0.8057  0.8271
    1OL     C17 1950   2.441   2.958   6.127  0.0647  0.6887  0.3404
    1OL     H7R 1951   2.504   3.018   6.193  0.6134  2.0759 -1.3623
    1OL     H7S 1952   2.379   3.025   6.066  2.1915  0.1326 -2.6263
    1OL     C18 1953   2.531   2.870   6.034 -0.6129  0.1633 -0.4741
    1OL     H8R 1954   2.603   2.820   6.099  0.3178  1.3230 -0.5812
    1OL     H8S 1955   2.588   2.938   5.970 -0.6866  0.8588  0.1891
    1OL     C19 1956   2.467   2.782   5.928  0.3063  0.4909  0.8534
    1OL     H9R 1957   2.445   2.680   5.957  2.0780  0.3877  2.0384
    1OL    C110 1958   2.429   2.819   5.810  0.0682 -0.6310 -0.1813
    1OL    H10R 1959   2.378   2.748   5.746  0.2581 -0.7604 -0.1886
    1OL    C111 1960   2.423   2.965   5.757 -0.2935  0.7804 -0.0609
    1OL    H11R 1961   2.507   3.027   5.791 -0.2348 -0.0505  1.3726
    1OL    H11S 1962   2.331   3.001   5.803 -0.2838 -0.3557  0.8786
    1OL    C112 1963   2.412   2.962   5.598  0.9751 -0.7246 -0.1855
    1OL    H12R 1964   2.330   2.899   5.563 -1.0076  2.3615 -1.5331
    1OL    H12S 1965   2.503   2.914   5.561  1.7971 -0.3570  1.2563
    1OL    C113 1966   2.398   3.096   5.536  0.2603  0.3611  0.8155
    1OL    H13R 1967   2.493   3.150   5.547  0.7484 -0.0563 -1.0062
    1OL    H13S 1968   2.322   3.158   5.584  0.2489  1.1719 -0.2233
    1OL    C114 1969   2.346   3.083   5.390 -0.0585 -0.2129 -0.4634
    1OL    H14R 1970   2.324   3.179   5.344 -2.8450 -0.0989  0.9081
    1OL    H14S 1971   2.250   3.031   5.389 -0.1005 -0.1311 -0.7218
    1OL    C115 1972   2.453   3.010   5.296  0.2840  0.2619 -0.2333
    1OL    H15R 1973   2.478   2.908   5.327  1.6549  0.4843 -0.5473
    1OL    H15S 1974   2.544   3.071   5.298 -0.3840  1.2636  0.4103
    1OL    C116 1975   2.408   3.006   5.148  0.4749  0.2314  0.2930
    1OL    H16R 1976   2.369   3.103   5.117 -1.5425 -0.7719 -0.4886
    1OL    H16S 1977   2.325   2.935   5.140  1.8478 -1.1989 -5.1593
    1OL    C117 1978   2.519   2.963   5.055  0.0773 -0.0926  0.2939
    1OL    H17R 1979   2.552   2.860   5.073 -0.6258 -0.1628  1.2531
    1OL    H17S 1980   2.602   3.034   5.047 -1.4970  1.6718 -1.3408
    1OL    C118 1981   2.470   2.967   4.910 -0.3112 -0.2942  0.2743
    1OL    H18R 1982   2.456   3.067   4.870  3.2168  0.6955  1.1465
    1OL    H18S 1983   2.384   2.903   4.891  0.0724 -0.9529  0.6582
    1OL    H18T 1984   2.547   2.920   4.848 -0.9284 -0.3665 -0.4464
    1PA    C116 1985   3.646   3.840   5.647  0.5409  0.1313 -0.1982
    1PA    H16R 1986   3.543   3.821   5.675  0.7138  0.4216  0.6653
    1PA    H16S 1987   3.672   3.780   5.560  0.5538 -2.5549  1.5475
    1PA    H16T 1988   3.657   3.948   5.629 -0.6401  0.6368  1.8478
    1PA    C115 1989   3.738   3.791   5.754  0.6486 -0.4608  0.0223
    1PA    H15R 1990   3.744   3.682   5.756 -1.0153 -0.6075 -0.7392
    1PA    H15S 1991   3.834   3.816   5.710  0.4804 -0.4110 -0.3212
    1PA    C114 1992   3.726   3.860   5.893 -0.1187  0.0274 -0.0649
    1PA    H14R 1993   3.621   3.875   5.918  0.1198 -1.1711  1.8631
    1PA    H14S 1994   3.761   3.796   5.974 -0.4818  1.9560  1.7043
    1PA    C113 1995   3.811   3.994   5.898  0.2756 -0.3206 -0.7125
    1PA    H13R 1996   3.785   4.055   5.812 -0.6280  2.2178  1.2185
    1PA    H13S 1997   3.781   4.055   5.985  1.1878 -2.1492  0.9620
    1PA    C112 1998   3.967   3.975   5.912  0.2653  0.1064  0.4251
    1PA    H12R 1999   3.988   3.975   6.019  2.0671  2.4493  0.1576
    1PA    H12S 2000   4.010   3.891   5.857  0.0638  0.5217 -0.3972
    1PA    C111 2001   4.047   4.099   5.852 -0.3607  0.4509  0.0321
    1PA    H11R 2002   4.016   4.117   5.749 -0.7248 -0.3239 -0.0018
    1PA    H11S 2003   4.019   4.185   5.914  0.8471  0.4842  0.5569
    1PA    C110 2004   4.197   4.072   5.855 -0.6495  0.4672  0.1897
    1PA    H10R 2005   4.227   4.000   5.932 -0.3291  0.5943  0.1836
    1PA    H10S 2006   4.221   4.008   5.770 -0.0125 -0.4022  0.9998
    1PA     C19 2007   4.282   4.202   5.844  0.3254  0.1390  0.4026
    1PA     H9R 2008   4.253   4.252   5.751 -0.6450 -2.2979 -0.6977
    1PA     H9S 2009   4.254   4.264   5.929  0.5489 -0.6354  1.0573
    1PA     C18 2010   4.431   4.203   5.853  0.0218  0.0200  0.3621
    1PA     H8R 2011   4.476   4.161   5.763  0.8842 -0.3162  0.9282
    1PA     H8S 2012   4.470   4.305   5.859 -1.1908  0.5702 -0.7102
    1PA     C17 2013   4.465   4.118   5.981 -0.0576 -0.4704 -0.1680
    1PA     H7R 2014   4.424   4.018   5.970  0.7530 -1.1203  2.0931
    1PA     H7S 2015   4.574   4.110   5.990  0.0573 -0.1780 -1.1477
    1PA     C16 2016   4.423   4.174   6.121 -0.1062  0.2890 -0.7002
    1PA     H6R 2017   4.314   4.177   6.112 -0.1236  2.0405 -0.2545
    1PA     H6S 2018   4.446   4.100   6.197 -3.1798  0.6044  0.6996
    1PA     C15 2019   4.475   4.308   6.155  0.1667 -0.0643  0.3969
    1PA     H5R 2020   4.454   4.375   6.071  0.1390 -1.0175 -0.3737
    1PA     H5S 2021   4.421   4.342   6.244 -0.4937  0.7897 -0.3056
    1PA     C14 2022   4.630   4.312   6.189  0.0865  0.7818 -0.0831
    1PA     H4R 2023   4.670   4.305   6.088 -1.5905  0.6176 -0.7671
    1PA     H4S 2024   4.658   4.409   6.231  0.2205  0.6459  0.1452
    1PA     C13 2025   4.685   4.199   6.269  0.1273  0.2409 -0.0459
    1PA     H3R 2026   4.615   4.184   6.352 -0.1041 -3.1202 -0.7038
    1PA     H3S 2027   4.671   4.109   6.208  1.6296 -0.1206  0.1081
    1PA     C12 2028   4.838   4.202   6.308  0.4763 -0.0754  0.3615
    1PA     H2R 2029   4.894   4.180   6.216  0.6728 -1.6771  0.8217
    1PA     H2S 2030   4.846   4.298   6.357 -1.5854 -0.5699  1.7834
    1PC     C11 2031   4.868   4.106   6.417  0.6911 -0.6220  0.1338
    1PC     O12 2032   4.832   4.124   6.532  0.0702  0.5502 -0.0560
    1PC     O11 2033   4.955   4.010   6.374  0.4999  0.0746  0.5884
    1PC      C1 2034   4.993   3.908   6.473  0.2760  0.1350  0.5066
    1PC      HR 2035   5.082   3.852   6.444  2.8596  2.8463  2.6156
    1PC      HS 2036   5.003   3.948   6.574  0.0365 -1.0988  1.0351
    1PC      C2 2037   4.882   3.796   6.492  0.5069 -0.8660  0.6243
    1PC      HX 2038   4.801   3.829   6.557  1.6251 -0.1001  1.6791
    1PC      C3 2039   4.952   3.677   6.552  0.2094  0.2741  0.2106
    1PC      HA 2040   4.879   3.597   6.572  2.1024 -1.4897  0.4611
    1PC      HB 2041   5.031   3.633   6.492  0.4542 -0.4752  1.0618
    1PC     O31 2042   5.011   3.706   6.682 -0.1587  0.2575  0.2070
    1PC     P31 2043   4.924   3.735   6.808 -0.0484  0.2528  0.0926
    1PC     O32 2044   4.875   3.885   6.793 -1.1463 -0.1812 -0.0525
    1PC     C31 2045   4.936   3.999   6.857  0.0147 -0.0385 -0.0274
    1PC     H1A 2046   5.042   3.984   6.837  0.4422  0.1760  1.8650
    1PC     H1B 2047   4.912   4.096   6.814  0.0739 -0.6421 -1.4815
    1PC     C32 2048   4.904   3.998   7.006 -0.1894 -0.0850 -0.0998
    1PC     H2A 2049   4.936   3.906   7.056  1.9196  0.9466  0.5698
    1PC     H2B 2050   4.967   4.075   7.051 -0.0614 -0.2875  0.0712
    1PC     N31 2051   4.771   4.041   7.052  0.5463  0.4383  0.5984
    1PC     C33 2052   4.741   4.180   7.006 -0.0157 -0.4644 -0.1053
    1PC     H3A 2053   4.651   4.224   7.050  1.0580  1.7794 -0.0170
    1PC     H3B 2054   4.828   4.242   7.030 -0.4039  0.2902 -0.5919
    1PC     H3C 2055   4.732   4.171   6.898 -4.4059 -1.0535  0.1164
    1PC     C34 2056   4.663   3.944   7.002 -0.2535 -0.1503 -0.0081
    1PC     H4A 2057   4.674   3.946   6.894  1.2068  0.0373  0.1267
    1PC     H4B 2058   4.685   3.845   7.043  2.8750  0.2237 -0.5612
    1PC     H4C 2059   4.568   3.984   7.037  0.1596 -1.7973  3.5210
    1PC     C35 2060   4.763   4.047   7.209  0.3688  0.0473  0.6755
    1PC     H5A 2061   4.845   4.110   7.241  2.0794 -1.8253  0.1691
    1PC     H5B 2062   4.783   3.954   7.262  1.4714 -0.1353 -0.0371
    1PC     H5C 2063   4.664   4.085   7.235  0.3471 -0.7219  1.7941
    1PC     O33 2064   4.803   3.644   6.804 -0.4502 -0.2377 -0.0130
    1PC     O34 2065   5.017   3.727   6.920 -0.4662 -0.4505 -0.0640
    1PC     O21 2066   4.837   3.752   6.363 -0.0788  0.0484 -0.6478
    1PC     C21 2067   4.734   3.810   6.308  0.3884  1.0722  0.3658
    1PC     O22 2068   4.657   3.889   6.362 -0.0455  0.4198 -0.0170
    1OL     C12 2069   4.705   3.769   6.168  0.6916  0.4146 -0.5631
    1OL     H2R 2070   4.598   3.783   6.150  0.7626 -0.4405 -1.7551
    1OL     H2S 2071   4.725   3.663   6.148 -2.0224  0.2265 -2.9629
    1OL     C13 2072   4.800   3.850   6.082  0.5759 -0.2518  0.1815
    1OL     H3R 2073   4.905   3.823   6.099  0.4856 -0.0292  1.1399
    1OL     H3S 2074   4.793   3.953   6.115 -2.7655 -0.5673  0.7971
    1OL     C14 2075   4.779   3.841   5.929  0.1712  0.2138  0.6526
    1OL     H4R 2076   4.851   3.910   5.883 -1.7532  0.9055 -1.5642
    1OL     H4S 2077   4.682   3.884   5.901  0.5505  0.0639 -1.0339
    1OL     C15 2078   4.777   3.699   5.870 -0.0644  0.1612 -0.1436
    1OL     H5R 2079   4.712   3.629   5.923  0.4094 -0.4411 -0.3463
    1OL     H5S 2080   4.880   3.666   5.885 -0.3225 -1.0209 -0.7903
    1OL     C16 2081   4.741   3.689   5.719 -0.3737 -0.4972 -0.1816
    1OL     H6R 2082   4.741   3.584   5.690  1.6655 -1.1002  1.7190
    1OL     H6S 2083   4.813   3.733   5.650  1.0959 -1.6164  0.6022
    1OL     C17 2084   4.598   3.732   5.668 -0.3531  0.5210 -1.2156
    1OL     H7R 2085   4.590   3.840   5.677  0.0477  0.3847  1.7960
    1OL     H7S 2086   4.597   3.721   5.559  1.9012  3.0451 -1.5865
    1OL     C18 2087   4.476   3.666   5.731 -0.8152  0.6591 -0.6672
    1OL     H8R 2088   4.490   3.680   5.838  1.9715  0.1788 -0.8837
    1OL     H8S 2089   4.467   3.560   5.706 -3.6559  0.4362  0.8947
    1OL     C19 2090   4.352   3.728   5.694 -0.2236  0.0751  0.5243
    1OL     H9R 2091   4.347   3.837   5.694  1.4347  0.2098 -0.8309
    1OL    C110 2092   4.237   3.664   5.670 -0.5086 -1.4823  0.7164
    1OL    H10R 2093   4.151   3.726   5.650  0.6408  0.1669  0.7099
    1OL    C111 2094   4.200   3.516   5.672 -0.1839 -0.0380 -0.0576
    1OL    H11R 2095   4.161   3.497   5.773  0.5930  2.5157  0.7999
    1OL    H11S 2096   4.291   3.456   5.665  0.4740  1.0421 -1.2578
    1OL    C112 2097   4.106   3.481   5.558  0.1673 -0.0288  0.5778
    1OL    H12R 2098   4.101   3.372   5.550 -1.6466  0.1357 -1.4490
    1OL    H12S 2099   4.145   3.514   5.462 -2.8378 -1.7111 -1.3910
    1OL    C113 2100   3.969   3.548   5.583  0.5721  0.3945 -0.1988
    1OL    H13R 2101   3.981   3.653   5.610 -1.4006  0.7209 -0.4054
    1OL    H13S 2102   3.921   3.503   5.670  0.1598 -0.5625 -0.9091
    1OL    C114 2103   3.876   3.544   5.470  0.7189 -0.1415 -0.1948
    1OL    H14R 2104   3.923   3.585   5.381  0.8963  0.3152  0.1077
    1OL    H14S 2105   3.793   3.608   5.500  1.1144  0.3428 -0.1186
    1OL    C115 2106   3.816   3.405   5.444 -0.9148 -0.2872  0.1830
    1OL    H15R 2107   3.906   3.350   5.415  2.0239  3.3225  1.5593
    1OL    H15S 2108   3.745   3.419   5.363 -1.4751 -0.0764  0.7075
    1OL    C116 2109   3.752   3.331   5.558 -0.0830 -0.8545  0.5566
    1OL    H16R 2110   3.659   3.386   5.574  0.9363  1.8764 -1.9487
    1OL    H16S 2111   3.810   3.327   5.650  2.2242  0.6999 -0.7399
    1OL    C117 2112   3.721   3.183   5.515 -0.5537  0.4358  0.4810
    1OL    H17R 2113   3.813   3.125   5.520 -2.2805 -2.4107  0.9907
    1OL    H17S 2114   3.656   3.136   5.589 -0.0588 -0.9469  0.0610
    1OL    C118 2115   3.650   3.176   5.371 -0.1088 -0.4121  0.2700
    1OL    H18R 2116   3.632   3.073   5.341  1.9481  0.1095 -3.3746
    1OL    H18S 2117   3.714   3.210   5.289 -0.7645  1.0375  0.3382
    1OL    H18T 2118   3.559   3.232   5.350 -1.1097 -2.7207 -1.9928
    1PA    C116 2119   0.734   2.176   5.475 -0.0877  0.1596  0.0125
    1PA    H16R 2120   0.792   2.120   5.401  1.7538  1.5120  0.3568
    1PA    H16S 2121   0.815   2.238   5.514  0.4691 -1.0718  0.8938
    1PA    H16T 2122   0.660   2.235   5.422 -2.2982 -0.8420  1.8260
    1PA    C115 2123   0.672   2.079   5.577 -0.3420 -0.3137  0.0295
    1PA    H15R 2124   0.607   2.002   5.533  0.5158 -0.6224 -0.7205
    1PA    H15S 2125   0.754   2.036   5.635 -0.6273 -1.5507 -0.4636
    1PA    C114 2126   0.589   2.158   5.690  0.1708 -0.0718 -0.7348
    1PA    H14R 2127   0.545   2.082   5.755  0.6992  0.7221  0.5885
    1PA    H14S 2128   0.665   2.195   5.759 -0.5619 -0.7362  0.4816
    1PA    C113 2129   0.502   2.273   5.655 -1.3641  0.7988 -0.1519
    1PA    H13R 2130   0.568   2.346   5.606  0.3726 -1.1826 -0.9215
    1PA    H13S 2131   0.439   2.235   5.574 -0.3130 -0.8265 -0.2461
    1PA    C112 2132   0.414   2.324   5.767  0.3778 -0.5556 -0.3925
    1PA    H12R 2133   0.353   2.403   5.723  0.4093  0.1886  0.8412
    1PA    H12S 2134   0.343   2.244   5.790 -0.9805  0.9300  0.8065
    1PA    C111 2135   0.480   2.384   5.896  0.4163 -0.3100  0.2640
    1PA    H11R 2136   0.396   2.423   5.953 -2.3212 -1.2691 -2.7807
    1PA    H11S 2137   0.535   2.302   5.941  1.1709 -0.2915 -0.5893
    1PA    C110 2138   0.582   2.493   5.852 -0.4912 -0.7505 -0.3827
    1PA    H10R 2139   0.672   2.448   5.810  0.0289  1.1990 -1.4910
    1PA    H10S 2140   0.543   2.559   5.775 -0.1961 -0.0497  0.0520
    1PA     C19 2141   0.623   2.587   5.971 -0.1716 -0.9213  0.7026
    1PA     H9R 2142   0.703   2.657   5.945  0.5068 -1.7227  0.5886
    1PA     H9S 2143   0.541   2.659   5.979  1.3338  0.9908 -0.2776
    1PA     C18 2144   0.671   2.510   6.101  0.7799  0.1642  0.9560
    1PA     H8R 2145   0.583   2.454   6.135 -0.0680  0.5227 -0.5342
    1PA     H8S 2146   0.740   2.431   6.073 -0.4885 -1.7938  2.9874
    1PA     C17 2147   0.734   2.610   6.206 -0.0400 -0.0360  0.0043
    1PA     H7R 2148   0.822   2.656   6.160 -0.3297  0.5568  0.0343
    1PA     H7S 2149   0.672   2.696   6.233 -0.2600 -0.5704  1.3066
    1PA     C16 2150   0.778   2.535   6.331  0.2686 -0.6448  0.4468
    1PA     H6R 2151   0.854   2.463   6.299  0.2529 -0.8725  0.9084
    1PA     H6S 2152   0.836   2.601   6.396 -0.2567 -1.9023  2.3066
    1PA     C15 2153   0.673   2.469   6.420 -0.3447 -0.1608 -0.7460
    1PA     H5R 2154   0.621   2.552   6.470  0.7738 -1.1681  2.3426
    1PA     H5S 2155   0.598   2.428   6.352 -1.6797  2.1931 -0.8156
    1PA     C14 2156   0.738   2.364   6.522  0.0062 -0.6583 -0.2924
    1PA     H4R 2157   0.649   2.333   6.576 -0.3467 -1.6112 -1.3773
    1PA     H4S 2158   0.779   2.279   6.468  1.9495  0.3067 -0.4432
    1PA     C13 2159   0.850   2.422   6.613  0.0623 -0.3119 -0.4036
    1PA     H3R 2160   0.893   2.335   6.664  1.7404  0.3553 -0.6039
    1PA     H3S 2161   0.934   2.467   6.559 -0.2808  0.1042 -0.5930
    1PA     C12 2162   0.791   2.527   6.714 -0.3852  0.4369  0.2635
    1PA     H2R 2163   0.723   2.595   6.663  0.0021  0.7893  0.2146
    1PA     H2S 2164   0.736   2.471   6.790 -0.9805  0.2037 -0.3301
    1PC     C11 2165   0.892   2.607   6.788  0.3005 -0.4777 -0.1361
    1PC     O12 2166   0.938   2.578   6.896  0.6009 -0.1641 -0.4055
    1PC     O11 2167   0.930   2.719   6.720 -0.0354  0.0461 -0.3950
    1PC      C1 2168   0.986   2.821   6.814 -0.0057  0.2940 -0.3253
    1PC      HR 2169   0.940   2.916   6.787 -0.9125 -0.1557 -0.4000
    1PC      HS 2170   0.954   2.803   6.916 -0.1686  0.7740 -0.2869
    1PC      C2 2171   1.138   2.809   6.812  0.1277  0.5141 -0.4924
    1PC      HX 2172   1.166   2.704   6.825 -0.2298  0.5556  0.6848
    1PC      C3 2173   1.217   2.886   6.924  0.3868  0.2590 -0.5320
    1PC      HA 2174   1.293   2.819   6.965 -0.4983 -0.3246  0.1975
    1PC      HB 2175   1.267   2.976   6.887  0.1973  1.4067  1.8085
    1PC     O31 2176   1.138   2.924   7.037 -0.5720 -0.1877  0.0731
    1PC     P31 2177   1.123   2.824   7.158  0.4560  0.0721 -0.0854
    1PC     O32 2178   1.248   2.853   7.245  0.1664  0.0532 -0.2351
    1PC     C31 2179   1.379   2.782   7.236 -0.5936  0.4145  0.1003
    1PC     H1A 2180   1.397   2.758   7.131  1.7244  0.7879  0.3667
    1PC     H1B 2181   1.458   2.846   7.275 -1.2071  0.6428  1.0021
    1PC     C32 2182   1.381   2.657   7.326  0.2217  0.0029  0.2592
    1PC     H2A 2183   1.345   2.679   7.427 -0.5896  2.8760 -0.5395
    1PC     H2B 2184   1.305   2.598   7.276  1.4866  1.0033 -3.1628
    1PC     N31 2185   1.516   2.582   7.342  0.7222  0.4987 -0.0850
    1PC     C33 2186   1.484   2.451   7.405 -0.4734 -0.3026  0.5030
    1PC     H3A 2187   1.422   2.456   7.495 -0.5874  3.1083  0.3485
    1PC     H3B 2188   1.440   2.386   7.329  0.0163  0.8054 -0.7564
    1PC     H3C 2189   1.581   2.405   7.428  0.4417  1.7092  0.8864
    1PC     C34 2190   1.586   2.564   7.211  0.2470  0.2588  0.3658
    1PC     H4A 2191   1.603   2.664   7.170 -4.0961  1.9296  2.0458
    1PC     H4B 2192   1.684   2.520   7.229  0.3296  0.8574  1.4549
    1PC     H4C 2193   1.532   2.492   7.150  0.3599 -0.3630  0.9949
    1PC     C35 2194   1.608   2.659   7.435 -0.4898  0.2587  0.1437
    1PC     H5A 2195   1.626   2.761   7.404  4.0828 -0.6397 -0.8382
    1PC     H5B 2196   1.702   2.612   7.463 -1.6446 -1.0142  2.1005
    1PC     H5C 2197   1.558   2.647   7.531  0.5389 -0.2902  0.6273
    1PC     O33 2198   1.005   2.868   7.234  0.9036  0.2260  0.8251
    1PC     O34 2199   1.134   2.683   7.102  0.1461 -0.4161 -0.0266
    1PC     O21 2200   1.191   2.859   6.682 -0.0709 -0.6852 -0.3758
    1PC     C21 2201   1.287   2.788   6.622 -0.7538  0.1188  0.4225
    1PC     O22 2202   1.340   2.692   6.667  0.9284  1.0374 -0.1971
    1OL     C12 2203   1.319   2.855   6.492 -0.0047  0.4010 -0.2165
    1OL     H2R 2204   1.285   2.958   6.500 -0.7405  0.0473  1.7731
    1OL     H2S 2205   1.261   2.797   6.420 -0.3529 -0.4451  0.7133
    1OL     C13 2206   1.466   2.839   6.450 -0.1188  0.0674  0.1248
    1OL     H3R 2207   1.507   2.738   6.450 -0.6824 -0.1662  0.3832
    1OL     H3S 2208   1.512   2.895   6.532 -1.2097  2.5664 -0.8966
    1OL     C14 2209   1.480   2.915   6.322  0.4917  0.3459 -0.7825
    1OL     H4R 2210   1.448   3.017   6.343 -3.6482 -0.5834 -1.6435
    1OL     H4S 2211   1.419   2.869   6.243  0.5147 -2.7358  0.8467
    1OL     C15 2212   1.630   2.924   6.278 -0.2568  0.2735  0.3590
    1OL     H5R 2213   1.671   2.823   6.277 -1.4818 -0.2519 -1.1536
    1OL     H5S 2214   1.682   2.982   6.354  0.3452  1.4887 -0.9208
    1OL     C16 2215   1.656   2.976   6.136  0.2519 -0.0188  0.2888
    1OL     H6R 2216   1.597   3.067   6.118  0.1651 -0.0216  0.5605
    1OL     H6S 2217   1.613   2.897   6.074 -0.2965  1.5776 -1.4789
    1OL     C17 2218   1.797   3.011   6.092  0.5858 -0.3188 -0.0543
    1OL     H7R 2219   1.838   3.066   6.177  1.1778 -2.5711  1.1993
    1OL     H7S 2220   1.792   3.070   6.000  1.2579 -2.7767 -1.7938
    1OL     C18 2221   1.894   2.881   6.092 -0.0052 -0.9083  0.3181
    1OL     H8R 2222   1.848   2.807   6.026 -1.3017 -0.3376  0.5419
    1OL     H8S 2223   1.899   2.832   6.189  1.3288 -0.8927  0.2687
    1OL     C19 2224   2.028   2.926   6.046  0.1590 -0.6017 -0.2259
    1OL     H9R 2225   2.091   2.948   6.133 -0.8869 -0.0916  0.4207
    1OL    C110 2226   2.064   2.948   5.917 -0.1768  0.5230 -0.8768
    1OL    H10R 2227   2.165   2.981   5.896  0.2833  0.7624  1.4198
    1OL    C111 2228   1.980   2.900   5.801 -0.1883 -0.4204  0.2351
    1OL    H11R 2229   1.877   2.937   5.795  0.7248  2.0743 -3.6690
    1OL    H11S 2230   1.976   2.791   5.813 -0.2693 -0.3419  0.9809
    1OL    C112 2231   2.029   2.930   5.661 -0.2296  0.5630  0.5814
    1OL    H12R 2232   2.132   2.894   5.661 -0.2498  0.4657  1.6178
    1OL    H12S 2233   2.026   3.035   5.633  1.1162 -0.0312 -2.1667
    1OL    C113 2234   1.944   2.856   5.546 -0.2605 -0.5578 -0.2098
    1OL    H13R 2235   1.859   2.919   5.518 -3.0994 -4.8793 -2.2618
    1OL    H13S 2236   1.900   2.764   5.585 -0.1269 -0.8267 -0.6944
    1OL    C114 2237   2.032   2.829   5.425 -0.0786  0.4844  0.0333
    1OL    H14R 2238   2.123   2.780   5.459 -1.3979 -2.1957 -0.0236
    1OL    H14S 2239   2.063   2.923   5.378 -0.1326  0.6877  0.3975
    1OL    C115 2240   1.951   2.734   5.332  0.0225  0.2990 -0.1688
    1OL    H15R 2241   1.850   2.776   5.325  0.0554  0.5115  0.5193
    1OL    H15S 2242   1.937   2.639   5.384 -0.2035  0.1655 -0.4661
    1OL    C116 2243   2.024   2.716   5.203  0.3672 -0.3684 -0.3541
    1OL    H16R 2244   2.129   2.687   5.217  0.3312 -0.2298  0.1944
    1OL    H16S 2245   2.037   2.817   5.165 -1.7287  0.4193  0.9273
    1OL    C117 2246   1.958   2.634   5.096  0.2278  0.0153  0.2829
    1OL    H17R 2247   2.021   2.641   5.007 -1.1298 -3.8815 -1.2325
    1OL    H17S 2248   1.862   2.682   5.078 -0.7536 -2.1320 -0.6256
    1OL    C118 2249   1.942   2.484   5.124 -0.2355 -0.3071 -0.0692
    1OL    H18R 2250   1.889   2.462   5.217 -1.0853 -0.9452 -0.6905
    1OL    H18S 2251   2.038   2.434   5.135  0.5001  1.3061  1.4643
    1OL    H18T 2252   1.879   2.447   5.044 -1.1858  1.5442 -0.2243
    1PA    C116 2253   2.857   0.859   4.817  0.3898 -0.6102 -0.1005
    1PA    H16R 2254   2.926   0.830   4.737  0.8285  0.5714 -0.1681
    1PA    H16S 2255   2.859   0.968   4.824  2.6648 -0.7282  2.7677
    1PA    H16T 2256   2.754   0.823   4.805  0.0602  0.4717 -0.6980
    1PA    C115 2257   2.915   0.807   4.950 -0.1203  0.4207  0.3893
    1PA    H15R 2258   2.842   0.815   5.031  0.2850  0.1737  0.7848
    1PA    H15S 2259   2.929   0.699   4.937  1.2856  0.3968  1.8610
    1PA    C114 2260   3.051   0.862   4.979 -0.1888 -0.4245 -0.0296
    1PA    H14R 2261   3.126   0.824   4.908 -0.5304  0.9488 -1.1603
    1PA    H14S 2262   3.055   0.969   4.962 -1.1098 -0.3382  0.2454
    1PA    C113 2263   3.102   0.833   5.117  0.2383  0.7430 -1.0514
    1PA    H13R 2264   3.076   0.733   5.152 -1.0002  2.4859  3.9226
    1PA    H13S 2265   3.210   0.833   5.126  0.1645  2.0194  0.3036
    1PA    C112 2266   3.062   0.947   5.222  0.1270 -0.0518  0.9515
    1PA    H12R 2267   3.103   1.032   5.168 -0.3501 -0.8658 -0.7831
    1PA    H12S 2268   2.953   0.943   5.235  0.0228  1.9892  0.9896
    1PA    C111 2269   3.137   0.926   5.357  0.2584 -0.1114  0.3299
    1PA    H11R 2270   3.108   0.827   5.391  3.0396 -0.9110  0.5527
    1PA    H11S 2271   3.245   0.923   5.343  0.0757 -2.3622 -1.1680
    1PA    C110 2272   3.097   1.030   5.461  0.3991 -0.3941  0.5009
    1PA    H10R 2273   3.075   1.127   5.417  0.8179  0.0979  1.3420
    1PA    H10S 2274   3.015   0.992   5.522  0.7938  0.0599  1.3340
    1PA     C19 2275   3.203   1.054   5.564  0.6363  0.0360 -0.4322
    1PA     H9R 2276   3.222   0.955   5.607 -1.4539 -0.4956 -0.6114
    1PA     H9S 2277   3.296   1.090   5.520 -0.3019  0.3523 -2.2552
    1PA     C18 2278   3.161   1.155   5.670  0.3395 -0.2634 -0.1888
    1PA     H8R 2279   3.135   1.250   5.622 -1.8320 -0.8178 -0.2492
    1PA     H8S 2280   3.070   1.117   5.718  1.3310 -1.1383  1.0358
    1PA     C17 2281   3.259   1.180   5.790  0.6274  0.3685 -0.0447
    1PA     H7R 2282   3.259   1.101   5.866 -0.5841 -0.1482 -0.5587
    1PA     H7S 2283   3.363   1.186   5.759  0.5652  2.2696  0.0011
    1PA     C16 2284   3.214   1.306   5.867 -0.4777 -0.0774  0.2631
    1PA     H6R 2285   3.231   1.388   5.797  0.2352  0.9184  1.5600
    1PA     H6S 2286   3.109   1.305   5.897 -0.6244  0.3980 -0.2348
    1PA     C15 2287   3.302   1.333   5.989 -0.1211 -0.2374  0.0792
    1PA     H5R 2288   3.318   1.242   6.046  1.9942 -0.3490 -0.6153
    1PA     H5S 2289   3.403   1.362   5.959 -0.1944 -1.6327 -1.7185
    1PA     C14 2290   3.242   1.451   6.077  0.4169  0.3818 -0.1333
    1PA     H4R 2291   3.234   1.541   6.014 -2.3578  0.3412  0.0433
    1PA     H4S 2292   3.139   1.428   6.103 -0.3286  0.6427 -2.5854
    1PA     C13 2293   3.322   1.485   6.199 -0.2771  0.0522  0.1088
    1PA     H3R 2294   3.331   1.395   6.261 -0.0040  1.3410  2.0212
    1PA     H3S 2295   3.424   1.516   6.175  0.4528  0.4388  3.3663
    1PA     C12 2296   3.246   1.592   6.279 -0.0292  0.5447  0.4541
    1PA     H2R 2297   3.235   1.677   6.211 -0.7273  0.3376  0.3053
    1PA     H2S 2298   3.146   1.551   6.295 -0.7211  1.9129 -0.1591
    1PC     C11 2299   3.307   1.639   6.412  1.1185 -0.0437  0.2064
    1PC     O12 2300   3.425   1.642   6.437  0.4942  0.2993  0.2641
    1PC     O11 2301   3.222   1.663   6.510  0.1185 -0.2214  0.6065
    1PC      C1 2302   3.267   1.680   6.651  0.1341 -0.6161 -0.3926
    1PC      HR 2303   3.180   1.683   6.717 -0.2920 -0.2664 -0.9656
    1PC      HS 2304   3.336   1.601   6.682  0.4420 -0.2552 -0.1391
    1PC      C2 2305   3.329   1.817   6.683  0.3647  0.2686  0.8627
    1PC      HX 2306   3.385   1.847   6.593 -0.0234  1.2063  0.9276
    1PC      C3 2307   3.423   1.814   6.806  0.0773 -0.4216  0.5835
    1PC      HA 2308   3.508   1.748   6.785  0.0303  0.2928 -2.3095
    1PC      HB 2309   3.462   1.915   6.822 -0.9687  0.5324 -2.2944
    1PC     O31 2310   3.349   1.775   6.925 -0.2741 -0.0769 -0.4506
    1PC     P31 2311   3.398   1.805   7.076  0.4037  0.4737 -0.2730
    1PC     O32 2312   3.546   1.749   7.075  0.2922 -0.3563  0.0717
    1PC     C31 2313   3.571   1.609   7.072  0.0763  0.0994  0.2345
    1PC     H1A 2314   3.489   1.546   7.038  0.7181 -1.4678  1.4603
    1PC     H1B 2315   3.663   1.605   7.013  0.2216 -1.1424  0.5154
    1PC     C32 2316   3.605   1.567   7.209  0.3156  0.8156 -0.0325
    1PC     H2A 2317   3.676   1.640   7.246  0.4290  0.2006  0.9733
    1PC     H2B 2318   3.510   1.568   7.263  0.2254 -0.3129 -0.1419
    1PC     N31 2319   3.668   1.440   7.235 -0.3591 -0.0633 -0.6574
    1PC     C33 2320   3.671   1.418   7.382  0.5145 -0.8768 -0.6043
    1PC     H3A 2321   3.573   1.435   7.427  0.9839  0.8969 -0.1847
    1PC     H3B 2322   3.689   1.313   7.408  0.6324 -0.9977 -1.1761
    1PC     H3C 2323   3.746   1.489   7.416  0.3977 -0.1350 -1.8597
    1PC     C34 2324   3.587   1.328   7.180 -0.0947 -0.0760  0.1745
    1PC     H4A 2325   3.481   1.328   7.208 -0.1700 -0.4198 -0.0961
    1PC     H4B 2326   3.596   1.325   7.071  1.8052 -2.8701  0.2943
    1PC     H4C 2327   3.639   1.236   7.207  0.4634 -0.0105 -0.6204
    1PC     C35 2328   3.805   1.428   7.180  0.3783  0.2763  0.0446
    1PC     H5A 2329   3.879   1.488   7.233  1.7741 -0.0793 -1.4292
    1PC     H5B 2330   3.801   1.449   7.073  1.3220 -0.2517 -0.1038
    1PC     H5C 2331   3.838   1.326   7.195  2.8691  1.1886  1.3685
    1PC     O33 2332   3.411   1.953   7.095  0.0027  0.2684 -0.0395
    1PC     O34 2333   3.317   1.727   7.171  0.6361  0.4245 -0.3567
    1PC     O21 2334   3.218   1.916   6.703  0.1679 -0.0239 -0.3212
    1PC     C21 2335   3.240   2.041   6.658 -1.5783 -0.5444  1.1442
    1PC     O22 2336   3.340   2.078   6.597  0.0567 -0.7144 -0.1374
    1OL     C12 2337   3.124   2.133   6.690  0.3271  0.6123 -0.3172
    1OL     H2R 2338   3.144   2.196   6.777 -1.7591  1.1595 -0.1599
    1OL     H2S 2339   3.039   2.071   6.718 -1.1126  1.4695 -2.4461
    1OL     C13 2340   3.069   2.224   6.577  0.2293 -0.0753 -0.0257
    1OL     H3R 2341   3.151   2.291   6.549 -2.2948  2.1088 -2.9077
    1OL     H3S 2342   2.989   2.284   6.621  0.4242 -0.1272  0.3988
    1OL     C14 2343   3.013   2.149   6.457  0.1502  0.7270 -0.2125
    1OL     H4R 2344   2.936   2.087   6.504  0.9818  0.3180  0.6383
    1OL     H4S 2345   3.075   2.086   6.394  0.1568  1.9688 -1.5018
    1OL     C15 2346   2.946   2.250   6.362  0.6917 -0.2623  0.4567
    1OL     H5R 2347   3.019   2.310   6.308  0.9973 -0.9160  0.1259
    1OL     H5S 2348   2.894   2.324   6.423  0.7410  0.2402 -0.1023
    1OL     C16 2349   2.851   2.180   6.270  0.7115  0.7055  0.4771
    1OL     H6R 2350   2.784   2.121   6.332 -0.3498 -0.0210 -1.2931
    1OL     H6S 2351   2.902   2.104   6.209  0.7326  0.7160  0.4814
    1OL     C17 2352   2.774   2.278   6.181  0.1890  0.2874 -0.4040
    1OL     H7R 2353   2.840   2.337   6.118  1.2236  1.3171  1.5391
    1OL     H7S 2354   2.713   2.348   6.240  2.7384  1.3118  1.2063
    1OL     C18 2355   2.677   2.206   6.089 -0.7166  0.5154 -0.3252
    1OL     H8R 2356   2.596   2.171   6.153 -0.0644 -0.3307  0.0650
    1OL     H8S 2357   2.720   2.119   6.038  0.0758  0.3166  0.6359
    1OL     C19 2358   2.627   2.289   5.981  0.5203  0.3475  0.1183
    1OL     H9R 2359   2.691   2.375   5.963  1.4231 -0.3810 -0.2129
    1OL    C110 2360   2.516   2.268   5.913 -0.4558  0.0624  0.5245
    1OL    H10R 2361   2.487   2.335   5.832 -0.0492  1.0543  1.1687
    1OL    C111 2362   2.422   2.151   5.923 -0.1097  0.4348 -0.3678
    1OL    H11R 2363   2.325   2.189   5.956 -0.7656  0.3516 -2.0883
    1OL    H11S 2364   2.464   2.078   5.992 -1.3898  0.3502  0.3484
    1OL    C112 2365   2.401   2.078   5.787  1.2997  0.1258 -0.8676
    1OL    H12R 2366   2.352   2.154   5.725  0.1114 -0.2301 -0.3831
    1OL    H12S 2367   2.328   1.998   5.796  0.2860  1.2664  4.0755
    1OL    C113 2368   2.526   2.022   5.727 -0.0654 -0.2199  0.2522
    1OL    H13R 2369   2.567   1.938   5.783 -0.9827 -0.4862  0.5423
    1OL    H13S 2370   2.600   2.102   5.717 -0.9481  0.5132 -0.7735
    1OL    C114 2371   2.499   1.953   5.594 -0.2779  0.5117 -0.6636
    1OL    H14R 2372   2.442   2.013   5.523 -1.8018 -2.2292 -1.8878
    1OL    H14S 2373   2.445   1.859   5.604  0.0890  0.1310 -2.0325
    1OL    C115 2374   2.640   1.919   5.530  0.1445  0.2440 -0.5435
    1OL    H15R 2375   2.712   1.884   5.604 -0.7964  0.2534  0.4108
    1OL    H15S 2376   2.697   2.001   5.486  1.9438  0.2034  1.5223
    1OL    C116 2377   2.619   1.825   5.412  0.6894  0.9779  0.1938
    1OL    H16R 2378   2.544   1.857   5.339 -0.0331  0.8550  0.8708
    1OL    H16S 2379   2.600   1.721   5.441  0.5539  1.1633  0.7844
    1OL    C117 2380   2.745   1.809   5.321 -0.2462  0.1316 -0.0050
    1OL    H17R 2381   2.823   1.792   5.395  0.8360  1.7835 -0.7227
    1OL    H17S 2382   2.774   1.905   5.279  2.3850 -1.6791 -2.7690
    1OL    C118 2383   2.745   1.706   5.208  0.0741  0.3165 -0.1689
    1OL    H18R 2384   2.662   1.710   5.137 -0.2645 -0.1682  0.1920
    1OL    H18S 2385   2.723   1.607   5.248 -0.4033  0.1641 -0.7808
    1OL    H18T 2386   2.844   1.701   5.161 -0.5307  3.1472 -1.9941
    1PA    C116 2387   0.094   3.802   5.161 -0.2889  0.5554 -0.1251
    1PA    H16R 2388   0.152   3.883   5.117  0.2601 -0.2246 -0.8556
    1PA    H16S 2389  -0.007   3.807   5.119  0.4450 -2.9537 -2.7035
    1PA    H16T 2390   0.137   3.704   5.140  1.6884  1.4109 -0.2345
    1PA    C115 2391   0.071   3.810   5.315 -0.0988  0.0002  0.2576
    1PA    H15R 2392   0.021   3.906   5.329 -0.8303 -0.2515 -0.5744
    1PA    H15S 2393  -0.012   3.740   5.320 -1.3674  1.1343 -2.6907
    1PA    C114 2394   0.188   3.787   5.405 -0.0315 -0.2600  0.0664
    1PA    H14R 2395   0.202   3.680   5.389 -2.1404 -0.3165 -1.9125
    1PA    H14S 2396   0.280   3.832   5.367  1.6840 -3.2992  0.3090
    1PA    C113 2397   0.166   3.827   5.556 -0.0378 -0.0884  0.0961
    1PA    H13R 2398   0.256   3.802   5.612  0.0665  2.2842  1.1057
    1PA    H13S 2399   0.160   3.935   5.569 -1.9815 -0.2897  1.2137
    1PA    C112 2400   0.049   3.754   5.614 -0.5949 -0.4773  0.4696
    1PA    H12R 2401  -0.035   3.737   5.547  0.9570 -2.1802 -1.1375
    1PA    H12S 2402   0.095   3.656   5.624  2.1688  0.4660 -1.6664
    1PA    C111 2403  -0.006   3.818   5.739  0.1454 -0.4975 -0.8336
    1PA    H11R 2404  -0.085   3.753   5.776  2.1726 -2.6341  0.0173
    1PA    H11S 2405   0.065   3.818   5.822 -1.8571 -0.9991  0.9695
    1PA    C110 2406  -0.064   3.959   5.715 -0.1782  0.3201 -0.1177
    1PA    H10R 2407   0.009   4.025   5.667 -0.7604  3.0836  2.4463
    1PA    H10S 2408  -0.145   3.928   5.649  2.5686 -0.3909 -3.4357
    1PA     C19 2409  -0.116   4.036   5.836 -0.0483  0.3151 -0.8826
    1PA     H9R 2410  -0.178   4.119   5.803  0.4934  1.1982  0.2222
    1PA     H9S 2411  -0.181   3.974   5.899 -1.4098 -0.2615 -2.7925
    1PA     C18 2412  -0.005   4.084   5.932 -0.5810 -0.1458 -0.2864
    1PA     H8R 2413   0.053   4.003   5.977 -2.5608 -0.9066  1.0470
    1PA     H8S 2414   0.065   4.144   5.874 -0.4385 -0.6761 -0.6667
    1PA     C17 2415  -0.054   4.171   6.045  0.6952 -0.6685  0.6050
    1PA     H7R 2416  -0.139   4.132   6.102 -1.0838  1.7626 -0.2105
    1PA     H7S 2417   0.028   4.183   6.116 -0.3177  0.3681  1.6703
    1PA     C16 2418  -0.101   4.311   5.995 -0.1736  0.3250 -0.1068
    1PA     H6R 2419  -0.017   4.372   5.962 -1.3846  2.0094 -0.2524
    1PA     H6S 2420  -0.168   4.299   5.910 -0.9539  1.0901  0.3779
    1PA     C15 2421  -0.177   4.397   6.097  0.4008 -0.0145 -0.4990
    1PA     H5R 2422  -0.205   4.494   6.055 -4.5051  0.7177  3.4963
    1PA     H5S 2423  -0.272   4.346   6.115  0.9321 -0.3648  1.5882
    1PA     C14 2424  -0.098   4.431   6.222  0.3157 -0.9045 -0.3605
    1PA     H4R 2425  -0.084   4.333   6.269  0.4984 -1.3578 -1.3387
    1PA     H4S 2426   0.001   4.461   6.188 -0.1134 -1.2624 -1.9990
    1PA     C13 2427  -0.171   4.541   6.311 -0.8081  0.4313  0.4074
    1PA     H3R 2428  -0.174   4.630   6.248  1.2240  0.4243  0.2299
    1PA     H3S 2429  -0.270   4.501   6.335 -1.2207 -0.3788 -2.3553
    1PA     C12 2430  -0.101   4.581   6.446  0.0121  0.0944  1.2267
    1PA     H2R 2431   0.008   4.586   6.441  0.0008 -0.6062 -0.1763
    1PA     H2S 2432  -0.134   4.679   6.481 -0.2958 -0.0776  1.4181
    1PC     C11 2433  -0.158   4.475   6.538 -0.1600  0.1175 -0.0818
    1PC     O12 2434  -0.266   4.477   6.590 -0.5453  0.1389  0.1972
    1PC     O11 2435  -0.065   4.377   6.550  0.2243  0.0149  0.4225
    1PC      C1 2436  -0.079   4.258   6.639  0.6413 -0.3075  0.2656
    1PC      HR 2437  -0.119   4.282   6.737 -2.7481 -1.0522 -0.8164
    1PC      HS 2438  -0.139   4.187   6.582  0.8200  0.3784 -0.8092
    1PC      C2 2439   0.061   4.195   6.673  0.6555 -0.4100 -0.3771
    1PC      HX 2440   0.044   4.105   6.733 -1.0647  0.4766  0.5379
    1PC      C3 2441   0.147   4.299   6.750  0.1411 -0.0476  0.3493
    1PC      HA 2442   0.244   4.248   6.760 -0.9065 -1.6834  3.5926
    1PC      HB 2443   0.157   4.378   6.676  0.7127 -0.3481  0.0957
    1PC     O31 2444   0.092   4.339   6.877 -0.3454  0.3281 -0.4333
    1PC     P31 2445   0.136   4.262   7.014 -0.0644 -0.3243  0.2784
    1PC     O32 2446   0.072   4.119   6.989 -0.0678 -0.3044  0.8865
    1PC     C31 2447   0.153   3.999   7.002 -0.9332  0.4866 -0.2890
    1PC     H1A 2448   0.098   3.916   6.957  0.0715 -0.5657  0.3881
    1PC     H1B 2449   0.244   4.013   6.943  0.3563  0.9344  1.7211
    1PC     C32 2450   0.198   3.975   7.140 -0.2791  0.0164 -0.3949
    1PC     H2A 2451   0.261   3.886   7.138 -0.0202  0.2138 -1.1621
    1PC     H2B 2452   0.263   4.059   7.167 -1.1867  0.1116  1.6625
    1PC     N31 2453   0.098   3.953   7.249 -0.4177 -0.5011  0.0071
    1PC     C33 2454   0.034   4.083   7.302 -0.1620  0.8627  0.1199
    1PC     H3A 2455  -0.033   4.105   7.220  1.2955  3.4840 -0.4870
    1PC     H3B 2456  -0.026   4.065   7.391 -1.8936 -2.2905 -1.5145
    1PC     H3C 2457   0.111   4.161   7.296  0.4884  0.1602 -0.8535
    1PC     C34 2458  -0.007   3.854   7.196 -0.1559  0.2097  0.6289
    1PC     H4A 2459  -0.064   3.896   7.113 -0.4352 -1.3009  0.0132
    1PC     H4B 2460   0.042   3.762   7.164  1.2568  0.5372  1.7608
    1PC     H4C 2461  -0.072   3.837   7.283  1.5195 -0.8695  1.7294
    1PC     C35 2462   0.174   3.888   7.362 -0.2604 -1.0331  0.6859
    1PC     H5A 2463   0.112   3.889   7.452  1.1031 -0.9838  1.6510
    1PC     H5B 2464   0.265   3.948   7.368 -0.7029 -0.2445 -0.1437
    1PC     H5C 2465   0.184   3.782   7.338 -3.3817 -1.5782  1.3184
    1PC     O33 2466   0.281   4.258   7.031  0.0043 -0.7430  0.4845
    1PC     O34 2467   0.063   4.322   7.126  0.0865 -0.3273 -0.1297
    1PC     O21 2468   0.133   4.151   6.550  0.6364  0.1484 -0.7822
    1PC     C21 2469   0.089   4.044   6.485  0.3565  0.1789  0.2786
    1PC     O22 2470  -0.001   3.968   6.523 -0.1477  0.0565 -0.7722
    1OL     C12 2471   0.176   4.034   6.359 -0.3795  0.4475 -0.0678
    1OL     H2R 2472   0.279   4.010   6.383 -0.3773  0.6767  0.1589
    1OL     H2S 2473   0.171   4.138   6.325  3.1216  0.7410 -0.0108
    1OL     C13 2474   0.134   3.929   6.253  0.0220  0.3603 -0.1934
    1OL     H3R 2475   0.191   3.934   6.160  0.7547  2.8297  0.3203
    1OL     H3S 2476   0.029   3.944   6.226  0.0094  0.5159 -0.0592
    1OL     C14 2477   0.153   3.778   6.282  0.0580  0.0436  0.0254
    1OL     H4R 2478   0.092   3.735   6.361  1.6991 -0.7137  0.9310
    1OL     H4S 2479   0.257   3.762   6.310  1.1392  0.7862 -3.1373
    1OL     C15 2480   0.127   3.692   6.157 -0.1585 -0.0874  0.1899
    1OL     H5R 2481   0.136   3.589   6.192  1.3063  0.1054  0.4370
    1OL     H5S 2482   0.205   3.717   6.085 -0.9235  2.1686  0.0408
    1OL     C16 2483  -0.014   3.714   6.084 -0.4482 -0.2881 -0.3989
    1OL     H6R 2484  -0.005   3.677   5.982 -0.0706 -2.0414  0.2359
    1OL     H6S 2485  -0.030   3.822   6.083 -3.6396 -0.5952  1.8948
    1OL     C17 2486  -0.132   3.642   6.150  0.1173  0.6978 -0.7234
    1OL     H7R 2487  -0.215   3.676   6.089  0.6505  1.8753 -0.8277
    1OL     H7S 2488  -0.153   3.659   6.256 -1.0883 -1.8574 -0.4783
    1OL     C18 2489  -0.122   3.492   6.135 -0.2453 -0.6264  0.2899
    1OL     H8R 2490  -0.044   3.437   6.187 -2.8927 -3.5918  1.4489
    1OL     H8S 2491  -0.096   3.470   6.031  0.4070 -0.7560  0.4815
    1OL     C19 2492  -0.247   3.426   6.172  0.1630  0.3796  0.0935
    1OL     H9R 2493  -0.283   3.445   6.273 -0.7395 -1.9963  0.3018
    1OL    C110 2494  -0.321   3.338   6.107  0.1378 -0.7674  0.1246
    1OL    H10R 2495  -0.412   3.292   6.143  0.3941 -0.5571  1.0840
    1OL    C111 2496  -0.288   3.292   5.969  0.2426 -0.0471 -0.4918
    1OL    H11R 2497  -0.346   3.200   5.955  0.9021 -0.5800  0.1973
    1OL    H11S 2498  -0.189   3.248   5.968 -0.2142 -1.1668  0.5601
    1OL    C112 2499  -0.322   3.398   5.864  0.1175 -0.5672  0.2598
    1OL    H12R 2500  -0.291   3.497   5.898  1.1382 -0.1052 -1.8702
    1OL    H12S 2501  -0.431   3.397   5.859  0.1182 -0.2151  0.1461
    1OL    C113 2502  -0.255   3.363   5.730 -0.4381  0.1023  0.0984
    1OL    H13R 2503  -0.298   3.273   5.686 -0.3966  0.9888 -1.8851
    1OL    H13S 2504  -0.150   3.341   5.747 -0.6304 -1.4954 -0.5904
    1OL    C114 2505  -0.270   3.470   5.625 -0.4430  0.5458  0.2999
    1OL    H14R 2506  -0.218   3.558   5.663  0.8170  0.8304 -1.9388
    1OL    H14S 2507  -0.375   3.490   5.606 -0.1520 -0.9734 -3.7764
    1OL    C115 2508  -0.210   3.446   5.483 -0.6921 -0.5604  0.1133
    1OL    H15R 2509  -0.260   3.366   5.428  0.2690  0.1953 -1.9961
    1OL    H15S 2510  -0.104   3.420   5.486 -0.8826 -1.5366 -0.9334
    1OL    C116 2511  -0.227   3.568   5.395  0.1900 -0.2628 -0.4731
    1OL    H16R 2512  -0.139   3.576   5.331  1.1060  0.2250  0.7933
    1OL    H16S 2513  -0.230   3.660   5.454  1.5411  0.3738 -1.3518
    1OL    C117 2514  -0.355   3.566   5.307  0.2076 -0.4062  0.1441
    1OL    H17R 2515  -0.434   3.574   5.382  0.8736 -1.4119  0.9762
    1OL    H17S 2516  -0.361   3.465   5.266  2.4979 -1.0505  1.2747
    1OL    C118 2517  -0.365   3.674   5.201  0.4910 -0.0842  1.2562
    1OL    H18R 2518  -0.376   3.771   5.250  1.2908  0.8471 -0.3199
    1OL    H18S 2519  -0.453   3.650   5.140  1.1853 -1.5680  0.8061
    1OL    H18T 2520  -0.275   3.679   5.140  0.4640  0.6333  1.2695
    1PA    C116 2521   0.341   5.172   5.686  0.2653 -0.2027  0.8033
    1PA    H16R 2522   0.423   5.234   5.723  1.3353 -1.2742  0.3063
    1PA    H16S 2523   0.391   5.116   5.607  0.4857  2.1371 -0.7804
    1PA    H16T 2524   0.318   5.105   5.769  2.1658 -0.6676  1.0041
    1PA    C115 2525   0.219   5.241   5.628 -0.1875 -0.2230 -0.0370
    1PA    H15R 2526   0.253   5.309   5.550 -0.2087  0.9277  0.9214
    1PA    H15S 2527   0.151   5.167   5.585  1.3714 -0.6284 -1.9239
    1PA    C114 2528   0.145   5.325   5.734 -0.6600  0.0097 -0.0794
    1PA    H14R 2529   0.221   5.370   5.798  0.8081 -1.1766 -0.8860
    1PA    H14S 2530   0.096   5.404   5.677  0.1886  0.4417 -0.2257
    1PA    C113 2531   0.035   5.278   5.825 -0.0100  0.1033 -0.0707
    1PA    H13R 2532  -0.033   5.363   5.835 -0.3413 -0.2600  0.8239
    1PA    H13S 2533  -0.027   5.215   5.759 -1.2050  0.8315  0.3198
    1PA    C112 2534   0.078   5.226   5.957 -0.3127  0.2494  0.6243
    1PA    H12R 2535  -0.014   5.188   6.002 -0.5138 -2.1947 -1.6367
    1PA    H12S 2536   0.142   5.139   5.943 -0.2976  0.3678 -0.0939
    1PA    C111 2537   0.137   5.330   6.054  0.0076 -0.3516  0.0121
    1PA    H11R 2538   0.153   5.292   6.155 -0.4852 -1.8248 -0.4334
    1PA    H11S 2539   0.238   5.354   6.020  0.7009  0.2196  2.2933
    1PA    C110 2540   0.057   5.461   6.055 -0.5550 -0.3437 -0.0499
    1PA    H10R 2541   0.077   5.521   5.966 -1.0392  0.0633  0.1166
    1PA    H10S 2542  -0.051   5.456   6.070 -0.7951  1.0053 -1.0706
    1PA     C19 2543   0.108   5.552   6.169 -0.4417 -0.4046 -0.2653
    1PA     H9R 2544   0.217   5.559   6.160 -0.1747 -1.0513  1.9306
    1PA     H9S 2545   0.074   5.654   6.150  0.7535 -0.1538 -1.2160
    1PA     C18 2546   0.070   5.514   6.313 -0.1685 -0.5702 -0.3719
    1PA     H8R 2547   0.084   5.407   6.331 -3.0266 -0.7957  1.1892
    1PA     H8S 2548   0.130   5.571   6.384 -3.4297  0.8841  1.4905
    1PA     C17 2549  -0.075   5.557   6.344  0.4859 -0.7885  0.5554
    1PA     H7R 2550  -0.097   5.657   6.306  1.1654 -1.2551 -1.1879
    1PA     H7S 2551  -0.136   5.490   6.282 -2.4531  2.1249 -0.0348
    1PA     C16 2552  -0.116   5.554   6.489  0.0029 -0.3244  0.4089
    1PA     H6R 2553  -0.222   5.548   6.513 -0.3352 -0.3897 -0.9836
    1PA     H6S 2554  -0.091   5.452   6.519 -1.6223 -1.3374 -1.4006
    1PA     C15 2555  -0.048   5.658   6.580  0.6100  0.0868  0.0334
    1PA     H5R 2556  -0.112   5.655   6.668 -1.1276 -2.1410 -1.2019
    1PA     H5S 2557   0.045   5.610   6.610  0.0586 -0.5940  0.6971
    1PA     C14 2558  -0.040   5.808   6.538  0.3837 -0.1951 -0.0232
    1PA     H4R 2559   0.049   5.828   6.478  2.7550 -0.3147  3.1877
    1PA     H4S 2560  -0.124   5.844   6.478 -1.3319 -1.3595  1.5866
    1PA     C13 2561  -0.017   5.908   6.655  0.6845 -0.3045  0.8947
    1PA     H3R 2562  -0.018   6.014   6.627  2.0508 -0.7167 -0.9015
    1PA     H3S 2563  -0.102   5.894   6.722 -2.9589  3.8379 -2.2216
    1PA     C12 2564   0.116   5.873   6.726 -0.5018 -0.5065 -0.0315
    1PA     H2R 2565   0.152   5.770   6.739  3.2234  0.7243  0.7689
    1PA     H2S 2566   0.195   5.919   6.666 -2.9391  2.4014 -1.2748
    1PC     C11 2567   0.140   5.939   6.858  0.2131 -0.3063  0.5204
    1PC     O12 2568   0.091   5.900   6.965  0.3262 -0.3403 -0.2401
    1PC     O11 2569   0.230   6.051   6.849 -0.0717  0.0264 -1.1354
    1PC      C1 2570   0.267   6.133   6.966  0.1233  0.1486 -0.1160
    1PC      HR 2571   0.208   6.224   6.957 -1.0512 -0.7102 -1.8296
    1PC      HS 2572   0.244   6.077   7.057 -1.3422 -0.1982 -0.6636
    1PC      C2 2573   0.418   6.167   6.962  0.3567 -0.7797  0.5464
    1PC      HX 2574   0.474   6.075   6.942  0.4011 -0.5590 -0.3848
    1PC      C3 2575   0.459   6.228   7.101 -0.3017  0.8713  0.5993
    1PC      HA 2576   0.559   6.268   7.084 -1.1420  3.0178  0.2805
    1PC      HB 2577   0.405   6.319   7.127 -0.2689  2.1248 -3.0462
    1PC     O31 2578   0.448   6.124   7.198 -0.3910  0.5029 -0.2854
    1PC     P31 2579   0.551   5.992   7.207  0.5704  0.4314 -0.1860
    1PC     O32 2580   0.605   6.006   7.356  0.0091 -0.2943 -0.1676
    1PC     C31 2581   0.539   5.949   7.470  0.5177 -0.4580  0.3201
    1PC     H1A 2582   0.431   5.948   7.454  0.5321  2.2089 -0.4338
    1PC     H1B 2583   0.572   5.847   7.491 -0.9219 -1.2996 -1.3037
    1PC     C32 2584   0.565   6.041   7.584  0.7792  0.2459 -0.5449
    1PC     H2A 2585   0.673   6.042   7.599  0.3293  1.1883  3.7822
    1PC     H2B 2586   0.527   6.140   7.559 -1.9458 -0.4555  0.4885
    1PC     N31 2587   0.494   6.012   7.716  0.4779  0.6264 -0.0465
    1PC     C33 2588   0.524   6.125   7.803  1.1136  0.4407 -0.5515
    1PC     H3A 2589   0.627   6.160   7.793  1.0444  1.2989  1.3737
    1PC     H3B 2590   0.467   6.207   7.759  1.9496  0.6613 -1.2477
    1PC     H3C 2591   0.494   6.113   7.907  1.0090 -1.3144 -0.7576
    1PC     C34 2592   0.347   6.002   7.692  0.7509 -0.2245 -0.0363
    1PC     H4A 2593   0.322   6.071   7.611  0.2220 -1.3382 -0.8542
    1PC     H4B 2594   0.327   5.902   7.651  1.1216 -0.8072  1.1568
    1PC     H4C 2595   0.296   6.022   7.786 -0.0265 -2.5292  0.0940
    1PC     C35 2596   0.538   5.885   7.784 -0.0403 -0.1367  0.2233
    1PC     H5A 2597   0.509   5.801   7.719 -2.9646  2.6058 -2.4117
    1PC     H5B 2598   0.491   5.876   7.882  1.0739 -3.3045  0.5677
    1PC     H5C 2599   0.646   5.896   7.788 -0.0168 -0.7741  1.9666
    1PC     O33 2600   0.464   5.873   7.200  0.0791  0.3381  0.0408
    1PC     O34 2601   0.659   6.019   7.109 -0.1486  1.2137 -0.4918
    1PC     O21 2602   0.456   6.267   6.859 -0.4349 -0.7315 -0.3050
    1PC     C21 2603   0.492   6.232   6.734  0.0083 -0.3535 -0.2378
    1PC     O22 2604   0.488   6.117   6.696 -0.2347 -0.3122 -0.3232
    1OL     C12 2605   0.536   6.353   6.652  0.1371  0.1769 -0.1467
    1OL     H2R 2606   0.557   6.434   6.722 -0.1774 -0.5589  0.8102
    1OL     H2S 2607   0.447   6.381   6.594 -2.1900 -0.3094  2.9631
    1OL     C13 2608   0.652   6.322   6.556 -0.0566 -0.7865 -0.5939
    1OL     H3R 2609   0.623   6.240   6.490 -0.0720 -0.3383 -1.1494
    1OL     H3S 2610   0.729   6.280   6.622 -1.2673 -0.2328  1.2508
    1OL     C14 2611   0.701   6.439   6.474  0.1994  0.6232 -0.4030
    1OL     H4R 2612   0.805   6.420   6.445 -0.1239  0.0903 -1.2343
    1OL     H4S 2613   0.693   6.525   6.542  0.9464  0.9822 -0.7538
    1OL     C15 2614   0.618   6.470   6.345  0.3046  1.3202  0.0996
    1OL     H5R 2615   0.512   6.468   6.372  0.1981  1.9960 -0.2455
    1OL     H5S 2616   0.626   6.387   6.274 -1.7859  0.7361  0.4759
    1OL     C16 2617   0.654   6.603   6.284 -0.5869 -0.0220  0.4387
    1OL     H6R 2618   0.762   6.596   6.275 -0.5409  0.0732  0.8664
    1OL     H6S 2619   0.617   6.680   6.353  1.4704  1.6670 -0.2413
    1OL     C17 2620   0.604   6.645   6.146  0.0369 -0.2051 -0.2198
    1OL     H7R 2621   0.634   6.746   6.119 -0.1332 -0.0358  0.2213
    1OL     H7S 2622   0.496   6.638   6.152 -0.1068  1.7593  0.0658
    1OL     C18 2623   0.657   6.559   6.032  0.1352  0.2152 -0.4128
    1OL     H8R 2624   0.632   6.453   6.043  1.1886  0.1618  2.1803
    1OL     H8S 2625   0.765   6.572   6.028  0.6361 -3.1004 -0.0784
    1OL     C19 2626   0.591   6.621   5.907  0.2777  0.3108  0.4783
    1OL     H9R 2627   0.568   6.726   5.896 -0.1581 -0.0542 -3.0461
    1OL    C110 2628   0.536   6.548   5.809  0.1669  0.1954 -0.0883
    1OL    H10R 2629   0.494   6.607   5.728  0.0058  2.0762  1.2828
    1OL    C111 2630   0.545   6.400   5.787  0.3752 -0.0305  0.0926
    1OL    H11R 2631   0.481   6.347   5.858  1.0132 -1.7435 -0.5524
    1OL    H11S 2632   0.642   6.358   5.816  0.0870 -0.3132  0.6722
    1OL    C112 2633   0.524   6.355   5.638 -0.4875  0.4337 -0.3958
    1OL    H12R 2634   0.593   6.420   5.584 -0.0175  0.1762 -0.1164
    1OL    H12S 2635   0.425   6.380   5.602 -1.5392 -1.2239  1.1580
    1OL    C113 2636   0.542   6.206   5.619 -0.2472  0.3881 -1.1833
    1OL    H13R 2637   0.646   6.179   5.633 -0.2695  0.1461 -1.4819
    1OL    H13S 2638   0.514   6.180   5.517  2.8882 -0.9164 -1.8129
    1OL    C114 2639   0.462   6.113   5.711  0.5187  0.5831  0.1659
    1OL    H14R 2640   0.353   6.126   5.709  0.3977  0.3608  2.7689
    1OL    H14S 2641   0.493   6.132   5.813 -3.2104 -0.5797  1.6975
    1OL    C115 2642   0.486   5.965   5.668 -0.4593  0.0729  0.4403
    1OL    H15R 2643   0.591   5.949   5.644 -0.9003 -0.6678 -1.0928
    1OL    H15S 2644   0.433   5.951   5.574 -1.8478 -0.2441  1.2456
    1OL    C116 2645   0.430   5.862   5.774 -0.9640  0.3919  0.6654
    1OL    H16R 2646   0.321   5.870   5.772 -1.0439 -0.4302 -2.0687
    1OL    H16S 2647   0.464   5.889   5.874  2.2244 -2.0920  0.4093
    1OL    C117 2648   0.465   5.709   5.752  0.2393 -0.4135  0.2807
    1OL    H17R 2649   0.571   5.691   5.734  0.1543 -0.3025 -0.3747
    1OL    H17S 2650   0.411   5.686   5.660 -2.7379  1.4465  1.3950
    1OL    C118 2651   0.405   5.612   5.860  0.8088 -0.0278 -0.0580
    1OL    H18R 2652   0.307   5.654   5.886  0.7506  0.5488 -1.1214
    1OL    H18S 2653   0.453   5.633   5.956  1.5094  1.1108 -0.6362
    1OL    H18T 2654   0.391   5.511   5.821  2.2358 -0.6661  1.0305
    1PA    C116 2655   1.019   4.951   5.175  0.0502 -0.7619 -0.2667
    1PA    H16R 2656   1.109   4.889   5.178  0.8747  0.4466  1.1226
    1PA    H16S 2657   1.022   5.027   5.097 -2.1836 -0.4443 -0.1095
    1PA    H16T 2658   0.940   4.881   5.147 -1.0109 -0.1019  1.0072
    1PA    C115 2659   0.977   5.012   5.301 -0.7498  0.1780  0.4529
    1PA    H15R 2660   1.039   5.100   5.318 -1.0733  0.2549  1.3141
    1PA    H15S 2661   0.873   5.045   5.291 -0.8372  0.1294  1.1107
    1PA    C114 2662   0.995   4.926   5.421  0.3331  0.6605 -0.1822
    1PA    H14R 2663   1.093   4.877   5.418 -0.0223 -0.0418 -0.7328
    1PA    H14S 2664   1.000   4.989   5.510 -0.3285  2.2753 -1.2434
    1PA    C113 2665   0.889   4.815   5.431  0.3159 -0.3297  0.7823
    1PA    H13R 2666   0.794   4.849   5.388  1.1834  0.1539 -0.8243
    1PA    H13S 2667   0.935   4.733   5.375 -0.2826 -0.6383  0.7308
    1PA    C112 2668   0.867   4.779   5.579  0.6834  0.1997  0.2561
    1PA    H12R 2669   0.956   4.756   5.638  0.4382 -2.0358 -0.1258
    1PA    H12S 2670   0.810   4.850   5.638 -0.4997 -1.8562  1.7236
    1PA    C111 2671   0.777   4.654   5.598 -0.2465 -0.1137  0.1747
    1PA    H11R 2672   0.683   4.665   5.544 -0.3858 -1.0409  0.2087
    1PA    H11S 2673   0.824   4.566   5.553 -0.9647 -0.8668  0.8725
    1PA    C110 2674   0.745   4.626   5.740 -0.0700 -0.2564 -0.3781
    1PA    H10R 2675   0.834   4.614   5.803 -0.0759 -2.3667 -0.7007
    1PA    H10S 2676   0.689   4.714   5.774  1.2212  0.3297  0.3455
    1PA     C19 2677   0.672   4.495   5.758  0.2848  0.4138 -0.5635
    1PA     H9R 2678   0.565   4.517   5.750  0.6485  2.1625 -1.2216
    1PA     H9S 2679   0.711   4.437   5.674 -2.2178 -0.4600 -1.2012
    1PA     C18 2680   0.687   4.414   5.888 -0.7789  0.7800 -0.1371
    1PA     H8R 2681   0.645   4.315   5.873  1.2172 -0.2170  0.5647
    1PA     H8S 2682   0.790   4.381   5.902 -1.0455 -0.3696 -0.8234
    1PA     C17 2683   0.638   4.468   6.029 -0.1821 -0.2646  0.4860
    1PA     H7R 2684   0.661   4.395   6.106  0.7040  0.1259  0.6007
    1PA     H7S 2685   0.704   4.551   6.057  0.3941  0.0430 -1.5815
    1PA     C16 2686   0.492   4.516   6.036  0.5528  0.2075  0.8577
    1PA     H6R 2687   0.485   4.594   5.960  2.2661  0.2580  0.7206
    1PA     H6S 2688   0.435   4.430   6.001 -1.1859  2.0082 -1.0157
    1PA     C15 2689   0.438   4.558   6.180  0.1006 -0.5561  0.1606
    1PA     H5R 2690   0.474   4.649   6.227 -1.0887  0.5901 -1.0418
    1PA     H5S 2691   0.332   4.576   6.161  0.1444 -0.7504 -0.2806
    1PA     C14 2692   0.459   4.441   6.280 -0.1369  0.5144 -0.8494
    1PA     H4R 2693   0.424   4.349   6.233  1.4437 -0.4298 -0.2534
    1PA     H4S 2694   0.563   4.434   6.310 -0.5810  0.0248  0.6822
    1PA     C13 2695   0.375   4.466   6.410  0.4781  0.0591 -0.6903
    1PA     H3R 2696   0.270   4.462   6.382  0.4577 -1.1613 -0.4902
    1PA     H3S 2697   0.394   4.381   6.476 -2.7910 -0.5789 -0.4203
    1PA     C12 2698   0.415   4.595   6.478 -0.1603 -0.4925 -0.2581
    1PA     H2R 2699   0.524   4.591   6.482 -0.0676  1.3209 -0.4259
    1PA     H2S 2700   0.378   4.681   6.422  1.5392  1.1197  0.9567
    1PC     C11 2701   0.351   4.613   6.619  0.1879 -0.4812  1.0353
    1PC     O12 2702   0.416   4.624   6.720  0.0198 -0.0126  0.0001
    1PC     O11 2703   0.219   4.597   6.614 -0.4411 -0.2637  0.5178
    1PC      C1 2704   0.141   4.622   6.734  0.6456 -0.2910 -0.2626
    1PC      HR 2705   0.038   4.586   6.727 -0.3828  2.2795  0.2604
    1PC      HS 2706   0.195   4.573   6.816  1.3829 -0.1260 -0.6417
    1PC      C2 2707   0.129   4.774   6.765 -0.3486  0.0347 -0.0289
    1PC      HX 2708   0.227   4.814   6.792  0.3240 -0.0793 -2.1411
    1PC      C3 2709   0.033   4.813   6.887 -0.1660 -0.0296 -0.2958
    1PC      HA 2710   0.032   4.923   6.891  0.6370  0.0152 -1.1695
    1PC      HB 2711  -0.070   4.788   6.862 -1.2525  0.8444  2.7513
    1PC     O31 2712   0.068   4.751   7.010 -0.5336  0.0083 -0.0802
    1PC     P31 2713   0.177   4.812   7.110  0.2610 -0.4008 -0.1113
    1PC     O32 2714   0.314   4.753   7.058  0.0103 -0.7114 -0.0477
    1PC     C31 2715   0.368   4.626   7.108  0.2013 -0.2733  0.8719
    1PC     H1A 2716   0.293   4.547   7.117  3.8559 -4.0032  1.4260
    1PC     H1B 2717   0.430   4.588   7.026  0.5370 -0.8664  1.3939
    1PC     C32 2718   0.446   4.642   7.236 -0.7738 -0.0595  0.2351
    1PC     H2A 2719   0.544   4.685   7.218  0.1023 -2.0764 -0.0570
    1PC     H2B 2720   0.392   4.702   7.309 -1.3469 -0.5436  0.2223
    1PC     N31 2721   0.478   4.503   7.303  0.7183  0.6340 -0.1212
    1PC     C33 2722   0.539   4.526   7.435 -0.4800  0.2463  0.4879
    1PC     H3A 2723   0.643   4.556   7.426 -0.2717 -0.9555 -1.6482
    1PC     H3B 2724   0.479   4.602   7.486 -0.0356  0.1293  1.2073
    1PC     H3C 2725   0.529   4.429   7.485 -0.8548  1.2960  2.5549
    1PC     C34 2726   0.359   4.422   7.321 -0.1211 -0.0371 -0.1807
    1PC     H4A 2727   0.389   4.346   7.394 -0.2833  0.5290  0.4813
    1PC     H4B 2728   0.278   4.485   7.356  1.3093  0.7699  1.8529
    1PC     H4C 2729   0.335   4.377   7.224  0.2457  1.2345 -0.8868
    1PC     C35 2730   0.581   4.430   7.226 -0.1132  0.5463  0.1629
    1PC     H5A 2731   0.540   4.401   7.129 -2.5694  1.0235  0.9887
    1PC     H5B 2732   0.615   4.342   7.280 -2.9351 -0.5998  0.2526
    1PC     H5C 2733   0.658   4.504   7.203 -0.6805  1.2384  0.4423
    1PC     O33 2734   0.186   4.954   7.102 -0.5874 -0.1148 -0.1566
    1PC     O34 2735   0.140   4.755   7.237 -0.2158 -0.1923  0.1886
    1PC     O21 2736   0.067   4.842   6.651  0.1654  0.1080 -0.4607
    1PC     C21 2737   0.155   4.906   6.560 -1.0709  0.8406  1.0281
    1PC     O22 2738   0.279   4.917   6.574  0.6736 -0.8521  0.8159
    1OL     C12 2739   0.079   4.947   6.428 -0.1760 -0.0935  0.2377
    1OL     H2R 2740   0.002   5.021   6.454  0.3146 -0.1713  1.9942
    1OL     H2S 2741   0.026   4.864   6.381  0.2035  0.6739 -1.6547
    1OL     C13 2742   0.177   5.004   6.317 -0.5246 -0.4699  0.2694
    1OL     H3R 2743   0.268   5.046   6.360  0.9254  0.3173 -3.2139
    1OL     H3S 2744   0.118   5.079   6.264 -0.0058 -0.6553 -0.5757
    1OL     C14 2745   0.237   4.910   6.206 -0.1390  0.4009  0.5068
    1OL     H4R 2746   0.285   4.825   6.255 -1.2603 -0.8622 -0.5201
    1OL     H4S 2747   0.306   4.966   6.143 -1.1511  0.3810 -0.6497
    1OL     C15 2748   0.116   4.858   6.112  0.3880 -0.6436 -1.0297
    1OL     H5R 2749   0.052   4.944   6.092  1.3757  0.4222  0.1532
    1OL     H5S 2750   0.043   4.802   6.171 -0.5320  1.4767 -0.0209
    1OL     C16 2751   0.165   4.795   5.983  0.4056  0.8901 -0.4827
    1OL     H6R 2752   0.178   4.687   5.992 -0.9584  0.6815 -0.7875
    1OL     H6S 2753   0.257   4.843   5.948  1.3493 -1.0439 -0.7646
    1OL     C17 2754   0.070   4.816   5.858 -0.8717 -0.1017  0.1685
    1OL     H7R 2755   0.121   4.798   5.763 -1.3974 -0.8602  0.0219
    1OL     H7S 2756   0.042   4.922   5.861  0.1347  0.2560 -1.6013
    1OL     C18 2757  -0.056   4.723   5.877 -0.3659  0.3109  0.5395
    1OL     H8R 2758  -0.121   4.740   5.963 -0.8610 -3.2261  1.0330
    1OL     H8S 2759  -0.027   4.621   5.902 -2.2165 -0.0071  1.5879
    1OL     C19 2760  -0.153   4.730   5.759  0.0276 -0.5947 -0.5376
    1OL     H9R 2761  -0.201   4.827   5.746  1.3186 -0.1437 -2.2712
    1OL    C110 2762  -0.194   4.634   5.677 -0.0116 -0.1824 -0.4791
    1OL    H10R 2763  -0.271   4.660   5.604  0.0062 -1.1534 -0.8525
    1OL    C111 2764  -0.166   4.486   5.687 -0.1665 -0.3248 -0.8238
    1OL    H11R 2765  -0.264   4.440   5.701  0.0874 -0.6428 -0.0238
    1OL    H11S 2766  -0.104   4.475   5.776 -1.0330  1.3645  0.0110
    1OL    C112 2767  -0.092   4.420   5.566  0.0808  0.1850 -0.9059
    1OL    H12R 2768  -0.083   4.314   5.593 -0.7639 -0.7208 -3.8600
    1OL    H12S 2769   0.008   4.463   5.569 -0.1493  0.6935  0.0693
    1OL    C113 2770  -0.155   4.456   5.425  0.4705  0.1757  0.1611
    1OL    H13R 2771  -0.141   4.564   5.412  1.5691 -0.0861 -1.0505
    1OL    H13S 2772  -0.260   4.427   5.433  0.6177 -0.5979 -0.6244
    1OL    C114 2773  -0.085   4.389   5.310  0.1559 -0.5267  0.5452
    1OL    H14R 2774  -0.096   4.281   5.323  1.5933 -0.8974 -1.0955
    1OL    H14S 2775   0.020   4.414   5.327 -0.8059  2.6550  2.6300
    1OL    C115 2776  -0.129   4.449   5.177 -0.5074 -0.4255  0.1642
    1OL    H15R 2777  -0.095   4.552   5.175 -0.8852 -0.2961  0.3160
    1OL    H15S 2778  -0.237   4.435   5.165 -0.6775 -0.3165  1.4648
    1OL    C116 2779  -0.060   4.370   5.062 -0.3507 -0.6050  0.1284
    1OL    H16R 2780   0.041   4.410   5.047 -0.6685  0.9630  1.7953
    1OL    H16S 2781  -0.104   4.401   4.967  1.1936 -0.5175 -0.6052
    1OL    C117 2782  -0.066   4.220   5.052  0.0100  0.3079  0.0335
    1OL    H17R 2783  -0.165   4.183   5.082  0.8296  0.3898  3.1179
    1OL    H17S 2784   0.002   4.187   5.130  2.0744  0.4035 -1.6262
    1OL    C118 2785  -0.029   4.179   4.909 -0.5838  0.0402  0.5316
    1OL    H18R 2786  -0.105   4.195   4.832  0.0457  2.0964  0.3021
    1OL    H18S 2787  -0.007   4.072   4.902  1.0043  0.4370 -1.5146
    1OL    H18T 2788   0.062   4.235   4.890 -0.9540 -0.0334 -1.7649
    1PA    C116 2789   2.364   5.045   5.095 -0.9902  0.3795 -0.0974
    1PA    H16R 2790   2.431   5.128   5.116 -0.7113  0.4524 -1.2462
    1PA    H16S 2791   2.293   5.084   5.022  0.1423  1.0209 -0.8865
    1PA    H16T 2792   2.425   4.968   5.047  2.3932  1.0352  2.7470
    1PA    C115 2793   2.294   5.003   5.224  0.6207 -0.2309  0.1455
    1PA    H15R 2794   2.207   4.945   5.192 -0.1000  1.4505 -1.0687
    1PA    H15S 2795   2.360   4.939   5.283  0.1767 -0.3070  0.5666
    1PA    C114 2796   2.254   5.121   5.304  0.6130 -0.3793  0.0854
    1PA    H14R 2797   2.340   5.179   5.337  1.7494  0.0535 -3.3187
    1PA    H14S 2798   2.184   5.173   5.238  3.2344  0.8798 -1.8778
    1PA    C113 2799   2.174   5.079   5.433 -0.5633  0.6627  0.4624
    1PA    H13R 2800   2.100   5.152   5.467 -0.8349  0.1392  1.0203
    1PA    H13S 2801   2.105   5.004   5.392 -0.1509  0.7758 -0.4574
    1PA    C112 2802   2.258   5.011   5.543 -0.3504  0.4877  0.4470
    1PA    H12R 2803   2.268   4.905   5.519  0.0331  0.1374  2.0302
    1PA    H12S 2804   2.357   5.056   5.537 -0.0643 -0.2390 -3.5175
    1PA    C111 2805   2.199   5.033   5.682 -0.1275  0.6361 -0.6072
    1PA    H11R 2806   2.197   5.139   5.712 -1.6500  0.0281  1.7341
    1PA    H11S 2807   2.102   4.984   5.688 -0.1876  0.7911 -0.2790
    1PA    C110 2808   2.296   4.973   5.788 -0.1051  0.1074 -0.0920
    1PA    H10R 2809   2.336   4.884   5.739  1.4264  0.7459 -0.0503
    1PA    H10S 2810   2.375   5.048   5.798  0.7880 -0.7652 -0.4615
    1PA     C19 2811   2.227   4.945   5.925  0.2816 -0.5055  0.0398
    1PA     H9R 2812   2.165   5.028   5.959 -0.0905 -0.2269 -1.2627
    1PA     H9S 2813   2.161   4.860   5.911 -1.4389  0.9200 -0.8130
    1PA     C18 2814   2.342   4.911   6.023  0.0203 -0.3650  0.5572
    1PA     H8R 2815   2.404   4.833   5.978 -0.3194  0.0603 -0.6809
    1PA     H8S 2816   2.415   4.992   6.032 -0.8166  0.4474  0.1174
    1PA     C17 2817   2.298   4.868   6.160 -0.3715 -0.2927 -0.1738
    1PA     H7R 2818   2.242   4.948   6.209 -0.0579  0.8448 -1.5927
    1PA     H7S 2819   2.231   4.783   6.150  0.6782 -1.2133  0.3560
    1PA     C16 2820   2.412   4.830   6.249  0.3199 -0.4835 -0.1892
    1PA     H6R 2821   2.377   4.781   6.340  0.7089  0.5826  0.5626
    1PA     H6S 2822   2.477   4.763   6.193  0.4747 -3.2174  2.9607
    1PA     C15 2823   2.490   4.955   6.301 -0.5978  0.5049 -0.6255
    1PA     H5R 2824   2.522   5.028   6.227 -2.5733  0.7838 -1.2830
    1PA     H5S 2825   2.424   5.017   6.362 -0.7894 -0.6552  0.3746
    1PA     C14 2826   2.609   4.911   6.385  0.6451 -0.1595 -0.4686
    1PA     H4R 2827   2.574   4.824   6.441 -0.9822  0.8756  0.2050
    1PA     H4S 2828   2.692   4.872   6.325  0.3490  0.4950 -1.3264
    1PA     C13 2829   2.662   5.014   6.486 -0.8695 -0.0186  0.6063
    1PA     H3R 2830   2.582   5.035   6.558 -2.4856  1.0043 -1.3785
    1PA     H3S 2831   2.750   4.983   6.543 -2.0055 -1.0442  1.8611
    1PA     C12 2832   2.710   5.144   6.412  0.4805  0.0968 -0.8837
    1PA     H2R 2833   2.783   5.120   6.334  2.4989 -0.8713  1.1737
    1PA     H2S 2834   2.626   5.189   6.359  1.0191 -1.6170 -3.3636
    1PC     C11 2835   2.776   5.231   6.511 -0.4372 -0.3546  0.3800
    1PC     O12 2836   2.898   5.237   6.514 -1.0191  0.2737  0.0997
    1PC     O11 2837   2.691   5.310   6.582 -0.2856  0.2194  0.1900
    1PC      C1 2838   2.745   5.412   6.666 -0.1933 -0.0115  0.0503
    1PC      HR 2839   2.822   5.372   6.732  0.8667 -1.7165 -2.1004
    1PC      HS 2840   2.796   5.492   6.613  0.0793  0.4302  0.9567
    1PC      C2 2841   2.633   5.468   6.758 -0.7386 -0.0170  0.1461
    1PC      HX 2842   2.681   5.542   6.823  0.9057  0.4252 -1.4685
    1PC      C3 2843   2.564   5.360   6.847  0.0289 -0.7152  0.1894
    1PC      HA 2844   2.499   5.413   6.917 -0.2749  0.4882 -0.9715
    1PC      HB 2845   2.504   5.292   6.787 -1.5648 -0.0426  0.9695
    1PC     O31 2846   2.657   5.282   6.929  0.4453  0.1657  0.2827
    1PC     P31 2847   2.718   5.330   7.071 -0.5115  0.0222 -0.2765
    1PC     O32 2848   2.601   5.329   7.171  0.8594 -0.2064  0.6119
    1PC     C31 2849   2.551   5.196   7.222  0.5060 -0.0606  0.0242
    1PC     H1A 2850   2.476   5.152   7.156 -0.7237  1.7342  0.1625
    1PC     H1B 2851   2.637   5.129   7.229  3.1944  3.0678 -0.5550
    1PC     C32 2852   2.507   5.216   7.371  0.0799 -0.7978 -0.4721
    1PC     H2A 2853   2.577   5.249   7.448 -1.7786 -1.0446  1.4210
    1PC     H2B 2854   2.435   5.298   7.366  0.4131 -0.5226 -0.8720
    1PC     N31 2855   2.437   5.098   7.431 -0.0775 -0.1098 -0.2062
    1PC     C33 2856   2.517   4.980   7.440 -0.4760 -0.3523  0.0860
    1PC     H3A 2857   2.459   4.894   7.473  0.2636 -1.5841 -1.6239
    1PC     H3B 2858   2.562   4.954   7.344  0.6704  4.4325 -0.9140
    1PC     H3C 2859   2.588   4.996   7.521 -1.2467  0.7321  0.5691
    1PC     C34 2860   2.404   5.142   7.565 -0.2523  0.9130 -0.0374
    1PC     H4A 2861   2.373   5.246   7.564  1.9711  1.7396  2.4983
    1PC     H4B 2862   2.326   5.079   7.607  0.0548 -0.3724 -1.3323
    1PC     H4C 2863   2.498   5.136   7.620  0.3567 -1.5121 -1.2093
    1PC     C35 2864   2.317   5.078   7.346  0.7407  0.8498  0.3122
    1PC     H5A 2865   2.340   5.071   7.239  0.4918  1.1151  0.2398
    1PC     H5B 2866   2.241   5.152   7.371 -2.2451 -2.3024  1.3198
    1PC     H5C 2867   2.275   4.982   7.377  1.6162  0.9104  1.7769
    1PC     O33 2868   2.816   5.229   7.121  0.2954  0.1992 -0.1990
    1PC     O34 2869   2.766   5.469   7.054 -0.0566  0.5509  0.3482
    1PC     O21 2870   2.523   5.524   6.685  0.1967 -0.9641 -0.1854
    1PC     C21 2871   2.536   5.658   6.655  0.3030 -0.6297 -0.8735
    1PC     O22 2872   2.634   5.723   6.691 -0.0658  0.4814  0.2175
    1OL     C12 2873   2.420   5.721   6.583  0.9602 -0.4933 -1.0785
    1OL     H2R 2874   2.410   5.820   6.630 -0.3911 -1.4980  0.8969
    1OL     H2S 2875   2.325   5.667   6.594 -1.9016  4.1614  0.0111
    1OL     C13 2876   2.448   5.759   6.437 -0.3963 -0.2822 -0.0927
    1OL     H3R 2877   2.518   5.843   6.438  0.1328 -0.7067 -0.6775
    1OL     H3S 2878   2.359   5.808   6.398  0.2249  0.8340 -0.1551
    1OL     C14 2879   2.491   5.653   6.336  0.1459  0.5213 -0.1356
    1OL     H4R 2880   2.417   5.573   6.330  0.5888  0.2350 -3.2692
    1OL     H4S 2881   2.580   5.617   6.387 -0.7879 -1.0299  0.4703
    1OL     C15 2882   2.520   5.704   6.197 -0.2707  0.2936 -0.5513
    1OL     H5R 2883   2.596   5.780   6.216  0.6588 -1.0492  1.3843
    1OL     H5S 2884   2.430   5.752   6.157 -1.5318 -1.9970 -0.6302
    1OL     C16 2885   2.580   5.605   6.093  1.3190 -0.0437  0.2045
    1OL     H6R 2886   2.631   5.664   6.016 -1.4484  1.2728 -0.7260
    1OL     H6S 2887   2.496   5.554   6.046  0.9148 -0.1399  1.0239
    1OL     C17 2888   2.675   5.495   6.155 -0.0218  0.2300 -0.0311
    1OL     H7R 2889   2.626   5.432   6.229 -0.2143  1.5921  1.0534
    1OL     H7S 2890   2.752   5.547   6.213  0.6227  0.1624 -0.8120
    1OL     C18 2891   2.746   5.406   6.042 -0.0085 -0.2342  0.1256
    1OL     H8R 2892   2.802   5.320   6.081  1.8495  0.4633 -0.8680
    1OL     H8S 2893   2.823   5.467   5.994  0.3505 -0.5361  0.3036
    1OL     C19 2894   2.648   5.367   5.938 -0.2323  0.2159  0.6223
    1OL     H9R 2895   2.587   5.451   5.907  0.4670  0.5997  0.2785
    1OL    C110 2896   2.616   5.241   5.898 -0.4448  0.3074  0.2217
    1OL    H10R 2897   2.539   5.226   5.822 -1.1384 -1.3062  1.2053
    1OL    C111 2898   2.708   5.122   5.922  0.6165  0.0730  0.8392
    1OL    H11R 2899   2.701   5.076   6.021 -1.9555 -2.6060 -0.4341
    1OL    H11S 2900   2.808   5.165   5.913  2.0135 -3.3044 -2.0489
    1OL    C112 2901   2.699   5.009   5.810 -0.2244  0.0096  0.9915
    1OL    H12R 2902   2.594   4.983   5.793  0.6672 -2.9738 -0.6734
    1OL    H12S 2903   2.749   4.917   5.840 -0.4895 -0.3322  0.3941
    1OL    C113 2904   2.757   5.052   5.671  0.1341 -0.0726  0.1331
    1OL    H13R 2905   2.862   5.072   5.694  0.3361  0.2683 -1.0236
    1OL    H13S 2906   2.720   5.146   5.628  1.6508  0.7293  0.5168
    1OL    C114 2907   2.732   4.946   5.559  0.0225  0.0081  0.2489
    1OL    H14R 2908   2.626   4.928   5.541  0.4610 -0.4679 -2.2248
    1OL    H14S 2909   2.786   4.857   5.592 -0.7852 -0.1951  1.0573
    1OL    C115 2910   2.793   4.976   5.424  0.2947 -0.5891  0.2377
    1OL    H15R 2911   2.794   4.889   5.357  0.5839  0.3127 -0.9775
    1OL    H15S 2912   2.897   5.001   5.446  0.0827  2.0136 -1.3047
    1OL    C116 2913   2.718   5.094   5.357  0.2402  0.2102  1.0131
    1OL    H16R 2914   2.752   5.187   5.403  3.0272  0.4109 -1.1828
    1OL    H16S 2915   2.612   5.093   5.381 -0.3900  2.9972 -1.0761
    1OL    C117 2916   2.755   5.095   5.204 -0.3600  0.9436 -0.4373
    1OL    H17R 2917   2.684   5.165   5.158 -1.8284  0.5770  1.1751
    1OL    H17S 2918   2.732   4.995   5.167 -1.2351  0.9858 -0.0219
    1OL    C118 2919   2.898   5.142   5.173  0.0756 -0.2730 -0.0514
    1OL    H18R 2920   2.915   5.150   5.065 -0.2844  0.3539 -0.0671
    1OL    H18S 2921   2.972   5.070   5.209  1.7810  0.4339 -1.9356
    1OL    H18T 2922   2.898   5.241   5.219  0.0660  0.9206 -2.4334
    1PA    C116 2923   1.314   1.832   5.874  0.1155  0.0073  0.0899
    1PA    H16R 2924   1.207   1.855   5.863  0.7913  3.0057 -1.4732
    1PA    H16S 2925   1.363   1.920   5.916  1.5737 -1.6253  1.9392
    1PA    H16T 2926   1.322   1.753   5.948 -2.9330  0.9190  1.5708
    1PA    C115 2927   1.355   1.802   5.730 -0.4684 -0.2739 -0.0515
    1PA    H15R 2928   1.335   1.696   5.711 -0.0180 -0.2818 -0.5035
    1PA    H15S 2929   1.289   1.864   5.669  0.0275  0.5256  0.2194
    1PA    C114 2930   1.508   1.826   5.699 -0.1526 -0.7776  0.2305
    1PA    H14R 2931   1.528   1.811   5.593  2.1470  0.3460  0.4444
    1PA    H14S 2932   1.528   1.933   5.711 -2.8350  0.0766 -1.8801
    1PA    C113 2933   1.599   1.746   5.791 -0.3506 -0.9151 -0.1941
    1PA    H13R 2934   1.702   1.779   5.774 -0.0590  0.4371  3.3089
    1PA    H13S 2935   1.580   1.781   5.893  0.3359 -1.8018  0.2502
    1PA    C112 2936   1.594   1.595   5.779 -0.0917  0.5822 -0.2124
    1PA    H12R 2937   1.497   1.556   5.809 -0.0516  0.9707  0.4412
    1PA    H12S 2938   1.612   1.569   5.674 -0.5038  1.8358 -0.6167
    1PA    C111 2939   1.705   1.529   5.850 -0.7906 -0.0525 -0.3209
    1PA    H11R 2940   1.718   1.421   5.840  1.5139  0.0706  0.5638
    1PA    H11S 2941   1.805   1.568   5.830 -0.1779 -0.4678  1.6257
    1PA    C110 2942   1.682   1.550   6.001 -0.3566  0.1857  0.2796
    1PA    H10R 2943   1.780   1.540   6.047  0.6738  0.8914 -1.6417
    1PA    H10S 2944   1.647   1.650   6.024 -0.0220  0.4565 -0.3754
    1PA     C19 2945   1.575   1.444   6.046  0.6780  0.5826 -0.0884
    1PA     H9R 2946   1.478   1.453   5.996  1.0469  2.2303 -0.5637
    1PA     H9S 2947   1.604   1.347   6.005  0.9051  0.8170 -0.4810
    1PA     C18 2948   1.566   1.449   6.196 -0.5267 -0.7575  0.3215
    1PA     H8R 2949   1.668   1.437   6.234 -1.4426 -3.0081  2.3399
    1PA     H8S 2950   1.540   1.547   6.236  1.1251 -0.8149  1.6190
    1PA     C17 2951   1.474   1.342   6.254  0.3394 -0.1138  0.2019
    1PA     H7R 2952   1.397   1.306   6.185 -0.1227  2.1848 -0.5858
    1PA     H7S 2953   1.536   1.253   6.269  1.9906  0.9677  0.0008
    1PA     C16 2954   1.399   1.393   6.380 -0.4881 -0.2751  0.3672
    1PA     H6R 2955   1.329   1.472   6.352 -1.3098 -0.5504  1.5892
    1PA     H6S 2956   1.335   1.312   6.414 -1.6509  0.8466  0.9523
    1PA     C15 2957   1.490   1.428   6.500 -0.4711 -0.4366 -0.7962
    1PA     H5R 2958   1.568   1.354   6.520  1.4247  1.6959  0.1343
    1PA     H5S 2959   1.545   1.518   6.473  0.7068 -0.5060  1.1832
    1PA     C14 2960   1.408   1.447   6.633 -0.0521 -0.5212 -0.3429
    1PA     H4R 2961   1.343   1.533   6.618  0.8517  0.9598  3.2021
    1PA     H4S 2962   1.349   1.357   6.649 -1.6376  0.2771 -1.4887
    1PA     C13 2963   1.492   1.481   6.760  0.6599  0.4132 -0.5754
    1PA     H3R 2964   1.429   1.504   6.846 -0.0813 -2.3924 -0.2889
    1PA     H3S 2965   1.555   1.395   6.782 -0.4269 -0.0529  0.8433
    1PA     C12 2966   1.587   1.596   6.742 -0.6268  0.4904 -0.0108
    1PA     H2R 2967   1.629   1.590   6.641  0.0484 -2.5668  0.3500
    1PA     H2S 2968   1.535   1.691   6.753 -1.4699 -0.2166  2.9268
    1PC     C11 2969   1.705   1.601   6.836 -0.6477 -0.1699 -0.2961
    1PC     O12 2970   1.696   1.639   6.951 -0.3690 -0.3529  0.5938
    1PC     O11 2971   1.825   1.578   6.782 -0.7581 -0.2991  0.2620
    1PC      C1 2972   1.947   1.575   6.868 -0.7712  0.4631  0.9892
    1PC      HR 2973   2.040   1.557   6.814 -0.7321  2.9213  0.1183
    1PC      HS 2974   1.961   1.665   6.928  1.6676  0.3986  0.6208
    1PC      C2 2975   1.946   1.441   6.944 -0.5261 -0.3241 -0.0754
    1PC      HX 2976   1.848   1.417   6.985 -0.6843 -0.2545 -0.4078
    1PC      C3 2977   2.041   1.453   7.065 -0.1269 -0.6695  0.4950
    1PC      HA 2978   2.102   1.364   7.078  2.5379  1.1620  1.1947
    1PC      HB 2979   2.107   1.536   7.041 -0.0961 -0.7421  0.3233
    1PC     O31 2980   1.974   1.483   7.199  0.5323 -0.1750  0.6419
    1PC     P31 2981   1.891   1.373   7.271  0.4913  0.0573  0.1892
    1PC     O32 2982   1.742   1.385   7.206  0.0090 -0.1238  0.0385
    1PC     C31 2983   1.648   1.480   7.267 -0.1654 -0.1831 -0.2284
    1PC     H1A 2984   1.706   1.568   7.298  0.1700  0.7066 -3.0705
    1PC     H1B 2985   1.586   1.518   7.186 -2.6227 -0.6063  1.3696
    1PC     C32 2986   1.562   1.417   7.377  0.2624 -0.2959 -0.0238
    1PC     H2A 2987   1.631   1.373   7.450  2.0631  0.8962 -0.9317
    1PC     H2B 2988   1.489   1.486   7.417  1.3701  1.4144 -0.8369
    1PC     N31 2989   1.471   1.299   7.348 -0.6738 -0.8013  0.5861
    1PC     C33 2990   1.551   1.178   7.308 -0.0373 -0.0334  0.3144
    1PC     H3A 2991   1.473   1.103   7.302 -3.5085  2.9701  2.8501
    1PC     H3B 2992   1.609   1.195   7.217  0.5605 -0.7885  0.5449
    1PC     H3C 2993   1.626   1.160   7.385  0.5504  0.9785  0.0056
    1PC     C34 2994   1.392   1.261   7.467 -0.4313  0.2479  0.0263
    1PC     H4A 2995   1.458   1.245   7.552 -2.9715  0.7521  2.2112
    1PC     H4B 2996   1.325   1.342   7.494  0.4631  0.1916  2.6414
    1PC     H4C 2997   1.329   1.174   7.448 -0.9474  0.2438  1.6291
    1PC     C35 2998   1.377   1.336   7.239  0.1985  0.2841  0.4294
    1PC     H5A 2999   1.343   1.439   7.254  0.9328  0.5727  0.1543
    1PC     H5B 3000   1.291   1.270   7.243 -0.9795  1.6842 -0.5664
    1PC     H5C 3001   1.431   1.323   7.145 -0.2276 -0.3513  0.2701
    1PC     O33 3002   1.953   1.245   7.239  0.2639  0.1886  0.5443
    1PC     O34 3003   1.887   1.412   7.410  0.0453  0.6343 -0.6398
    1PC     O21 3004   1.993   1.338   6.854 -0.4511 -0.4833 -0.2632
    1PC     C21 3005   1.924   1.223   6.838 -0.4468 -0.1209 -0.3788
    1PC     O22 3006   1.818   1.200   6.897 -0.4316  0.6707 -0.2566
    1OL     C12 3007   1.983   1.125   6.737 -0.2234  0.2665 -0.2913
    1OL     H2R 3008   2.049   1.057   6.792  0.0042  1.3395  0.8161
    1OL     H2S 3009   2.057   1.183   6.682 -0.3838  2.1191  1.3302
    1OL     C13 3010   1.885   1.078   6.636  1.2493  0.1190  0.4313
    1OL     H3R 3011   1.801   1.030   6.687 -0.2851 -0.0066 -2.0381
    1OL     H3S 3012   1.915   0.996   6.570  0.2895 -2.2919  2.8064
    1OL     C14 3013   1.836   1.189   6.537 -0.6665 -0.1459  0.3755
    1OL     H4R 3014   1.921   1.247   6.502  0.1127 -1.6571 -0.3521
    1OL     H4S 3015   1.783   1.268   6.590 -0.5460  0.2825 -0.1306
    1OL     C15 3016   1.748   1.139   6.424 -0.0382  0.3138  0.2788
    1OL     H5R 3017   1.716   1.228   6.370  1.9122  0.5243 -0.5957
    1OL     H5S 3018   1.656   1.091   6.459  0.6780 -1.1854  0.1924
    1OL     C16 3019   1.812   1.059   6.310 -0.0318 -0.0780  0.1528
    1OL     H6R 3020   1.835   0.960   6.349  0.1453 -0.5870 -1.1939
    1OL     H6S 3021   1.909   1.101   6.279  0.3964 -2.4429 -2.0510
    1OL     C17 3022   1.718   1.040   6.190  0.5700 -0.6182  0.7699
    1OL     H7R 3023   1.705   1.136   6.140  2.8111  0.1133  1.4302
    1OL     H7S 3024   1.620   0.998   6.212 -0.9328  2.4655  0.4657
    1OL     C18 3025   1.781   0.950   6.084 -0.0017  0.0509  0.7167
    1OL     H8R 3026   1.803   0.861   6.144  1.7550  0.5931  0.9319
    1OL     H8S 3027   1.875   0.991   6.046  0.6575 -0.4310  1.7798
    1OL     C19 3028   1.690   0.904   5.965 -0.5648  0.5264 -0.6479
    1OL     H9R 3029   1.648   0.804   5.973 -2.8552  1.4397 -0.4404
    1OL    C110 3030   1.659   0.979   5.862 -0.2640  0.3783  0.4589
    1OL    H10R 3031   1.590   0.932   5.792  0.3717 -1.0256  0.7559
    1OL    C111 3032   1.697   1.126   5.854  0.4998  0.7902 -0.2718
    1OL    H11R 3033   1.768   1.150   5.933 -0.3825  2.5332  0.0373
    1OL    H11S 3034   1.607   1.183   5.879  0.5535  0.8410 -0.1972
    1OL    C112 3035   1.748   1.168   5.713  0.8007  0.1038 -0.7783
    1OL    H12R 3036   1.835   1.108   5.683 -0.2564 -0.9713 -1.7844
    1OL    H12S 3037   1.768   1.275   5.711 -1.4621  0.6105  0.5683
    1OL    C113 3038   1.635   1.160   5.610 -0.2714 -0.0096  0.2358
    1OL    H13R 3039   1.561   1.236   5.636  1.0194  1.2642  0.3441
    1OL    H13S 3040   1.581   1.065   5.601  0.4847 -0.3463 -0.9244
    1OL    C114 3041   1.685   1.206   5.478  0.0314  0.1559  1.0819
    1OL    H14R 3042   1.710   1.313   5.479  0.3879  0.1671 -1.5968
    1OL    H14S 3043   1.599   1.214   5.411  0.4483 -0.0506  0.5202
    1OL    C115 3044   1.793   1.111   5.415 -0.1244 -0.0089 -0.3663
    1OL    H15R 3045   1.884   1.118   5.474  0.4897 -0.4038 -1.2427
    1OL    H15S 3046   1.806   1.152   5.314  0.9363 -1.7261 -0.9714
    1OL    C116 3047   1.776   0.960   5.407 -0.2368 -0.1462  0.4733
    1OL    H16R 3048   1.797   0.908   5.500  0.6651 -0.9846 -0.1737
    1OL    H16S 3049   1.861   0.937   5.341 -0.5030 -1.4329  0.5571
    1OL    C117 3050   1.642   0.919   5.333  0.2473 -0.0485  0.3044
    1OL    H17R 3051   1.556   0.952   5.391  0.5954  0.6462  0.4303
    1OL    H17S 3052   1.647   0.811   5.313 -1.1313 -0.0092 -0.3056
    1OL    C118 3053   1.616   0.977   5.190 -0.0969  0.7060  0.3637
    1OL    H18R 3054   1.532   0.929   5.140  0.2433 -0.5293  0.9477
    1OL    H18S 3055   1.705   0.970   5.127 -1.1049 -0.1506 -1.0182
    1OL    H18T 3056   1.596   1.084   5.200 -0.6546  0.7622 -1.1352
    1PA    C116 3057   3.406   1.624   5.587 -0.1452 -0.3633 -0.5062
    1PA    H16R 3058   3.369   1.618   5.484  2.3161  0.2900 -1.4881
    1PA    H16S 3059   3.335   1.572   5.652  0.2105  2.0020  1.9569
    1PA    H16T 3060   3.504   1.577   5.599  0.3220  0.6589 -0.1686
    1PA    C115 3061   3.417   1.771   5.637  0.1457  0.6138  0.6072
    1PA    H15R 3062   3.495   1.827   5.586  1.1456  0.6830  2.1252
    1PA    H15S 3063   3.325   1.816   5.599 -0.6660  0.0700  1.8494
    1PA    C114 3064   3.441   1.796   5.788 -0.1152 -0.4945 -0.1029
    1PA    H14R 3065   3.446   1.904   5.795  3.1333 -0.5729  0.1435
    1PA    H14S 3066   3.357   1.765   5.851  0.4814 -0.0873  0.9171
    1PA    C113 3067   3.571   1.737   5.835 -0.4984  0.3755  0.1250
    1PA    H13R 3068   3.572   1.631   5.810  3.9925 -0.1588  1.6416
    1PA    H13S 3069   3.655   1.779   5.779  1.8083  0.9177  3.6511
    1PA    C112 3070   3.591   1.770   5.988  0.0779  0.1229 -0.4744
    1PA    H12R 3071   3.613   1.876   6.003 -1.0231  0.4927 -1.3011
    1PA    H12S 3072   3.515   1.737   6.058 -1.1672  0.3519 -1.6817
    1PA    C111 3073   3.717   1.695   6.027 -0.4971 -0.3049  0.1704
    1PA    H11R 3074   3.706   1.588   6.008 -2.9887 -0.5172  2.2036
    1PA    H11S 3075   3.802   1.744   5.980 -0.8497  0.6656  0.5136
    1PA    C110 3076   3.740   1.695   6.183  0.0574 -0.2314  0.2468
    1PA    H10R 3077   3.742   1.797   6.222  1.2359  0.0681 -0.5658
    1PA    H10S 3078   3.652   1.652   6.232 -2.9452  2.2643 -2.4792
    1PA     C19 3079   3.867   1.617   6.226 -0.1170 -0.2051 -0.1129
    1PA     H9R 3080   3.842   1.512   6.214  1.4722 -0.3900 -2.4690
    1PA     H9S 3081   3.940   1.640   6.148  1.7478  0.9114  1.8633
    1PA     C18 3082   3.903   1.649   6.370 -0.5378  0.6647  0.0846
    1PA     H8R 3083   3.900   1.754   6.400 -1.1244  0.8604 -0.6008
    1PA     H8S 3084   3.830   1.589   6.426 -1.0532  0.1058 -1.1367
    1PA     C17 3085   4.038   1.585   6.399 -0.8282 -0.4827 -0.2104
    1PA     H7R 3086   4.107   1.624   6.324 -1.6920  1.4487 -0.0747
    1PA     H7S 3087   4.071   1.613   6.499  0.9904 -1.6230 -0.4459
    1PA     C16 3088   4.044   1.435   6.388  0.1890  0.2487  0.3368
    1PA     H6R 3089   3.981   1.408   6.303  1.2929 -0.9685 -0.1320
    1PA     H6S 3090   4.146   1.396   6.381 -0.2101 -0.6726 -0.7637
    1PA     C15 3091   3.992   1.363   6.515  0.7597  0.3300 -0.0781
    1PA     H5R 3092   4.047   1.395   6.604 -0.5605 -2.8542  2.0559
    1PA     H5S 3093   3.885   1.385   6.525  0.8975  2.4902 -2.2948
    1PA     C14 3094   4.018   1.215   6.507 -0.1996  0.0684  0.1788
    1PA     H4R 3095   3.964   1.165   6.426  2.8283 -3.7782  0.2530
    1PA     H4S 3096   4.124   1.199   6.491 -0.0749 -0.0581  1.1130
    1PA     C13 3097   3.977   1.139   6.637  0.4680  0.4889  0.2101
    1PA     H3R 3098   4.010   1.035   6.636  1.2827  0.7221  1.3843
    1PA     H3S 3099   4.031   1.184   6.721  2.1945 -1.5800  0.2786
    1PA     C12 3100   3.827   1.143   6.656  0.2116 -0.3463 -0.3867
    1PA     H2R 3101   3.810   1.248   6.681  1.6720 -0.3688  0.8749
    1PA     H2S 3102   3.778   1.108   6.565  1.5672 -1.6644 -0.6655
    1PC     C11 3103   3.778   1.063   6.770 -0.2912 -0.0572 -0.7009
    1PC     O12 3104   3.838   1.046   6.879  0.5527 -0.4588 -0.1150
    1PC     O11 3105   3.660   1.002   6.744  0.4290 -0.2236  0.3248
    1PC      C1 3106   3.599   0.901   6.832 -0.7838  0.0734  0.2868
    1PC      HR 3107   3.542   0.824   6.779  0.7194 -0.2495 -0.9589
    1PC      HS 3108   3.679   0.851   6.888 -1.3319  0.9924  1.9421
    1PC      C2 3109   3.521   0.978   6.936  0.1578  0.6144 -0.4212
    1PC      HX 3110   3.588   1.037   6.999  0.9578  0.2659 -0.9260
    1PC      C3 3111   3.445   0.878   7.023  0.1996 -0.4098 -0.3639
    1PC      HA 3112   3.364   0.839   6.961 -1.1185  0.6550  0.6344
    1PC      HB 3113   3.502   0.796   7.068 -2.2115 -1.8952  0.1503
    1PC     O31 3114   3.380   0.965   7.121 -0.5989 -0.5286  0.1164
    1PC     P31 3115   3.456   1.007   7.254 -0.0429 -0.2003  0.1187
    1PC     O32 3116   3.407   0.887   7.349 -0.6113 -0.1899  0.7688
    1PC     C31 3117   3.484   0.774   7.372 -0.0108 -0.1766 -0.2012
    1PC     H1A 3118   3.402   0.704   7.393  0.9718 -1.3017  0.0128
    1PC     H1B 3119   3.527   0.747   7.275  0.1278 -0.4928 -0.0552
    1PC     C32 3120   3.592   0.810   7.481  0.0293  0.6027 -0.3820
    1PC     H2A 3121   3.644   0.716   7.501  0.1523  0.0284 -3.0145
    1PC     H2B 3122   3.669   0.879   7.447 -0.9926  0.7823 -2.4932
    1PC     N31 3123   3.542   0.861   7.612  0.3173  0.5168 -0.3656
    1PC     C33 3124   3.395   0.821   7.644 -0.2614  0.2828 -0.4375
    1PC     H3A 3125   3.390   0.712   7.640  4.6845 -0.1116 -2.6741
    1PC     H3B 3126   3.370   0.854   7.745 -0.3398  1.8558 -0.9551
    1PC     H3C 3127   3.327   0.863   7.569  0.9119 -0.0123 -1.7145
    1PC     C34 3128   3.634   0.817   7.714 -0.3135 -0.1581 -0.5842
    1PC     H4A 3129   3.594   0.855   7.809  2.3228  2.0051 -0.2043
    1PC     H4B 3130   3.638   0.708   7.719  0.6927 -0.1497 -1.0788
    1PC     H4C 3131   3.737   0.848   7.698  1.0370 -2.5643  2.3778
    1PC     C35 3132   3.529   1.010   7.610 -0.5454 -0.0786 -0.3084
    1PC     H5A 3133   3.487   1.041   7.705  1.2644 -0.8455  0.8066
    1PC     H5B 3134   3.475   1.051   7.525  0.2545  1.1808 -0.2399
    1PC     H5C 3135   3.629   1.053   7.622 -1.6137  2.4490  0.0523
    1PC     O33 3136   3.599   1.011   7.233 -0.2355 -0.1655  0.3318
    1PC     O34 3137   3.396   1.132   7.304 -0.2214 -0.2246  0.1434
    1PC     O21 3138   3.414   1.051   6.873 -0.2157  0.3007  0.0275
    1PC     C21 3139   3.422   1.184   6.852 -0.2325 -0.4379 -0.4228
    1PC     O22 3140   3.512   1.251   6.900 -0.0732  0.0526 -0.4476
    1OL     C12 3141   3.313   1.228   6.761 -0.0261 -0.1222 -0.1022
    1OL     H2R 3142   3.297   1.336   6.769 -1.2317 -0.0171 -2.8206
    1OL     H2S 3143   3.222   1.177   6.794  0.4756 -0.9151  0.0775
    1OL     C13 3144   3.326   1.202   6.607  0.3797  0.6727 -0.2309
    1OL     H3R 3145   3.243   1.247   6.553 -1.0994 -2.2264 -0.5741
    1OL     H3S 3146   3.322   1.095   6.583  2.8731  0.3644  0.4465
    1OL     C14 3147   3.470   1.239   6.546  0.7565  0.5191  1.0319
    1OL     H4R 3148   3.549   1.189   6.603  0.5883 -1.7185 -0.5580
    1OL     H4S 3149   3.480   1.348   6.548  0.9502  0.5345  4.1891
    1OL     C15 3150   3.496   1.185   6.404  0.3264 -0.0452 -0.0780
    1OL     H5R 3151   3.399   1.198   6.355 -0.2353  0.7394  1.1815
    1OL     H5S 3152   3.524   1.079   6.409  0.5817  0.0310  0.1409
    1OL     C16 3153   3.605   1.260   6.326 -0.2480  0.0811  0.3364
    1OL     H6R 3154   3.698   1.248   6.381 -0.6738 -0.4205  0.9549
    1OL     H6S 3155   3.586   1.367   6.315 -2.0949  0.0087  2.2239
    1OL     C17 3156   3.640   1.188   6.193 -0.2097  0.0683 -0.3320
    1OL     H7R 3157   3.549   1.185   6.133  0.6491 -0.0744 -1.6576
    1OL     H7S 3158   3.670   1.084   6.207 -0.2763  0.2734  1.6667
    1OL     C18 3159   3.747   1.262   6.111  0.9493  0.0660 -0.6866
    1OL     H8R 3160   3.838   1.270   6.171 -0.3548  0.9254  1.2455
    1OL     H8S 3161   3.706   1.358   6.078 -0.9784 -0.1132  1.0273
    1OL     C19 3162   3.786   1.173   5.996 -0.3468  0.2036 -0.5370
    1OL     H9R 3163   3.798   1.069   6.027 -3.2096  0.4086  1.7352
    1OL    C110 3164   3.803   1.206   5.867 -0.0450 -0.3337 -0.5486
    1OL    H10R 3165   3.814   1.127   5.793 -0.5445  0.7333 -1.8011
    1OL    C111 3166   3.771   1.342   5.803  0.3570  0.2362  0.1460
    1OL    H11R 3167   3.726   1.408   5.877 -2.0366 -2.0866  0.9394
    1OL    H11S 3168   3.697   1.338   5.723 -0.1824 -1.6597  0.6700
    1OL    C112 3169   3.902   1.414   5.758 -0.0966 -0.1794 -0.6293
    1OL    H12R 3170   3.868   1.516   5.740 -0.4450 -0.3122 -0.7245
    1OL    H12S 3171   3.947   1.366   5.671 -0.6361  1.8416 -2.0991
    1OL    C113 3172   3.997   1.435   5.887 -0.1711  0.3874  0.7457
    1OL    H13R 3173   4.023   1.334   5.917  1.1918 -0.0585 -1.6836
    1OL    H13S 3174   3.943   1.484   5.969 -0.0727 -0.9396  1.6327
    1OL    C114 3175   4.129   1.506   5.860  0.5022 -0.0558 -0.3523
    1OL    H14R 3176   4.185   1.501   5.954  1.5361 -0.7269 -0.9827
    1OL    H14S 3177   4.106   1.611   5.839 -2.1545 -0.4112  0.3928
    1OL    C115 3178   4.214   1.434   5.752  0.5614 -0.2851  0.0763
    1OL    H15R 3179   4.293   1.501   5.721  1.0547  0.0356  1.9053
    1OL    H15S 3180   4.151   1.407   5.667 -0.3709  1.7146  0.0798
    1OL    C116 3181   4.281   1.313   5.819 -0.2194 -0.7555 -0.3330
    1OL    H16R 3182   4.214   1.246   5.873  0.5740  0.5126  2.4169
    1OL    H16S 3183   4.350   1.350   5.896  1.7733  0.0455 -2.4004
    1OL    C117 3184   4.370   1.221   5.732  0.4606 -0.9206  0.5145
    1OL    H17R 3185   4.456   1.282   5.704 -0.9466  1.1507  0.5043
    1OL    H17S 3186   4.316   1.195   5.641  1.7307  0.8506 -0.8330
    1OL    C118 3187   4.420   1.104   5.822  0.5567 -0.6940 -0.1066
    1OL    H18R 3188   4.458   1.134   5.920 -1.2188  1.0834  0.1140
    1OL    H18S 3189   4.489   1.044   5.762  1.0720  1.1580 -1.4470
    1OL    H18T 3190   4.332   1.043   5.843  0.8565 -0.6938  1.1911
    1PA    C116 3191   1.153   0.463   5.070 -0.9961  0.2411 -0.6304
    1PA    H16R 3192   1.147   0.372   5.011  1.3582 -1.5534  1.6738
    1PA    H16S 3193   1.121   0.550   5.012 -0.3073  0.7879 -0.2202
    1PA    H16T 3194   1.088   0.449   5.157  1.6462  0.4147  1.5012
    1PA    C115 3195   1.302   0.484   5.114  0.3344  0.7146  0.3312
    1PA    H15R 3196   1.330   0.382   5.141 -2.7184 -0.1092  0.6839
    1PA    H15S 3197   1.371   0.507   5.032 -0.4307  1.5464 -0.0877
    1PA    C114 3198   1.326   0.594   5.216  0.0837  0.1016  0.0643
    1PA    H14R 3199   1.422   0.638   5.189 -0.8002  0.8934 -1.9676
    1PA    H14S 3200   1.247   0.667   5.200 -0.0897  0.0615  0.7048
    1PA    C113 3201   1.309   0.546   5.361 -0.3533 -0.3746  0.2173
    1PA    H13R 3202   1.214   0.492   5.370 -0.3682 -0.3046  0.4958
    1PA    H13S 3203   1.390   0.483   5.399 -1.0961 -0.5835  1.5166
    1PA    C112 3204   1.302   0.666   5.461 -0.2653  0.1412 -0.4404
    1PA    H12R 3205   1.398   0.717   5.470 -1.9426  3.3162  1.2641
    1PA    H12S 3206   1.231   0.745   5.435 -1.2703 -0.7445 -0.4612
    1PA    C111 3207   1.271   0.618   5.602 -0.1110 -0.2016  0.1833
    1PA    H11R 3208   1.167   0.585   5.598  0.3389 -1.5133 -2.1735
    1PA    H11S 3209   1.327   0.529   5.632 -1.0222 -0.0731  2.5461
    1PA    C110 3210   1.298   0.739   5.705 -0.4625  0.0529  0.6120
    1PA    H10R 3211   1.402   0.772   5.702 -0.3098 -0.4703 -0.0428
    1PA    H10S 3212   1.243   0.825   5.666 -0.4668 -0.9837 -1.7983
    1PA     C19 3213   1.255   0.696   5.848 -0.2694 -0.0935  0.3010
    1PA     H9R 3214   1.254   0.790   5.903 -0.3435  1.1387 -1.6941
    1PA     H9S 3215   1.159   0.644   5.847  0.1080 -0.8324  0.7716
    1PA     C18 3216   1.358   0.604   5.924  0.3347 -0.5948  0.1935
    1PA     H8R 3217   1.387   0.523   5.857  0.5417 -1.7453  1.6258
    1PA     H8S 3218   1.451   0.661   5.933  1.2887 -1.8312 -1.2444
    1PA     C17 3219   1.306   0.535   6.055  0.0583 -0.4123  0.0827
    1PA     H7R 3220   1.263   0.615   6.117  1.4432  1.1963 -0.9353
    1PA     H7S 3221   1.229   0.464   6.026 -1.5809  1.6435 -0.8591
    1PA     C16 3222   1.421   0.464   6.129 -0.0952 -0.7056 -0.7208
    1PA     H6R 3223   1.475   0.391   6.069  0.8621 -0.9008  0.3338
    1PA     H6S 3224   1.487   0.540   6.173 -0.2950 -1.8687  1.7828
    1PA     C15 3225   1.365   0.385   6.244  0.4663  0.2000 -0.4577
    1PA     H5R 3226   1.294   0.449   6.296 -0.3741 -0.3803 -0.8637
    1PA     H5S 3227   1.312   0.298   6.205  1.5864 -1.3617  1.3029
    1PA     C14 3228   1.477   0.332   6.344  0.4846  0.2000 -0.0939
    1PA     H4R 3229   1.531   0.415   6.391 -0.3817 -0.4450  2.1972
    1PA     H4S 3230   1.421   0.292   6.429  0.6682  1.1727  0.5138
    1PA     C13 3231   1.575   0.233   6.277  0.0784 -0.5988  0.6241
    1PA     H3R 3232   1.518   0.148   6.239  0.4172 -0.8703  0.7161
    1PA     H3S 3233   1.611   0.283   6.188 -1.4393 -0.2178  0.1865
    1PA     C12 3234   1.702   0.186   6.348  0.6688  0.0945  0.0289
    1PA     H2R 3235   1.773   0.136   6.281  0.4661 -0.7994  0.4676
    1PA     H2S 3236   1.757   0.271   6.390  0.5533  0.5293 -0.6770
    1PC     C11 3237   1.659   0.087   6.456 -0.2216 -0.6244 -0.6029
    1PC     O12 3238   1.592  -0.013   6.441 -0.1853  0.1051  0.2736
    1PC     O11 3239   1.717   0.131   6.572 -0.1741 -0.0237 -0.6946
    1PC      C1 3240   1.682   0.047   6.691  0.0872  0.2958 -0.3717
    1PC      HR 3241   1.706   0.099   6.784  3.4204  0.5131 -1.2202
    1PC      HS 3242   1.573   0.042   6.678 -0.1135  2.4690  0.1531
    1PC      C2 3243   1.753  -0.091   6.695 -0.2446  0.2877 -0.3389
    1PC      HX 3244   1.733  -0.143   6.601 -1.1539 -0.5641  0.3080
    1PC      C3 3245   1.707  -0.172   6.815 -0.3677 -0.2409 -0.4467
    1PC      HA 3246   1.606  -0.208   6.792 -0.9315 -0.6478  2.3380
    1PC      HB 3247   1.773  -0.259   6.819  1.5984  1.2034  0.4836
    1PC     O31 3248   1.703  -0.100   6.938 -0.6197 -0.7589 -0.3958
    1PC     P31 3249   1.833  -0.076   7.030  0.1190  0.6761 -0.2056
    1PC     O32 3250   1.889   0.063   6.992 -0.1372 -0.4842 -0.4192
    1PC     C31 3251   1.831   0.179   7.050  0.0831 -0.3247  0.4537
    1PC     H1A 3252   1.797   0.249   6.973 -0.8441 -1.2022  0.0462
    1PC     H1B 3253   1.748   0.153   7.116 -0.7384  2.1649  0.4939
    1PC     C32 3254   1.934   0.245   7.134  0.3970  0.0647 -0.1725
    1PC     H2A 3255   1.884   0.301   7.213  2.3880  0.0101  1.1925
    1PC     H2B 3256   1.986   0.165   7.185  0.4580 -0.7903 -1.5246
    1PC     N31 3257   2.030   0.342   7.069 -0.1074  0.4881 -0.3436
    1PC     C33 3258   2.120   0.403   7.171  0.0957 -0.5333 -0.0817
    1PC     H3A 3259   2.197   0.332   7.198 -1.1657 -1.0949  2.2792
    1PC     H3B 3260   2.169   0.490   7.126  0.5643 -1.4751 -1.4735
    1PC     H3C 3261   2.057   0.428   7.257  0.0314  4.0317 -1.2000
    1PC     C34 3262   2.123   0.274   6.981  0.7455  0.5247  0.3153
    1PC     H4A 3263   2.069   0.207   6.913  0.7541  1.5025 -0.6820
    1PC     H4B 3264   2.189   0.342   6.928  4.0038 -0.2260  3.0872
    1PC     H4C 3265   2.185   0.213   7.047  3.3222  0.2110 -2.1782
    1PC     C35 3266   1.959   0.456   7.002 -0.3061  0.0322  0.2898
    1PC     H5A 3267   1.917   0.521   7.079  0.5431  0.7903  0.1288
    1PC     H5B 3268   1.871   0.417   6.950 -1.0631  0.7510  0.9985
    1PC     H5C 3269   2.031   0.508   6.939  0.1494 -0.2911  0.5365
    1PC     O33 3270   1.795  -0.075   7.171 -0.7339 -0.2056  1.1022
    1PC     O34 3271   1.929  -0.183   6.992  0.1789 -0.2262 -0.4037
    1PC     O21 3272   1.897  -0.064   6.704 -0.0346  0.8694 -0.1616
    1PC     C21 3273   1.966  -0.036   6.594  0.6698 -0.4377  0.4968
    1PC     O22 3274   1.934  -0.058   6.479  0.1764  0.5431 -0.1542
    1OL     C12 3275   2.095   0.045   6.622  1.4170 -0.5242 -0.1720
    1OL     H2R 3276   2.179  -0.025   6.619  1.0481 -0.9892  0.0904
    1OL     H2S 3277   2.081   0.077   6.725 -1.1910  1.4127 -1.0140
    1OL     C13 3278   2.107   0.159   6.513 -0.2564 -0.4958 -0.1551
    1OL     H3R 3279   2.108   0.258   6.559 -1.8620  0.7170 -2.4919
    1OL     H3S 3280   2.025   0.166   6.441  1.5628  3.8654 -2.1585
    1OL     C14 3281   2.227   0.137   6.423  0.3611  0.2224 -0.0722
    1OL     H4R 3282   2.321   0.145   6.478  0.3605 -0.9973  0.1239
    1OL     H4S 3283   2.223   0.224   6.357  0.2964  0.1807 -0.1231
    1OL     C15 3284   2.228  -0.001   6.349 -0.2181  0.7401  1.1241
    1OL     H5R 3285   2.127  -0.041   6.345 -0.9996  2.6632  0.1108
    1OL     H5S 3286   2.302  -0.067   6.396  0.3829  0.5840 -0.0059
    1OL     C16 3287   2.277   0.004   6.199 -0.3465  0.2659  0.3510
    1OL     H6R 3288   2.304  -0.093   6.156  0.9250  0.4080  0.8104
    1OL     H6S 3289   2.370   0.059   6.204  0.7707 -1.5074  0.0932
    1OL     C17 3290   2.180   0.073   6.104 -0.2279  0.0448 -0.3897
    1OL     H7R 3291   2.167   0.180   6.123 -2.8266 -0.4890  1.4425
    1OL     H7S 3292   2.080   0.035   6.128 -0.7313  1.7122  0.3201
    1OL     C18 3293   2.220   0.058   5.960  0.3659 -0.3144  0.0098
    1OL     H8R 3294   2.243  -0.048   5.957  0.3952 -0.2833 -1.1654
    1OL     H8S 3295   2.310   0.119   5.948 -1.0810  1.9848  0.1634
    1OL     C19 3296   2.118   0.092   5.850 -0.3316 -0.2256  0.5250
    1OL     H9R 3297   2.017   0.053   5.861 -0.9716  0.4690 -1.9942
    1OL    C110 3298   2.139   0.175   5.748  0.5027 -0.1599 -0.5215
    1OL    H10R 3299   2.059   0.194   5.677  0.3602  2.2847  0.1812
    1OL    C111 3300   2.258   0.264   5.731  0.8529 -0.1397  0.8034
    1OL    H11R 3301   2.296   0.293   5.829  1.7265  0.8821  0.1875
    1OL    H11S 3302   2.207   0.350   5.687  0.7720  0.2407  1.6289
    1OL    C112 3303   2.362   0.194   5.641  0.0224 -0.7895  0.1241
    1OL    H12R 3304   2.323   0.185   5.539  2.4471  1.5521 -1.1396
    1OL    H12S 3305   2.376   0.097   5.689 -2.7233 -0.8686  0.9759
    1OL    C113 3306   2.498   0.267   5.626  0.5545 -0.1574 -0.2878
    1OL    H13R 3307   2.528   0.304   5.724  0.9715 -0.8722 -0.1435
    1OL    H13S 3308   2.462   0.357   5.575  0.1586 -0.2025 -0.0908
    1OL    C114 3309   2.604   0.188   5.555 -0.2663 -0.2089 -0.4584
    1OL    H14R 3310   2.575   0.205   5.452  0.3662  1.7876 -0.3427
    1OL    H14S 3311   2.593   0.081   5.577 -0.2333  0.0233  0.7613
    1OL    C115 3312   2.754   0.236   5.579  0.7507 -0.4568  0.3712
    1OL    H15R 3313   2.764   0.249   5.687  0.8440  1.9307  0.1229
    1OL    H15S 3314   2.760   0.334   5.531  0.5749 -0.7927 -0.3495
    1OL    C116 3315   2.857   0.135   5.530 -0.5760  0.2153  0.4858
    1OL    H16R 3316   2.834   0.128   5.423  0.0838 -1.8795  0.4305
    1OL    H16S 3317   2.836   0.037   5.572 -0.5950  0.6146  1.4247
    1OL    C117 3318   3.005   0.172   5.536  0.0396  0.0149 -0.1799
    1OL    H17R 3319   3.035   0.226   5.626  0.8152 -1.2161  0.3199
    1OL    H17S 3320   3.024   0.239   5.453  0.2155 -1.4712 -1.3723
    1OL    C118 3321   3.096   0.047   5.536  0.1481 -0.4462  0.1697
    1OL    H18R 3322   3.055  -0.025   5.465 -2.1193 -0.6888  1.6273
    1OL    H18S 3323   3.088   0.003   5.636 -0.0324 -0.1701  0.2811
    1OL    H18T 3324   3.201   0.063   5.512  0.1132 -0.4875 -0.0081
    1PA    C116 3325   2.572   1.469   4.693 -0.4320 -0.2299  0.5705
    1PA    H16R 3326   2.469   1.495   4.670 -0.4499  0.7349  1.6241
    1PA    H16S 3327   2.617   1.413   4.611  1.5143 -0.4537  1.7098
    1PA    H16T 3328   2.627   1.562   4.704  1.9853 -1.0326 -2.9595
    1PA    C115 3329   2.580   1.386   4.823  0.2367  0.0590 -1.0138
    1PA    H15R 3330   2.503   1.408   4.897  0.7071 -1.5090 -0.0087
    1PA    H15S 3331   2.565   1.280   4.803  0.5974 -0.2135  0.0791
    1PA    C114 3332   2.711   1.424   4.895 -0.1134  0.2681 -0.2973
    1PA    H14R 3333   2.793   1.423   4.823  3.1819  0.8959  3.1051
    1PA    H14S 3334   2.708   1.529   4.923 -1.3872  0.2382 -0.2486
    1PA    C113 3335   2.751   1.331   5.013 -0.8040 -0.1508 -0.0768
    1PA    H13R 3336   2.780   1.231   4.981 -0.8034 -0.1247 -0.1600
    1PA    H13S 3337   2.833   1.377   5.069 -1.6173  0.0419  0.9866
    1PA    C112 3338   2.640   1.324   5.115 -1.1653  0.1279  1.2463
    1PA    H12R 3339   2.582   1.416   5.101 -0.7168  0.2111 -0.2422
    1PA    H12S 3340   2.563   1.251   5.093  0.4950 -0.8583 -1.8407
    1PA    C111 3341   2.678   1.315   5.258  0.0274 -0.3090  0.0792
    1PA    H11R 3342   2.736   1.404   5.283  0.2241  0.5853 -3.1090
    1PA    H11S 3343   2.590   1.322   5.322  1.2112 -0.6396  1.8179
    1PA    C110 3344   2.750   1.186   5.291 -0.1542 -0.4286 -0.0408
    1PA    H10R 3345   2.681   1.111   5.251  1.4226 -0.1058 -3.9044
    1PA    H10S 3346   2.843   1.165   5.237 -0.7709 -0.3486 -1.1762
    1PA     C19 3347   2.769   1.174   5.442 -0.3151  0.3269  0.6314
    1PA     H9R 3348   2.822   1.083   5.473 -0.6096 -0.4098 -0.9171
    1PA     H9S 3349   2.827   1.260   5.475  0.0221  1.8949 -3.4459
    1PA     C18 3350   2.637   1.166   5.521  0.2739  1.4388  0.3683
    1PA     H8R 3351   2.573   1.254   5.519 -0.8457  0.6828  1.4466
    1PA     H8S 3352   2.575   1.082   5.486 -1.5686  2.1310  1.8287
    1PA     C17 3353   2.675   1.150   5.672 -0.3154 -0.0755  1.2155
    1PA     H7R 3354   2.725   1.054   5.685  0.4596  0.1771  0.2319
    1PA     H7S 3355   2.745   1.231   5.695 -0.1048  0.5723 -1.3978
    1PA     C16 3356   2.567   1.152   5.782  0.0019  0.4197 -0.0397
    1PA     H6R 3357   2.521   1.251   5.772  0.7877  0.7934 -0.0288
    1PA     H6S 3358   2.498   1.071   5.758 -1.8875  1.7018  0.8673
    1PA     C15 3359   2.618   1.150   5.928 -0.2871 -0.5395 -0.4239
    1PA     H5R 3360   2.535   1.148   5.999 -0.4542 -0.5486 -0.6205
    1PA     H5S 3361   2.681   1.061   5.935  0.6152  0.0095 -1.3989
    1PA     C14 3362   2.708   1.273   5.977 -0.3452  0.4227  0.4943
    1PA     H4R 3363   2.800   1.289   5.921  0.3923 -1.7073  0.9706
    1PA     H4S 3364   2.645   1.361   5.980 -3.0295 -1.3807  0.4791
    1PA     C13 3365   2.746   1.247   6.123 -0.2683  0.1384  0.2917
    1PA     H3R 3366   2.795   1.151   6.141 -0.6924  0.1027  1.3402
    1PA     H3S 3367   2.817   1.320   6.161  0.8888 -0.7324 -0.1250
    1PA     C12 3368   2.624   1.245   6.215 -1.5459  0.3599  0.4654
    1PA     H2R 3369   2.534   1.301   6.190 -0.9346  0.7979 -0.8251
    1PA     H2S 3370   2.601   1.139   6.226  0.6582 -0.0454  1.9780
    1PC     C11 3371   2.670   1.270   6.364 -0.7142  0.5870  0.1079
    1PC     O12 3372   2.790   1.291   6.396  0.3339  0.1821 -0.1235
    1PC     O11 3373   2.567   1.273   6.449  0.2723  0.0003  0.3292
    1PC      C1 3374   2.586   1.285   6.591 -0.6243 -0.2716  0.6822
    1PC      HR 3375   2.496   1.238   6.631 -2.1469  2.0856  0.1764
    1PC      HS 3376   2.682   1.242   6.622  0.5482 -0.9491 -3.2716
    1PC      C2 3377   2.580   1.436   6.635  0.1307  0.8652 -0.6520
    1PC      HX 3378   2.658   1.489   6.580  1.5457 -1.4673 -1.0317
    1PC      C3 3379   2.626   1.453   6.780  0.5516  0.0347  0.6046
    1PC      HA 3380   2.736   1.451   6.779  0.6318  1.6324  1.6355
    1PC      HB 3381   2.595   1.552   6.816  0.5604  0.3196 -0.1567
    1PC     O31 3382   2.570   1.357   6.868  0.3374  0.2796  0.3239
    1PC     P31 3383   2.623   1.340   7.019 -0.4340 -0.0464 -0.0410
    1PC     O32 3384   2.592   1.488   7.069 -0.4800 -0.3998 -0.0201
    1PC     C31 3385   2.479   1.520   7.153 -0.9742  0.6271 -0.1761
    1PC     H1A 3386   2.453   1.626   7.143  0.1743  0.7331 -2.9730
    1PC     H1B 3387   2.397   1.467   7.104 -2.4055 -0.6826  3.3604
    1PC     C32 3388   2.502   1.476   7.300 -0.1527  0.3745 -0.3848
    1PC     H2A 3389   2.492   1.367   7.295 -0.7383  0.4759 -2.2098
    1PC     H2B 3390   2.600   1.500   7.340 -0.5141  0.6768  0.3224
    1PC     N31 3391   2.398   1.514   7.395  0.3480 -0.4298  0.1915
    1PC     C33 3392   2.417   1.652   7.443  0.1216  0.5265 -0.0809
    1PC     H3A 3393   2.518   1.659   7.484 -0.7004 -1.5526  2.6386
    1PC     H3B 3394   2.393   1.720   7.362  0.4644 -0.9796 -1.5040
    1PC     H3C 3395   2.337   1.669   7.516 -1.9623  2.3941 -2.6042
    1PC     C34 3396   2.259   1.507   7.335 -0.4936 -0.0896 -0.6922
    1PC     H4A 3397   2.181   1.538   7.405  1.3117 -0.5422  1.6637
    1PC     H4B 3398   2.262   1.560   7.240 -0.3535  0.1123 -0.5769
    1PC     H4C 3399   2.234   1.402   7.320 -0.8133  0.2045 -2.4226
    1PC     C35 3400   2.400   1.424   7.516  0.1120  0.1279 -0.1377
    1PC     H5A 3401   2.324   1.469   7.580  0.7129  1.8006 -0.5513
    1PC     H5B 3402   2.496   1.435   7.566 -0.1324 -1.8932  0.8480
    1PC     H5C 3403   2.391   1.318   7.490  2.6522 -0.6136  1.7036
    1PC     O33 3404   2.528   1.238   7.079 -0.1452  0.9461  0.1542
    1PC     O34 3405   2.766   1.312   7.022  0.0119  0.4842  0.1759
    1PC     O21 3406   2.445   1.493   6.623  0.3260 -0.0872 -0.3557
    1PC     C21 3407   2.411   1.575   6.517 -0.4409 -0.0528  0.2541
    1PC     O22 3408   2.486   1.607   6.429 -0.9825  0.0913  0.2229
    1OL     C12 3409   2.268   1.599   6.512 -0.1492 -0.2955  0.2809
    1OL     H2R 3410   2.246   1.678   6.439 -0.1762 -1.5872 -1.1561
    1OL     H2S 3411   2.225   1.641   6.604 -0.9314 -0.0414 -0.1900
    1OL     C13 3412   2.203   1.470   6.463  0.4567 -0.5217 -0.3597
    1OL     H3R 3413   2.095   1.486   6.466  0.5558  0.1514  2.8749
    1OL     H3S 3414   2.227   1.387   6.530  1.4218 -1.0397 -1.3201
    1OL     C14 3415   2.251   1.431   6.325 -0.0441 -0.2123  0.7809
    1OL     H4R 3416   2.345   1.377   6.334  0.3777  0.3877  0.0561
    1OL     H4S 3417   2.277   1.518   6.264 -1.0791 -1.5918 -1.8007
    1OL     C15 3418   2.137   1.357   6.246 -0.1727 -0.0693 -0.1956
    1OL     H5R 3419   2.044   1.410   6.265  0.9906  1.4602  1.5320
    1OL     H5S 3420   2.128   1.259   6.295  1.2401 -0.3722 -0.4959
    1OL     C16 3421   2.177   1.344   6.098 -0.5789 -0.0353 -0.0380
    1OL     H6R 3422   2.272   1.290   6.106  1.0346  2.9133  3.8989
    1OL     H6S 3423   2.202   1.442   6.057 -0.0958 -0.3588 -0.5321
    1OL     C17 3424   2.086   1.265   6.001  0.2195  0.8647  0.1601
    1OL     H7R 3425   1.990   1.317   5.997 -0.8740 -0.9255  1.4286
    1OL     H7S 3426   2.067   1.170   6.051  2.0529  1.4282  2.1122
    1OL     C18 3427   2.149   1.227   5.860 -0.4349  0.3499 -0.8209
    1OL     H8R 3428   2.176   1.318   5.806  0.3731 -0.4217 -1.7642
    1OL     H8S 3429   2.075   1.168   5.804  1.3653 -0.9716 -1.9479
    1OL     C19 3430   2.267   1.143   5.880 -0.1454  0.0542  0.0701
    1OL     H9R 3431   2.345   1.209   5.916 -0.9938  0.8277  0.5336
    1OL    C110 3432   2.273   1.009   5.877  0.0959 -0.5880 -0.1142
    1OL    H10R 3433   2.363   0.959   5.910 -2.1333 -3.1035  2.6983
    1OL    C111 3434   2.147   0.929   5.843 -0.0348 -0.8597  0.3578
    1OL    H11R 3435   2.065   0.968   5.903  0.6306  0.2698  0.5604
    1OL    H11S 3436   2.159   0.827   5.882 -3.3673 -0.4279  3.0490
    1OL    C112 3437   2.111   0.916   5.688 -0.2131 -0.6585 -0.4796
    1OL    H12R 3438   2.080   1.008   5.640 -1.2649  1.6739  4.0642
    1OL    H12S 3439   2.024   0.850   5.692 -1.2487  0.7049  2.0982
    1OL    C113 3440   2.220   0.846   5.602  0.3056  0.3458  0.3299
    1OL    H13R 3441   2.267   0.763   5.655  0.4366  0.4145  0.3210
    1OL    H13S 3442   2.296   0.923   5.590 -0.5734  1.2745  0.5338
    1OL    C114 3443   2.155   0.794   5.472 -0.1474 -0.0467  0.6760
    1OL    H14R 3444   2.113   0.880   5.421  0.3887  0.3191  0.8369
    1OL    H14S 3445   2.074   0.727   5.499 -0.7565  0.1231 -0.6549
    1OL    C115 3446   2.250   0.712   5.375  0.5708  0.0586 -0.8834
    1OL    H15R 3447   2.308   0.641   5.434  0.6868  1.0676  0.2704
    1OL    H15S 3448   2.313   0.783   5.321 -0.1512 -0.0613 -1.9226
    1OL    C116 3449   2.169   0.651   5.258 -0.1061  0.0797  0.4107
    1OL    H16R 3450   2.120   0.735   5.208  0.3727 -0.3921 -0.8998
    1OL    H16S 3451   2.097   0.582   5.301  0.4919 -1.1010 -0.4241
    1OL    C117 3452   2.266   0.588   5.157 -0.6207 -0.3503 -0.7591
    1OL    H17R 3453   2.341   0.524   5.202 -0.1786  0.1585 -0.7657
    1OL    H17S 3454   2.325   0.665   5.107  0.9647 -1.6391 -0.9319
    1OL    C118 3455   2.203   0.515   5.044  0.6394  0.4994 -0.2534
    1OL    H18R 3456   2.277   0.490   4.968 -1.4846  0.0548 -2.2938
    1OL    H18S 3457   2.129   0.584   5.004 -1.7331 -0.0203  2.8296
    1OL    H18T 3458   2.150   0.425   5.077  0.5092 -0.5929 -3.1789
    1PA    C116 3459   1.622   3.852   5.031 -0.4289  0.3989 -0.0030
    1PA    H16R 3460   1.618   3.772   5.105  0.6203 -0.7564 -1.1361
    1PA    H16S 3461   1.725   3.857   4.996 -1.0587  0.9094 -1.8971
    1PA    H16T 3462   1.560   3.828   4.944  0.3849  0.0861 -0.5110
    1PA    C115 3463   1.567   3.987   5.086 -0.0460  0.2241  0.1083
    1PA    H15R 3464   1.638   4.058   5.043  1.1209 -1.1904 -0.3563
    1PA    H15S 3465   1.464   4.012   5.059 -0.0593  1.7097  1.4018
    1PA    C114 3466   1.578   3.997   5.244  0.0330 -0.1514  0.0977
    1PA    H14R 3467   1.559   3.902   5.295 -1.1369  0.4603  0.8552
    1PA    H14S 3468   1.680   4.027   5.267  0.2517 -0.9452  0.1805
    1PA    C113 3469   1.488   4.107   5.296  0.5263  0.1206 -0.0785
    1PA    H13R 3470   1.518   4.210   5.275 -2.6361  1.5425  1.7033
    1PA    H13S 3471   1.387   4.109   5.256  0.7931  1.5232 -0.7605
    1PA    C112 3472   1.473   4.094   5.448 -0.7286  0.0692 -0.2165
    1PA    H12R 3473   1.420   4.001   5.469  0.6226 -0.2457  2.2960
    1PA    H12S 3474   1.571   4.090   5.496 -2.0003 -0.1563  2.5678
    1PA    C111 3475   1.393   4.207   5.517 -0.4535 -0.1226  0.5482
    1PA    H11R 3476   1.452   4.299   5.511  1.6059 -1.4150 -0.2200
    1PA    H11S 3477   1.302   4.219   5.458 -0.0902  1.8898  0.3093
    1PA    C110 3478   1.360   4.165   5.658  0.0724  0.1203  0.3381
    1PA    H10R 3479   1.294   4.242   5.701 -1.4083 -0.6971 -0.3887
    1PA    H10S 3480   1.309   4.068   5.655  1.5344 -0.6778  0.6377
    1PA     C19 3481   1.480   4.147   5.760  0.1812 -0.2701  1.1011
    1PA     H9R 3482   1.558   4.088   5.710 -0.7715 -1.3772  0.8692
    1PA     H9S 3483   1.530   4.244   5.766 -1.0182  0.4681 -0.4755
    1PA     C18 3484   1.437   4.085   5.891 -0.0027 -0.3309  0.1368
    1PA     H8R 3485   1.338   4.123   5.915  0.0518  0.1053 -0.3133
    1PA     H8S 3486   1.408   3.985   5.859 -1.4456  0.8303 -2.5269
    1PA     C17 3487   1.543   4.087   6.000  0.3977 -0.5594 -0.0510
    1PA     H7R 3488   1.617   4.015   5.965  1.2353  1.6321 -3.1268
    1PA     H7S 3489   1.598   4.180   6.015  0.1318 -0.4487  0.2525
    1PA     C16 3490   1.470   4.033   6.125 -0.7302  0.2467 -0.5334
    1PA     H6R 3491   1.385   4.097   6.148 -0.1057  0.3539  1.7638
    1PA     H6S 3492   1.438   3.931   6.107  1.8607 -0.8454  0.5205
    1PA     C15 3493   1.571   4.025   6.247  0.4948 -0.5173  0.2443
    1PA     H5R 3494   1.645   3.953   6.212 -2.2729 -3.2495 -0.4216
    1PA     H5S 3495   1.616   4.123   6.265  2.1684 -0.9137 -1.5154
    1PA     C14 3496   1.497   3.970   6.372 -0.6439 -0.6476 -0.1440
    1PA     H4R 3497   1.575   3.961   6.448  0.1471  0.5235 -0.7846
    1PA     H4S 3498   1.430   4.041   6.420  0.1956 -1.4800  2.4350
    1PA     C13 3499   1.423   3.835   6.356  0.0670  0.5236  0.2884
    1PA     H3R 3500   1.339   3.837   6.286  0.2094  1.5037  0.1234
    1PA     H3S 3501   1.496   3.767   6.312 -0.6372 -0.8485  1.1599
    1PA     C12 3502   1.373   3.775   6.491 -0.2310  0.1842  0.7363
    1PA     H2R 3503   1.293   3.839   6.528 -1.5087  0.7223 -2.5309
    1PA     H2S 3504   1.336   3.675   6.469  0.4115  0.5232 -2.4976
    1PC     C11 3505   1.482   3.753   6.585  0.3725  0.1267 -0.0057
    1PC     O12 3506   1.502   3.830   6.679  0.4498  0.1261  0.3873
    1PC     O11 3507   1.561   3.645   6.564  0.4744  0.0181 -0.2764
    1PC      C1 3508   1.660   3.606   6.662 -0.5716  0.4201 -0.4975
    1PC      HR 3509   1.714   3.517   6.629  1.7174  1.9466 -1.1397
    1PC      HS 3510   1.737   3.685   6.666  1.1404 -1.1743 -0.5709
    1PC      C2 3511   1.597   3.576   6.803  0.2192  0.1945 -0.7765
    1PC      HX 3512   1.554   3.662   6.855 -1.4262 -2.0398  1.8683
    1PC      C3 3513   1.706   3.537   6.900  0.0557 -0.2524 -0.2774
    1PC      HA 3514   1.763   3.452   6.862  1.6367  0.1872  0.9759
    1PC      HB 3515   1.781   3.617   6.907 -0.5832  0.3377  0.0253
    1PC     O31 3516   1.649   3.522   7.033  0.0302  0.0483  0.0130
    1PC     P31 3517   1.662   3.629   7.150 -0.0960 -0.0005  0.0829
    1PC     O32 3518   1.775   3.566   7.250 -0.3098 -0.2736  0.1561
    1PC     C31 3519   1.918   3.557   7.214  0.1585 -0.0037 -0.5230
    1PC     H1A 3520   1.955   3.460   7.179  0.3366  0.2525 -1.0553
    1PC     H1B 3521   1.937   3.622   7.128 -0.7814 -0.4074 -1.0506
    1PC     C32 3522   2.002   3.594   7.337  0.2860  0.3999 -0.2489
    1PC     H2A 3523   1.972   3.521   7.413 -2.1974 -0.3337 -1.7985
    1PC     H2B 3524   2.104   3.582   7.301  0.3344  0.7176 -0.2201
    1PC     N31 3525   1.993   3.730   7.392  0.2743 -0.1377  0.1377
    1PC     C33 3526   2.054   3.729   7.528  0.5502  0.2929  0.5388
    1PC     H3A 3527   2.038   3.825   7.576 -0.1248  0.5968 -0.2561
    1PC     H3B 3528   2.005   3.650   7.584  1.1862 -1.7603 -1.6182
    1PC     H3C 3529   2.159   3.700   7.517  0.5680  0.6880 -0.4391
    1PC     C34 3530   2.066   3.824   7.297 -0.1654  0.0934 -0.6438
    1PC     H4A 3531   2.010   3.815   7.204  1.9496 -0.2805 -1.9572
    1PC     H4B 3532   2.061   3.924   7.340  1.8573 -0.7351  1.7656
    1PC     H4C 3533   2.172   3.801   7.284  0.2099  0.4179  1.4985
    1PC     C35 3534   1.859   3.787   7.412  0.1209  0.3703 -0.7154
    1PC     H5A 3535   1.815   3.720   7.487  0.8484  2.5014  1.7761
    1PC     H5B 3536   1.810   3.810   7.317  3.3929  0.2378 -2.5733
    1PC     H5C 3537   1.868   3.884   7.463  1.7796  0.3421 -0.9083
    1PC     O33 3538   1.714   3.759   7.091 -0.5812  0.1053 -0.1694
    1PC     O34 3539   1.534   3.622   7.224 -0.2377  0.3367 -0.6048
    1PC     O21 3540   1.499   3.468   6.785 -0.2414  0.2125 -0.9031
    1PC     C21 3541   1.367   3.496   6.759  0.3315 -0.1538  0.7179
    1PC     O22 3542   1.309   3.597   6.784  0.1761  0.4529 -0.2620
    1OL     C12 3543   1.301   3.379   6.687  0.4497 -0.1436 -0.1286
    1OL     H2R 3544   1.291   3.297   6.759 -0.2877 -1.6648 -1.9014
    1OL     H2S 3545   1.363   3.358   6.600 -0.0693  2.6389 -1.2928
    1OL     C13 3546   1.154   3.407   6.642  0.3914  0.5138  0.0228
    1OL     H3R 3547   1.139   3.495   6.579 -0.3669 -0.3973 -1.1149
    1OL     H3S 3548   1.101   3.426   6.735  2.9415  0.3240  1.5900
    1OL     C14 3549   1.087   3.291   6.573 -0.4362  0.1257 -0.3983
    1OL     H4R 3550   0.979   3.307   6.578 -0.6640 -1.1262 -0.8130
    1OL     H4S 3551   1.107   3.201   6.632 -0.4612  1.9316  2.5505
    1OL     C15 3552   1.126   3.266   6.425 -0.2004 -0.0475  0.3197
    1OL     H5R 3553   1.107   3.163   6.393 -2.4298  0.8303 -1.4236
    1OL     H5S 3554   1.235   3.270   6.427 -0.2023  2.0369 -1.1402
    1OL     C16 3555   1.067   3.359   6.322  0.5620  0.2728 -0.7481
    1OL     H6R 3556   1.076   3.462   6.357 -1.8381 -0.0508  1.0339
    1OL     H6S 3557   0.960   3.338   6.330  1.2081 -2.9016  1.2315
    1OL     C17 3558   1.120   3.346   6.174  0.5850 -0.7100 -0.8459
    1OL     H7R 3559   1.077   3.436   6.130  1.5510  0.3770  0.3452
    1OL     H7S 3560   1.067   3.268   6.120  0.3838  0.2061 -2.0003
    1OL     C18 3561   1.271   3.347   6.143 -0.3683 -0.5508  0.6560
    1OL     H8R 3562   1.314   3.261   6.195  1.5944  1.2999  2.2712
    1OL     H8S 3563   1.310   3.444   6.174 -1.0126  0.6375 -1.9937
    1OL     C19 3564   1.284   3.334   5.994 -0.3743 -0.5891 -0.1456
    1OL     H9R 3565   1.267   3.237   5.948 -2.3350 -0.4627  0.1903
    1OL    C110 3566   1.287   3.431   5.902  0.3023 -0.4347  0.3159
    1OL    H10R 3567   1.297   3.412   5.795 -1.7506  0.5647 -0.1091
    1OL    C111 3568   1.320   3.578   5.937 -0.1242 -0.5836 -0.1419
    1OL    H11R 3569   1.427   3.585   5.959 -0.4746  1.3645  1.1865
    1OL    H11S 3570   1.269   3.616   6.025 -2.7218  0.3112 -1.9242
    1OL    C112 3571   1.283   3.673   5.822  0.0521 -0.4277  0.2910
    1OL    H12R 3572   1.301   3.775   5.858  0.6920 -1.0380  1.8266
    1OL    H12S 3573   1.178   3.654   5.802  0.1190 -2.7207  1.7351
    1OL    C113 3574   1.359   3.653   5.691 -0.1322  0.3784 -0.5837
    1OL    H13R 3575   1.357   3.551   5.653 -0.0278  0.1008  0.1453
    1OL    H13S 3576   1.467   3.657   5.706  0.0492 -2.1147 -0.8232
    1OL    C114 3577   1.316   3.743   5.576  0.1779 -0.7815  0.1463
    1OL    H14R 3578   1.397   3.744   5.503  0.5499 -0.4272  0.5607
    1OL    H14S 3579   1.321   3.841   5.624  0.9629 -0.8570  0.2321
    1OL    C115 3580   1.178   3.712   5.517  0.9583 -0.6065  0.0172
    1OL    H15R 3581   1.106   3.708   5.599  0.2502  0.2023 -0.5611
    1OL    H15S 3582   1.189   3.618   5.461  3.2267 -0.6330  0.4024
    1OL    C116 3583   1.125   3.816   5.423  0.3162 -0.2531  0.4304
    1OL    H16R 3584   1.119   3.915   5.469  1.5131 -0.1424  0.3861
    1OL    H16S 3585   1.027   3.782   5.388  0.9719 -2.5944  0.6934
    1OL    C117 3586   1.212   3.825   5.296  1.2299  0.2916 -0.3659
    1OL    H17R 3587   1.188   3.735   5.239  0.3864 -0.0084  0.4267
    1OL    H17S 3588   1.317   3.844   5.318  0.7288  2.2056  0.6884
    1OL    C118 3589   1.157   3.943   5.218 -0.1550 -0.7768  0.0659
    1OL    H18R 3590   1.218   3.970   5.132  1.0217 -2.1875  0.4058
    1OL    H18S 3591   1.156   4.021   5.295  1.6343 -0.4488 -0.1891
    1OL    H18T 3592   1.055   3.929   5.184 -0.8394  1.1736  1.1525
    1PA    C116 3593   4.814   3.856   4.827 -0.6270 -0.2120 -0.8139
    1PA    H16R 3594   4.785   3.779   4.755 -0.9161 -0.1191 -0.8002
    1PA    H16S 3595   4.865   3.801   4.906  5.2885  1.2379 -3.1152
    1PA    H16T 3596   4.902   3.912   4.793  0.8269 -2.0038 -0.1337
    1PA    C115 3597   4.701   3.942   4.893 -0.0566 -0.3187  0.6008
    1PA    H15R 3598   4.640   3.980   4.811  1.3162 -0.0716 -0.3484
    1PA    H15S 3599   4.638   3.873   4.948 -0.4851  0.7154  1.4412
    1PA    C114 3600   4.752   4.053   4.987  0.7233 -0.0923 -0.3808
    1PA    H14R 3601   4.847   4.085   4.944  0.0782  0.0833 -1.7327
    1PA    H14S 3602   4.694   4.145   4.982  1.2024  0.1858 -1.0989
    1PA    C113 3603   4.764   4.002   5.132 -0.5404 -0.2948  0.3318
    1PA    H13R 3604   4.672   3.944   5.145 -2.1955  2.4070  1.6303
    1PA    H13S 3605   4.856   3.944   5.140 -0.5505 -0.1642  1.5666
    1PA    C112 3606   4.776   4.114   5.241 -0.1964 -0.6544 -0.7027
    1PA    H12R 3607   4.858   4.179   5.210  0.3010 -0.0483  1.6914
    1PA    H12S 3608   4.686   4.176   5.237  0.2464 -0.0556 -1.7070
    1PA    C111 3609   4.815   4.056   5.384  0.3903  0.3493 -0.3959
    1PA    H11R 3610   4.755   3.969   5.412 -0.4600  0.7262 -1.0088
    1PA    H11S 3611   4.917   4.020   5.393 -0.0092 -0.6374  0.4472
    1PA    C110 3612   4.783   4.163   5.489 -0.1159 -0.6108  0.2305
    1PA    H10R 3613   4.861   4.239   5.475 -0.1555 -0.4881  0.6467
    1PA    H10S 3614   4.696   4.221   5.458  0.8303  0.8064  0.1192
    1PA     C19 3615   4.782   4.119   5.634 -0.1949 -0.4405  0.0109
    1PA     H9R 3616   4.684   4.073   5.648 -1.3996  0.9746 -2.8751
    1PA     H9S 3617   4.854   4.044   5.667  0.4122 -0.6685 -1.7396
    1PA     C18 3618   4.787   4.246   5.725  0.1635 -0.2804  0.7908
    1PA     H8R 3619   4.769   4.213   5.828 -0.1379 -1.8641  0.2375
    1PA     H8S 3620   4.893   4.274   5.725 -0.2452  1.3853  0.2881
    1PA     C17 3621   4.705   4.371   5.682 -0.0223 -0.9677  0.2760
    1PA     H7R 3622   4.741   4.406   5.584  2.0628  0.2974  1.4140
    1PA     H7S 3623   4.597   4.360   5.678 -0.3911  2.0571 -2.0734
    1PA     C16 3624   4.742   4.481   5.791 -0.3898  0.2340 -0.4566
    1PA     H6R 3625   4.750   4.439   5.892  1.2283  0.8866 -0.2688
    1PA     H6S 3626   4.830   4.541   5.764 -0.7185  1.4923  1.0527
    1PA     C15 3627   4.638   4.598   5.806 -0.0354 -0.3371  0.5870
    1PA     H5R 3628   4.610   4.635   5.707 -0.0735 -0.1968  0.6503
    1PA     H5S 3629   4.549   4.551   5.848 -0.6694  0.3072 -0.0191
    1PA     C14 3630   4.675   4.720   5.898  0.3343  1.3355  0.2762
    1PA     H4R 3631   4.763   4.764   5.851  1.2870 -0.6172  0.1444
    1PA     H4S 3632   4.585   4.782   5.896 -0.2181  0.5203 -1.0246
    1PA     C13 3633   4.710   4.662   6.040 -0.5878 -0.3510 -0.0882
    1PA     H3R 3634   4.635   4.584   6.056 -0.5601 -1.0419 -2.7600
    1PA     H3S 3635   4.810   4.618   6.035 -0.1170  0.5666  0.9017
    1PA     C12 3636   4.700   4.781   6.138 -0.6421  0.5184  0.1768
    1PA     H2R 3637   4.764   4.860   6.101 -0.8766 -0.2853 -2.1104
    1PA     H2S 3638   4.596   4.814   6.134 -0.6439  0.4279 -1.2962
    1PC     C11 3639   4.736   4.744   6.276  0.0212  0.3620 -0.5018
    1PC     O12 3640   4.797   4.644   6.315 -0.2804  0.1330 -0.4247
    1PC     O11 3641   4.721   4.851   6.356 -0.9290  0.5007  0.2586
    1PC      C1 3642   4.775   4.854   6.495 -0.1404  0.4877  0.0217
    1PC      HR 3643   4.723   4.932   6.552  0.9107  1.5107 -0.3633
    1PC      HS 3644   4.749   4.764   6.552  1.2712  1.2167  1.9422
    1PC      C2 3645   4.927   4.878   6.499  0.0591 -0.5550 -0.4492
    1PC      HX 3646   4.969   4.794   6.442 -1.1638 -0.7482 -1.0975
    1PC      C3 3647   4.991   4.873   6.644 -0.6186 -0.7796 -0.4577
    1PC      HA 3648   4.963   4.777   6.689 -1.0027 -1.3358 -1.8126
    1PC      HB 3649   5.099   4.880   6.632 -0.8720  0.5498 -2.5568
    1PC     O31 3650   4.938   4.980   6.725  0.8954  0.4076 -0.1825
    1PC     P31 3651   4.840   4.950   6.851 -0.1079  0.0737 -0.0827
    1PC     O32 3652   4.941   4.897   6.966  0.4030  0.7328  0.2567
    1PC     C31 3653   5.014   5.000   7.033  0.1878  0.1010 -0.2241
    1PC     H1A 3654   5.100   5.035   6.977 -0.3013 -0.7542 -1.5515
    1PC     H1B 3655   4.950   5.088   7.044 -0.4289 -0.1735 -1.4721
    1PC     C32 3656   5.053   4.933   7.164  0.0561  0.4035  0.1293
    1PC     H2A 3657   4.961   4.882   7.194 -0.5682  1.1118 -0.5366
    1PC     H2B 3658   5.127   4.854   7.149 -0.1185  0.3381 -0.3831
    1PC     N31 3659   5.091   5.020   7.274 -0.5435  0.3328 -0.3497
    1PC     C33 3660   4.987   5.130   7.303 -0.2232  0.3463 -0.5484
    1PC     H3A 3661   4.894   5.088   7.341 -1.1695  2.2934 -0.6076
    1PC     H3B 3662   5.043   5.193   7.372 -2.5160  0.4355  1.3759
    1PC     H3C 3663   4.963   5.178   7.209  3.2590  0.8141 -1.3330
    1PC     C34 3664   5.121   4.939   7.400  0.3902 -0.2421  0.1007
    1PC     H4A 3665   5.180   4.851   7.374  0.5799  0.0998 -0.6407
    1PC     H4B 3666   5.167   4.999   7.479 -1.5875 -2.2058  2.9332
    1PC     H4C 3667   5.022   4.904   7.431  1.3809 -2.8286  0.6335
    1PC     C35 3668   5.216   5.091   7.224 -0.2287  0.5429 -0.0103
    1PC     H5A 3669   5.272   5.036   7.149 -0.3151  0.2888  0.1087
    1PC     H5B 3670   5.280   5.109   7.310  0.4268 -0.2881 -0.3063
    1PC     H5C 3671   5.187   5.185   7.176 -2.1038 -0.6223 -1.2856
    1PC     O33 3672   4.775   5.074   6.894  0.0816 -0.5573  0.2535
    1PC     O34 3673   4.750   4.839   6.821 -0.4193  0.3939 -0.0758
    1PC     O21 3674   4.971   5.004   6.438  0.1103  0.2324  0.1627
    1PC     C21 3675   5.044   4.997   6.323  0.2884  0.2792  0.3709
    1PC     O22 3676   5.096   4.896   6.284 -0.3900  0.3275  0.8131
    1OL     C12 3677   5.069   5.132   6.259  0.3116 -0.2029 -0.7185
    1OL     H2R 3678   5.172   5.136   6.223 -0.2531 -0.6719 -2.4338
    1OL     H2S 3679   5.066   5.208   6.338 -1.9584  0.2260 -1.1508
    1OL     C13 3680   4.972   5.162   6.144  0.5807  0.3901 -0.0060
    1OL     H3R 3681   4.975   5.269   6.122  0.1949  0.6109  1.0043
    1OL     H3S 3682   4.871   5.149   6.182  1.5118 -1.0198  2.1316
    1OL     C14 3683   4.991   5.087   6.015 -0.2271 -0.7083  0.3768
    1OL     H4R 3684   4.989   4.979   6.026 -1.9390 -0.8163 -0.6861
    1OL     H4S 3685   5.089   5.112   5.974 -0.0263 -1.1731  0.5713
    1OL     C15 3686   4.875   5.120   5.916  0.6164 -0.3274 -0.3196
    1OL     H5R 3687   4.872   5.229   5.911 -1.1986 -0.3059  0.2690
    1OL     H5S 3688   4.778   5.101   5.964 -1.1105  4.6593 -1.2390
    1OL     C16 3689   4.884   5.065   5.773 -1.1864 -0.1104 -0.4014
    1OL     H6R 3690   4.805   5.106   5.710  0.5804  3.8321 -0.3376
    1OL     H6S 3691   4.880   4.957   5.784 -2.4908 -0.0444 -0.1754
    1OL     C17 3692   5.014   5.100   5.710 -0.3381  0.9982  0.6735
    1OL     H7R 3693   5.094   5.037   5.751  0.2892 -1.0454 -3.2225
    1OL     H7S 3694   5.028   5.208   5.707 -0.7844  1.0494  0.4203
    1OL     C18 3695   5.004   5.071   5.560  0.2393  0.1269 -0.5455
    1OL     H8R 3696   4.939   5.147   5.517 -1.0932 -0.3937  0.4547
    1OL     H8S 3697   4.945   4.982   5.536  0.9909  0.0148 -2.0341
    1OL     C19 3698   5.146   5.066   5.494  0.6560  0.2103  0.3817
    1OL     H9R 3699   5.229   5.069   5.564  1.8313 -0.5682 -0.9328
    1OL    C110 3700   5.173   5.092   5.362 -0.4166  0.2381  0.2179
    1OL    H10R 3701   5.275   5.115   5.333 -0.5417 -0.9404 -1.2840
    1OL    C111 3702   5.068   5.105   5.252  0.1827  0.1411 -0.2518
    1OL    H11R 3703   5.067   5.203   5.204 -0.9653  0.1509 -0.2298
    1OL    H11S 3704   4.969   5.079   5.290 -0.4006  0.8524 -1.2435
    1OL    C112 3705   5.103   5.008   5.143  0.1722  0.5462  0.4129
    1OL    H12R 3706   5.128   4.912   5.189 -3.2938  0.7274  3.1244
    1OL    H12S 3707   5.193   5.048   5.097  0.1106  0.8646  0.5640
    1OL    C113 3708   4.999   4.985   5.034 -0.4026  0.2521 -0.1759
    1OL    H13R 3709   4.986   5.077   4.977 -0.8278 -0.6213 -1.5326
    1OL    H13S 3710   4.905   4.960   5.084  0.8859 -2.9260  0.9442
    1OL    C114 3711   5.044   4.870   4.936  0.0169 -0.7867 -0.9065
    1OL    H14R 3712   5.087   4.791   4.998  0.3499  0.5749  0.6594
    1OL    H14S 3713   5.132   4.907   4.882  1.6412 -1.3479  1.2119
    1OL    C115 3714   4.931   4.810   4.846  0.2191 -0.7591  0.0945
    1OL    H15R 3715   4.847   4.786   4.912  0.7016  0.6209  1.2637
    1OL    H15S 3716   4.968   4.717   4.803  1.7442  0.5267 -1.4916
    1OL    C116 3717   4.887   4.905   4.730  0.6608 -0.4974  0.7291
    1OL    H16R 3718   4.965   4.933   4.658 -1.2906  1.8133 -0.6415
    1OL    H16S 3719   4.841   4.995   4.774  0.2603 -0.3390 -0.0047
    1OL    C117 3720   4.777   4.833   4.646 -0.7569  0.2421 -0.0336
    1OL    H17R 3721   4.711   4.789   4.721  1.2578 -0.6818  1.3006
    1OL    H17S 3722   4.824   4.750   4.593 -1.2870  0.9121 -1.6118
    1OL    C118 3723   4.715   4.922   4.544  0.2400 -0.7345  0.4466
    1OL    H18R 3724   4.617   4.955   4.578  0.6909  0.0475  1.0422
    1OL    H18S 3725   4.703   4.865   4.452  0.0103  0.3431 -0.2206
    1OL    H18T 3726   4.778   5.006   4.512  0.3433 -1.1008 -0.3426
    1PA    C116 3727   3.072   3.708   4.947  0.0270  0.0253  0.3693
    1PA    H16R 3728   2.989   3.650   4.989 -0.9689  1.7581  0.9021
    1PA    H16S 3729   3.152   3.636   4.929 -1.0088 -1.3281  0.9911
    1PA    H16T 3730   3.029   3.762   4.862 -1.8149 -2.6828 -0.5641
    1PA    C115 3731   3.127   3.803   5.046  0.0765  0.2472  0.0024
    1PA    H15R 3732   3.210   3.857   4.999  1.9943 -1.7117  0.9614
    1PA    H15S 3733   3.053   3.881   5.067 -0.0777  0.3943 -1.0385
    1PA    C114 3734   3.168   3.737   5.175  0.0870  0.2887 -0.1577
    1PA    H14R 3735   3.203   3.814   5.244  1.0875 -0.4590  0.1968
    1PA    H14S 3736   3.080   3.690   5.220  1.4215 -2.1626  0.0643
    1PA    C113 3737   3.286   3.635   5.163 -0.2496 -0.3844 -1.2034
    1PA    H13R 3738   3.293   3.578   5.255  2.3983 -1.1246 -1.7744
    1PA    H13S 3739   3.257   3.561   5.089  2.0268 -2.2666 -0.3415
    1PA    C112 3740   3.418   3.697   5.127  0.1752 -0.0187  0.3784
    1PA    H12R 3741   3.426   3.716   5.019 -0.8523  0.2642  0.3404
    1PA    H12S 3742   3.406   3.788   5.186 -2.0154 -1.0432  1.6142
    1PA    C111 3743   3.537   3.613   5.175 -0.8100 -0.2663  0.2724
    1PA    H11R 3744   3.529   3.592   5.282  0.8765  1.2766  0.7545
    1PA    H11S 3745   3.538   3.517   5.124  1.7273 -0.5373  0.7394
    1PA    C110 3746   3.679   3.689   5.167  0.1578  0.4809  0.0641
    1PA    H10R 3747   3.761   3.616   5.163  0.7804  1.2050 -1.6220
    1PA    H10S 3748   3.685   3.736   5.068  1.8439  2.5668  1.0733
    1PA     C19 3749   3.708   3.791   5.269 -0.6340 -0.2709  0.5067
    1PA     H9R 3750   3.624   3.861   5.273 -0.0115  0.4603  1.1801
    1PA     H9S 3751   3.715   3.734   5.362 -2.0992  0.1887  0.9308
    1PA     C18 3752   3.834   3.866   5.224 -0.2282  0.5679 -0.0040
    1PA     H8R 3753   3.918   3.798   5.210 -0.5699  0.5241 -2.3421
    1PA     H8S 3754   3.823   3.902   5.121  0.5976 -0.8811 -0.6322
    1PA     C17 3755   3.891   3.974   5.309 -0.6674  0.7686 -0.1424
    1PA     H7R 3756   3.907   3.942   5.412  1.9583  2.0643 -0.0804
    1PA     H7S 3757   3.986   4.012   5.273  0.0411 -1.0048 -0.2302
    1PA     C16 3758   3.801   4.089   5.330  0.1478  0.0236 -0.1668
    1PA     H6R 3759   3.805   4.142   5.234  0.9843 -0.8127 -0.6051
    1PA     H6S 3760   3.702   4.051   5.356  0.3028 -0.2133  0.0766
    1PA     C15 3761   3.834   4.184   5.442  0.0202 -0.1579 -0.2852
    1PA     H5R 3762   3.863   4.121   5.526  1.4520 -1.0637 -1.4161
    1PA     H5S 3763   3.921   4.241   5.410  0.4773 -0.0638  1.0323
    1PA     C14 3764   3.730   4.288   5.484 -0.2481  1.4259  0.3837
    1PA     H4R 3765   3.707   4.351   5.397  0.3741  0.9552 -0.1306
    1PA     H4S 3766   3.640   4.234   5.512  0.6120 -1.1932 -1.5170
    1PA     C13 3767   3.787   4.378   5.599  0.4512  0.1864 -0.0974
    1PA     H3R 3768   3.848   4.331   5.676  0.3200 -0.3487 -0.3164
    1PA     H3S 3769   3.864   4.438   5.550  0.1411 -0.1758 -1.0690
    1PA     C12 3770   3.664   4.463   5.655 -0.3098  0.2034 -0.5632
    1PA     H2R 3771   3.684   4.567   5.679 -1.3785  0.5748 -1.1899
    1PA     H2S 3772   3.580   4.470   5.585 -1.4774  2.7431  0.9451
    1PC     C11 3773   3.614   4.397   5.775 -0.0769  0.5086  0.8126
    1PC     O12 3774   3.587   4.281   5.783  0.4305  0.3409 -0.2117
    1PC     O11 3775   3.603   4.475   5.884 -0.5482  0.6829  0.2583
    1PC      C1 3776   3.589   4.417   6.015 -0.2701  0.4563  0.4868
    1PC      HR 3777   3.560   4.493   6.088 -1.1997 -1.9622  2.7686
    1PC      HS 3778   3.505   4.348   6.014 -0.2315  0.3821 -1.4138
    1PC      C2 3779   3.728   4.365   6.060 -0.0750  0.0555  0.3108
    1PC      HX 3780   3.768   4.302   5.980  0.9536 -1.0671  1.6649
    1PC      C3 3781   3.705   4.272   6.181 -0.2380 -0.2437 -0.7947
    1PC      HA 3782   3.626   4.202   6.156 -0.9201 -0.0416  0.6613
    1PC      HB 3783   3.796   4.224   6.217 -1.2236 -1.3726  0.2707
    1PC     O31 3784   3.641   4.339   6.291  0.2719  0.1840  0.1373
    1PC     P31 3785   3.726   4.403   6.412 -0.2942 -0.1870  0.3166
    1PC     O32 3786   3.783   4.545   6.357 -0.1219  0.2296 -0.5761
    1PC     C31 3787   3.708   4.668   6.336 -0.8829  0.4172 -0.3227
    1PC     H1A 3788   3.774   4.731   6.275  0.4892  1.6014  2.2057
    1PC     H1B 3789   3.623   4.633   6.277 -0.4615 -0.5657 -0.3625
    1PC     C32 3790   3.672   4.726   6.470 -0.5336 -0.4203 -1.0975
    1PC     H2A 3791   3.604   4.811   6.461  1.1963  1.2885  0.7871
    1PC     H2B 3792   3.621   4.645   6.522  0.6317 -0.1758  0.5131
    1PC     N31 3793   3.787   4.783   6.563  0.0544 -0.2275  0.4655
    1PC     C33 3794   3.861   4.889   6.489  0.5667 -0.2358 -0.0645
    1PC     H3A 3795   3.956   4.905   6.539  0.7622 -0.5475 -0.3329
    1PC     H3B 3796   3.883   4.866   6.385 -1.6487 -0.2832 -0.5871
    1PC     H3C 3797   3.791   4.973   6.495 -0.1056 -0.8293  0.6684
    1PC     C34 3798   3.713   4.835   6.682  0.2490  0.4763 -0.4696
    1PC     H4A 3799   3.659   4.923   6.647 -1.4988 -1.2102 -2.2515
    1PC     H4B 3800   3.641   4.762   6.720 -2.4533  2.7909 -0.7650
    1PC     H4C 3801   3.789   4.860   6.757  0.8518  1.4874 -1.3835
    1PC     C35 3802   3.888   4.679   6.600  0.7354  0.4031 -0.1926
    1PC     H5A 3803   3.933   4.647   6.506  1.8546  2.1483 -0.2836
    1PC     H5B 3804   3.838   4.587   6.633  0.9026 -0.2021 -1.5621
    1PC     H5C 3805   3.971   4.715   6.662 -0.8380  1.5392  1.3454
    1PC     O33 3806   3.629   4.421   6.526 -0.9764  0.3457 -0.9630
    1PC     O34 3807   3.837   4.313   6.443 -0.2562  0.2016 -0.2890
    1PC     O21 3808   3.823   4.474   6.095  0.0987 -0.0353 -0.2635
    1PC     C21 3809   3.947   4.438   6.117 -0.5469 -0.8358  0.4132
    1PC     O22 3810   3.994   4.327   6.121 -0.0593  0.1283 -0.1431
    1OL     C12 3811   4.038   4.562   6.128  0.9784 -0.3297  0.0349
    1OL     H2R 3812   4.134   4.527   6.167  1.2676 -1.1534 -1.3536
    1OL     H2S 3813   3.998   4.638   6.195  0.0624  0.6982 -1.6290
    1OL     C13 3814   4.072   4.634   5.987 -0.0288 -0.5526 -0.0827
    1OL     H3R 3815   4.126   4.727   6.005 -1.3073  0.0178  0.9945
    1OL     H3S 3816   3.975   4.662   5.945 -1.2416 -0.5443  2.5236
    1OL     C14 3817   4.138   4.544   5.878 -0.2102 -0.3011  0.3456
    1OL     H4R 3818   4.072   4.468   5.836  0.6442 -0.9414  0.1418
    1OL     H4S 3819   4.223   4.487   5.917  0.0155 -0.7704 -0.8155
    1OL     C15 3820   4.187   4.635   5.765  0.2603  0.4011  0.1811
    1OL     H5R 3821   4.246   4.718   5.802  1.7989 -0.8707  0.7279
    1OL     H5S 3822   4.111   4.694   5.714  3.2922  3.8560 -0.8097
    1OL     C16 3823   4.280   4.560   5.669 -0.3954 -0.4524 -0.7063
    1OL     H6R 3824   4.345   4.495   5.729  0.8865  1.5800  0.2325
    1OL     H6S 3825   4.340   4.635   5.616 -0.7865 -0.1556 -0.7315
    1OL     C17 3826   4.212   4.480   5.566  0.0942  0.0674 -0.3790
    1OL     H7R 3827   4.149   4.545   5.506  2.3662  1.0995 -1.7906
    1OL     H7S 3828   4.163   4.390   5.604  2.6233 -2.5213 -2.7141
    1OL     C18 3829   4.315   4.414   5.470  0.3072 -0.0892  0.2410
    1OL     H8R 3830   4.395   4.366   5.527 -0.9724 -0.4098  1.8563
    1OL     H8S 3831   4.369   4.496   5.423 -1.5369 -0.2186 -2.2772
    1OL     C19 3832   4.240   4.322   5.377  0.8013 -0.1176  0.8282
    1OL     H9R 3833   4.181   4.382   5.309  2.1373  2.3111  1.6853
    1OL    C110 3834   4.223   4.193   5.392  0.2653  0.2868  0.2557
    1OL    H10R 3835   4.161   4.147   5.316  2.5491 -1.0535 -0.9246
    1OL    C111 3836   4.287   4.100   5.490  0.2239 -0.2950 -0.0890
    1OL    H11R 3837   4.218   4.079   5.571 -0.0873  1.2007  0.0760
    1OL    H11S 3838   4.365   4.161   5.537  0.2441 -0.5335  0.1894
    1OL    C112 3839   4.349   3.981   5.414  0.0588  0.7285  0.2730
    1OL    H12R 3840   4.402   3.925   5.491 -1.4992 -0.3468  0.6316
    1OL    H12S 3841   4.421   4.010   5.338  1.5026 -0.8540  0.9660
    1OL    C113 3842   4.246   3.880   5.360 -0.1255 -0.4206 -0.1570
    1OL    H13R 3843   4.174   3.931   5.296  1.5141  0.0653 -1.6969
    1OL    H13S 3844   4.188   3.832   5.439  0.0833 -1.7722 -0.7917
    1OL    C114 3845   4.309   3.771   5.271  0.2391  0.2510  0.3609
    1OL    H14R 3846   4.229   3.696   5.268 -0.2974  0.7810  1.1409
    1OL    H14S 3847   4.397   3.724   5.315  0.5174  0.7965  0.3902
    1OL    C115 3848   4.343   3.815   5.128 -0.1261 -0.0195 -0.2768
    1OL    H15R 3849   4.418   3.894   5.138  2.7553 -2.2389 -2.3105
    1OL    H15S 3850   4.253   3.861   5.087 -1.9197 -1.2438  2.1021
    1OL    C116 3851   4.402   3.712   5.029  0.1280  0.3396 -0.6737
    1OL    H16R 3852   4.429   3.757   4.933 -0.2203 -3.2251 -2.6336
    1OL    H16S 3853   4.321   3.639   5.017  1.4505 -1.6786  1.7443
    1OL    C117 3854   4.510   3.618   5.089  0.0077  0.1205 -0.1115
    1OL    H17R 3855   4.468   3.543   5.156  1.9527  0.4916  1.6246
    1OL    H17S 3856   4.580   3.677   5.149  1.2452 -0.9946 -0.3958
    1OL    C118 3857   4.596   3.550   4.985 -0.9007  0.5226  0.0958
    1OL    H18R 3858   4.546   3.464   4.939  2.2925 -0.3072 -2.1951
    1OL    H18S 3859   4.692   3.507   5.016 -0.1146 -0.1246 -2.9019
    1OL    H18T 3860   4.622   3.615   4.902 -1.1371 -1.5168 -1.6820
    1PA    C116 3861   3.096   4.924   4.949  0.1550  0.3878  0.1838
    1PA    H16R 3862   3.194   4.932   4.902 -0.0107  2.0066  0.0529
    1PA    H16S 3863   3.115   4.906   5.055 -1.1025 -3.1346 -0.0588
    1PA    H16T 3864   3.044   5.020   4.938 -0.2753  0.1170 -0.1736
    1PA    C115 3865   3.025   4.805   4.895  0.2855  0.2126 -0.3253
    1PA    H15R 3866   3.000   4.830   4.791 -2.0528  1.4683  0.4670
    1PA    H15S 3867   3.087   4.715   4.902 -1.8049 -1.1582  4.0619
    1PA    C114 3868   2.894   4.789   4.977  0.0929 -0.3288  0.4034
    1PA    H14R 3869   2.838   4.881   4.959 -1.2311 -1.3105 -0.8116
    1PA    H14S 3870   2.842   4.714   4.916  0.4069  1.3278 -2.0630
    1PA    C113 3871   2.905   4.758   5.131 -0.0275 -0.3034  0.3509
    1PA    H13R 3872   2.957   4.842   5.179  1.9455 -2.1270  1.5772
    1PA    H13S 3873   2.801   4.758   5.163  0.4052 -2.0903  1.9544
    1PA    C112 3874   2.978   4.634   5.179  0.3396  0.2492 -0.0448
    1PA    H12R 3875   2.944   4.537   5.142 -0.5298 -0.7168  3.0056
    1PA    H12S 3876   3.083   4.651   5.157  0.4106  0.2255  0.2703
    1PA    C111 3877   2.971   4.622   5.331 -0.7399  0.1317  0.1352
    1PA    H11R 3878   2.970   4.718   5.384 -1.6583  0.6881 -0.8568
    1PA    H11S 3879   2.878   4.568   5.355 -0.7842  0.5116  0.8417
    1PA    C110 3880   3.082   4.529   5.378  0.4145  0.4135  0.0596
    1PA    H10R 3881   3.066   4.433   5.328 -3.1214  0.9760 -0.1416
    1PA    H10S 3882   3.176   4.568   5.337  0.9576 -1.2543 -0.3907
    1PA     C19 3883   3.072   4.533   5.533 -0.8727 -0.4412 -0.7260
    1PA     H9R 3884   3.084   4.634   5.571  1.6036 -0.4213 -1.3895
    1PA     H9S 3885   2.973   4.493   5.560 -0.8187  0.0338  0.2039
    1PA     C18 3886   3.180   4.447   5.599 -0.0477 -0.0016  0.1922
    1PA     H8R 3887   3.175   4.343   5.565 -1.9583  0.0933  0.1218
    1PA     H8S 3888   3.271   4.496   5.564 -1.4758  2.1818 -0.6202
    1PA     C17 3889   3.185   4.468   5.754  0.3726  0.0353  0.6911
    1PA     H7R 3890   3.285   4.442   5.790 -0.1210 -1.3787  1.1165
    1PA     H7S 3891   3.163   4.572   5.777  0.5362  0.0172  0.9243
    1PA     C16 3892   3.090   4.369   5.826  0.3574  0.5798 -0.1413
    1PA     H6R 3893   2.982   4.384   5.814  0.2471 -1.2019 -1.8038
    1PA     H6S 3894   3.098   4.278   5.767  0.4123  1.4176 -1.4461
    1PA     C15 3895   3.118   4.362   5.981 -0.5815 -0.0495 -0.7276
    1PA     H5R 3896   3.223   4.339   6.000 -0.4181  1.0669 -0.1575
    1PA     H5S 3897   3.110   4.466   6.016 -1.1644 -0.6491  1.0195
    1PA     C14 3898   3.020   4.286   6.060  0.8677  0.0790 -0.1303
    1PA     H4R 3899   3.053   4.301   6.163 -0.9909 -2.9187  1.0532
    1PA     H4S 3900   2.924   4.334   6.040  0.3516 -0.4006  1.0940
    1PA     C13 3901   3.008   4.139   6.036 -0.0765 -0.3956  0.3970
    1PA     H3R 3902   2.962   4.121   5.938 -0.2247 -0.6409  0.5127
    1PA     H3S 3903   3.110   4.100   6.032 -0.5012 -1.5476  0.3846
    1PA     C12 3904   2.927   4.058   6.142  0.1288 -0.0433  0.1555
    1PA     H2R 3905   2.823   4.092   6.152 -0.2864 -1.7455  2.4496
    1PA     H2S 3906   2.918   3.952   6.117  0.0932  0.4757 -2.3387
    1PC     C11 3907   2.987   4.062   6.282  0.1778  0.1661 -0.3698
    1PC     O12 3908   3.102   4.088   6.307  0.6844  0.3769  0.1423
    1PC     O11 3909   2.891   4.021   6.367 -0.5628 -0.0665 -0.5261
    1PC      C1 3910   2.926   4.023   6.515 -0.3728  0.4945  0.4818
    1PC      HR 3911   3.025   3.979   6.529  0.6724  3.0566  1.9351
    1PC      HS 3912   2.948   4.126   6.547 -1.9938 -0.1470  4.1243
    1PC      C2 3913   2.811   3.969   6.601 -0.0788 -0.6131  0.5149
    1PC      HX 3914   2.730   4.043   6.600  1.0614  0.6573  0.3385
    1PC      C3 3915   2.853   3.961   6.753  0.3925  0.1071  0.5906
    1PC      HA 3916   2.775   3.906   6.806 -1.9326  0.4242 -2.2134
    1PC      HB 3917   2.947   3.910   6.777 -0.4799 -1.3364  1.0908
    1PC     O31 3918   2.874   4.088   6.818 -0.3851 -0.6495 -0.0248
    1PC     P31 3919   2.755   4.180   6.866 -0.0168 -0.3193  0.0512
    1PC     O32 3920   2.686   4.090   6.977 -0.3769  0.1106 -0.0345
    1PC     C31 3921   2.743   4.072   7.107 -0.5135 -0.6444  0.8226
    1PC     H1A 3922   2.709   3.975   7.144 -1.0204 -0.7264  0.1717
    1PC     H1B 3923   2.851   4.085   7.105 -0.3580 -1.9199 -0.9176
    1PC     C32 3924   2.684   4.171   7.203 -0.4849  0.2195 -1.2543
    1PC     H2A 3925   2.721   4.272   7.184 -1.5771  1.4882  2.5222
    1PC     H2B 3926   2.576   4.168   7.192 -0.8244  0.3668  1.4503
    1PC     N31 3927   2.714   4.138   7.352  0.2278  0.3538  0.1171
    1PC     C33 3928   2.695   3.993   7.392  0.0102  0.0251 -0.1884
    1PC     H3A 3929   2.590   3.971   7.372 -0.3918 -0.4411  2.1642
    1PC     H3B 3930   2.758   3.929   7.331  0.6691  1.3498 -0.9351
    1PC     H3C 3931   2.725   3.979   7.496  0.1716  2.8573  0.2328
    1PC     C34 3932   2.854   4.185   7.375  0.6341 -0.2665 -0.0016
    1PC     H4A 3933   2.922   4.130   7.309  0.8332 -0.5005  0.3996
    1PC     H4B 3934   2.844   4.289   7.345  1.5615 -0.0270  0.4806
    1PC     H4C 3935   2.866   4.176   7.483  0.9478 -1.3810 -0.1210
    1PC     C35 3936   2.612   4.207   7.438  0.1107 -0.3700  0.6178
    1PC     H5A 3937   2.514   4.167   7.411  0.4191 -1.6006  1.2277
    1PC     H5B 3938   2.616   4.315   7.425  0.7540 -0.3429  0.9586
    1PC     H5C 3939   2.628   4.183   7.544  2.0661  0.1907  0.4989
    1PC     O33 3940   2.801   4.305   6.927 -0.3289  0.8827 -0.8087
    1PC     O34 3941   2.659   4.190   6.749  0.3530  0.2519  0.1075
    1PC     O21 3942   2.776   3.838   6.544 -0.0526 -0.1824  0.3169
    1PC     C21 3943   2.683   3.835   6.445  0.1577  0.0312 -0.7939
    1PC     O22 3944   2.608   3.927   6.425 -0.1253 -0.0865  0.3584
    1OL     C12 3945   2.671   3.703   6.379  0.0037 -0.3095  0.4736
    1OL     H2R 3946   2.564   3.693   6.358  0.5799 -0.5281 -2.8849
    1OL     H2S 3947   2.698   3.623   6.448  1.0821 -0.7098 -0.3801
    1OL     C13 3948   2.741   3.684   6.238  0.3909  0.2488  0.7686
    1OL     H3R 3949   2.712   3.761   6.167  1.0003 -0.3800 -0.1709
    1OL     H3S 3950   2.689   3.593   6.205 -0.1724  0.7482  0.2423
    1OL     C14 3951   2.894   3.667   6.260  0.6339 -0.2028 -0.4323
    1OL     H4R 3952   2.910   3.583   6.329  0.3258 -0.4989 -0.7187
    1OL     H4S 3953   2.941   3.753   6.309  3.2675 -1.8276  0.1459
    1OL     C15 3954   2.975   3.627   6.137 -0.4234  0.0562  0.3253
    1OL     H5R 3955   2.955   3.699   6.057 -1.9819 -0.1713  0.4725
    1OL     H5S 3956   2.942   3.527   6.107  1.4422 -1.0852  1.8852
    1OL     C16 3957   3.126   3.626   6.169 -0.2193 -0.2757  0.4559
    1OL     H6R 3958   3.140   3.565   6.259 -0.0395  0.3298  0.8467
    1OL     H6S 3959   3.157   3.727   6.197  2.6531 -0.5283 -1.4214
    1OL     C17 3960   3.210   3.571   6.056  0.2966 -0.4782  0.2628
    1OL     H7R 3961   3.201   3.646   5.977  3.2418  2.7454  2.6867
    1OL     H7S 3962   3.166   3.479   6.016 -1.7461 -0.1191  1.5258
    1OL     C18 3963   3.358   3.564   6.088 -0.9048  0.0656 -0.1412
    1OL     H8R 3964   3.392   3.665   6.109  0.3787  0.1711 -2.4328
    1OL     H8S 3965   3.410   3.524   6.000  1.0462  0.1920  0.9097
    1OL     C19 3966   3.382   3.473   6.204 -0.5658  0.2365 -0.2041
    1OL     H9R 3967   3.290   3.446   6.254 -0.9219 -0.4618 -1.1961
    1OL    C110 3968   3.505   3.457   6.249 -0.7845  0.7670  0.4747
    1OL    H10R 3969   3.528   3.402   6.340 -0.1676 -0.1100 -0.1946
    1OL    C111 3970   3.627   3.510   6.188 -0.8919  0.4378 -0.2945
    1OL    H11R 3971   3.643   3.610   6.228 -0.7153  0.6402 -0.8599
    1OL    H11S 3972   3.615   3.519   6.080  0.2663 -0.4421 -0.5206
    1OL    C112 3973   3.749   3.423   6.219  0.4907  0.9114  0.1651
    1OL    H12R 3974   3.738   3.328   6.165 -2.4011  1.6197 -0.7064
    1OL    H12S 3975   3.759   3.397   6.325 -0.7422  1.1865  0.3679
    1OL    C113 3976   3.884   3.491   6.185  0.0508  0.1536  0.0769
    1OL    H13R 3977   3.963   3.419   6.206 -0.6474 -1.1544 -1.5333
    1OL    H13S 3978   3.911   3.570   6.255 -0.7067 -0.1629  0.7416
    1OL    C114 3979   3.901   3.536   6.038 -0.2955  0.3310  0.1065
    1OL    H14R 3980   3.822   3.605   6.007 -1.6155 -1.0519  0.2522
    1OL    H14S 3981   3.899   3.459   5.961  0.9848 -0.0255  0.4042
    1OL    C115 3982   4.035   3.609   6.012 -0.4810  0.6089  0.0952
    1OL    H15R 3983   4.030   3.709   6.054 -2.3258  0.2204  0.8888
    1OL    H15S 3984   4.042   3.616   5.903 -0.0033  0.2357  0.0953
    1OL    C116 3985   4.159   3.533   6.060  0.0774 -0.2153  0.0230
    1OL    H16R 3986   4.158   3.431   6.020 -0.5039  0.2202 -1.1030
    1OL    H16S 3987   4.151   3.526   6.169 -1.9379  0.7080 -0.0253
    1OL    C117 3988   4.295   3.601   6.020  0.0731 -0.1912 -0.1562
    1OL    H17R 3989   4.309   3.692   6.079  1.8758 -1.2321  1.1476
    1OL    H17S 3990   4.289   3.641   5.919 -1.5403  1.8244  0.6689
    1OL    C118 3991   4.418   3.512   6.046  0.7390  0.5019 -0.1960
    1OL    H18R 3992   4.406   3.417   5.994 -3.1151 -0.4207  1.9361
    1OL    H18S 3993   4.420   3.504   6.155  1.8536  2.4001 -0.0301
    1OL    H18T 3994   4.521   3.539   6.022  0.9387 -0.4174 -0.3912
    1PA    C116 3995   3.932   4.894   5.782  0.3139 -0.1237  0.1410
    1PA    H16R 3996   3.891   4.989   5.746 -0.1787 -1.1449 -2.1110
    1PA    H16S 3997   4.032   4.880   5.741  1.5304  1.9451  2.1339
    1PA    H16T 3998   3.942   4.900   5.891 -0.5167 -0.2051  0.2307
    1PA    C115 3999   3.832   4.791   5.729 -0.3662 -0.0461  0.1058
    1PA    H15R 4000   3.839   4.797   5.620  0.8353  0.8389  0.2129
    1PA    H15S 4001   3.869   4.693   5.759 -0.2204  0.1724  0.6395
    1PA    C114 4002   3.690   4.813   5.781  0.0634  0.7035 -0.4685
    1PA    H14R 4003   3.663   4.914   5.749  0.9913  0.6327 -1.5312
    1PA    H14S 4004   3.623   4.743   5.730  1.6889 -2.3507  1.3048
    1PA    C113 4005   3.670   4.800   5.933  0.3151 -0.0026  0.3671
    1PA    H13R 4006   3.685   4.696   5.963  2.6870 -0.0270 -0.6806
    1PA    H13S 4007   3.744   4.856   5.990  1.6928 -1.1308 -0.2383
    1PA    C112 4008   3.536   4.857   5.976  0.0111 -0.1512 -0.4759
    1PA    H12R 4009   3.467   4.773   5.965 -1.4467  1.0007 -0.3565
    1PA    H12S 4010   3.528   4.884   6.082 -3.4781  0.9679 -0.9207
    1PA    C111 4011   3.497   4.994   5.913  0.3449 -0.1467 -0.5690
    1PA    H11R 4012   3.464   4.975   5.810  0.2821  0.9807 -0.7649
    1PA    H11S 4013   3.404   5.018   5.964 -0.9228 -1.3987 -2.1735
    1PA    C110 4014   3.603   5.103   5.936 -0.0844  0.3421  0.0820
    1PA    H10R 4015   3.701   5.064   5.911  0.9097  1.7016  1.6467
    1PA    H10S 4016   3.580   5.194   5.881  2.6612  2.4149  2.0850
    1PA     C19 4017   3.625   5.156   6.080  0.4045 -0.3648  0.1475
    1PA     H9R 4018   3.532   5.180   6.132  0.4046  0.5939 -0.2891
    1PA     H9S 4019   3.671   5.078   6.142  3.4349  0.1842 -1.2641
    1PA     C18 4020   3.723   5.270   6.095  0.2242  0.7285  0.8753
    1PA     H8R 4021   3.663   5.360   6.075  0.6147  0.7194 -0.3994
    1PA     H8S 4022   3.747   5.273   6.202 -0.1808 -1.0174  1.0497
    1PA     C17 4023   3.854   5.269   6.018 -0.3775 -0.8319 -0.0433
    1PA     H7R 4024   3.844   5.253   5.910  0.9968  3.1848 -0.9476
    1PA     H7S 4025   3.896   5.369   6.029 -0.6921 -0.4770 -1.7561
    1PA     C16 4026   3.963   5.164   6.064 -1.0731  0.3385  0.1356
    1PA     H6R 4027   3.923   5.066   6.037  0.0401 -0.9891  3.0108
    1PA     H6S 4028   4.051   5.175   5.999 -1.1002  2.8416  0.4528
    1PA     C15 4029   4.004   5.161   6.208 -0.7543 -0.3018 -0.4475
    1PA     H5R 4030   3.914   5.137   6.266 -1.0885 -1.1382 -1.2839
    1PA     H5S 4031   4.074   5.078   6.219 -0.1879  0.2538  0.1398
    1PA     C14 4032   4.066   5.296   6.260  0.4248  0.1954  0.1935
    1PA     H4R 4033   4.147   5.334   6.198  1.3751 -0.0500  1.2646
    1PA     H4S 4034   3.990   5.375   6.264  2.3943  2.4273 -2.4513
    1PA     C13 4035   4.111   5.287   6.407  0.3287  0.5770  0.0980
    1PA     H3R 4036   4.196   5.219   6.416  0.0265  0.3337  1.2777
    1PA     H3S 4037   4.138   5.386   6.446 -0.9991  0.1397  2.2683
    1PA     C12 4038   3.997   5.232   6.497  1.2200  0.1780 -0.2646
    1PA     H2R 4039   3.900   5.263   6.458  0.6427 -1.3236 -0.0752
    1PA     H2S 4040   4.000   5.123   6.492 -2.1227 -0.1278  1.6541
    1PC     C11 4041   4.010   5.280   6.632  0.6935 -0.7519  0.3799
    1PC     O12 4042   4.014   5.209   6.731 -0.3716 -0.2550 -0.0484
    1PC     O11 4043   3.980   5.414   6.643 -0.2887  0.3984 -0.0556
    1PC      C1 4044   3.994   5.478   6.771  0.2852 -0.3075 -0.3687
    1PC      HR 4045   3.926   5.563   6.762 -0.2204 -0.7466 -0.7532
    1PC      HS 4046   3.948   5.415   6.848 -1.5231 -1.0110 -1.9417
    1PC      C2 4047   4.134   5.525   6.805 -0.2419 -0.2752 -0.1784
    1PC      HX 4048   4.211   5.448   6.798 -0.0756 -0.1994  0.6460
    1PC      C3 4049   4.140   5.569   6.954 -0.3863  0.5772  1.4886
    1PC      HA 4050   4.148   5.480   7.018  2.4647  0.2685  0.8315
    1PC      HB 4051   4.228   5.632   6.971  1.5214 -1.4124 -0.3101
    1PC     O31 4052   4.021   5.637   6.998 -0.0809 -0.2846  0.3004
    1PC     P31 4053   4.004   5.658   7.150 -0.3204  0.2160  0.1645
    1PC     O32 4054   3.931   5.527   7.203  0.4362 -0.1710  0.1092
    1PC     C31 4055   3.792   5.507   7.175  0.3341  0.0999  0.2503
    1PC     H1A 4056   3.737   5.583   7.231 -3.3809 -1.6228 -0.6969
    1PC     H1B 4057   3.758   5.530   7.074  1.7210  0.2272 -0.1987
    1PC     C32 4058   3.756   5.368   7.231  0.1946 -0.1564 -0.6811
    1PC     H2A 4059   3.800   5.288   7.171  0.0212  0.5952 -1.8493
    1PC     H2B 4060   3.806   5.358   7.327 -1.2036  1.9219  0.3436
    1PC     N31 4061   3.612   5.343   7.274  0.0343 -0.3703  0.3345
    1PC     C33 4062   3.599   5.394   7.411  0.0079  0.2475 -0.1846
    1PC     H3A 4063   3.492   5.377   7.429  0.1928 -0.6567  0.1018
    1PC     H3B 4064   3.656   5.332   7.480 -1.3716 -0.7369  0.1299
    1PC     H3C 4065   3.628   5.499   7.416 -1.3061  0.6845 -1.1538
    1PC     C34 4066   3.523   5.416   7.175 -1.0320  0.0125 -0.4400
    1PC     H4A 4067   3.424   5.392   7.214 -0.5986 -0.8077  0.1835
    1PC     H4B 4068   3.546   5.522   7.184 -1.2357 -0.0566  1.2532
    1PC     H4C 4069   3.538   5.378   7.074 -1.5910 -0.5200 -0.3294
    1PC     C35 4070   3.592   5.193   7.263  0.2727 -0.2118 -1.0669
    1PC     H5A 4071   3.670   5.158   7.331 -0.9204  0.4264  0.6956
    1PC     H5B 4072   3.598   5.169   7.157 -1.5176 -2.1695 -0.7922
    1PC     H5C 4073   3.491   5.165   7.294 -0.4952  3.8232  0.7055
    1PC     O33 4074   4.132   5.670   7.218 -0.3733  0.2796 -0.1355
    1PC     O34 4075   3.909   5.770   7.164  0.8235 -0.5448 -0.4319
    1PC     O21 4076   4.166   5.644   6.720 -0.0667  0.7938 -0.6788
    1PC     C21 4077   4.247   5.624   6.617 -0.5587  0.1282 -0.2306
    1PC     O22 4078   4.286   5.512   6.587 -0.1495 -0.2383  0.1344
    1OL     C12 4079   4.287   5.745   6.537 -0.0206  0.4172  0.3095
    1OL     H2R 4080   4.361   5.800   6.596  1.0967 -2.9802  2.3411
    1OL     H2S 4081   4.194   5.802   6.532  0.0207  0.3831 -1.8574
    1OL     C13 4082   4.344   5.719   6.392 -0.1949 -0.1965  0.7535
    1OL     H3R 4083   4.436   5.661   6.398 -0.0706  0.1228  2.3643
    1OL     H3S 4084   4.367   5.821   6.363  0.2214  0.7119  3.8534
    1OL     C14 4085   4.242   5.659   6.298  0.0188 -0.3595  0.4026
    1OL     H4R 4086   4.162   5.728   6.271  0.8895 -0.0009 -1.4139
    1OL     H4S 4087   4.202   5.569   6.345  0.2095 -0.5768  0.1548
    1OL     C15 4088   4.309   5.622   6.162  0.1117 -0.0061 -0.4744
    1OL     H5R 4089   4.220   5.594   6.105 -1.7714  1.3315  1.6470
    1OL     H5S 4090   4.382   5.541   6.176 -0.4542 -0.2796  1.0917
    1OL     C16 4091   4.387   5.743   6.093  0.4847  0.5234  0.1619
    1OL     H6R 4092   4.480   5.757   6.148 -0.1903  0.7891  1.2603
    1OL     H6S 4093   4.324   5.831   6.108  1.2146  0.9173  0.9771
    1OL     C17 4094   4.403   5.714   5.948  0.0454  0.0465  0.0889
    1OL     H7R 4095   4.313   5.678   5.899  1.1074 -1.7933 -0.6170
    1OL     H7S 4096   4.475   5.632   5.945  0.3401  0.1131  2.8179
    1OL     C18 4097   4.455   5.837   5.870  0.0953  0.6152 -0.0959
    1OL     H8R 4098   4.552   5.876   5.902  0.2230  0.5446 -0.3960
    1OL     H8S 4099   4.376   5.910   5.886  0.0823  0.6775 -0.4282
    1OL     C19 4100   4.475   5.801   5.719 -0.4320 -0.3975 -0.7812
    1OL     H9R 4101   4.524   5.704   5.710  1.3410  0.0512  2.3835
    1OL    C110 4102   4.444   5.879   5.621 -0.0368  0.2337 -0.2356
    1OL    H10R 4103   4.466   5.844   5.520 -1.7560 -0.9055 -0.2527
    1OL    C111 4104   4.389   6.016   5.632  0.7079 -0.0283  0.2744
    1OL    H11R 4105   4.459   6.086   5.678  0.3008  0.6266 -0.0872
    1OL    H11S 4106   4.297   6.012   5.692 -0.8280 -1.2972 -2.0028
    1OL    C112 4107   4.348   6.073   5.493  0.0931 -0.4238 -0.7431
    1OL    H12R 4108   4.312   6.174   5.515  2.3346 -0.0704  1.7830
    1OL    H12S 4109   4.272   6.014   5.440 -0.3660  0.5023 -1.1406
    1OL    C113 4110   4.455   6.091   5.390  0.5083  0.0701 -0.0100
    1OL    H13R 4111   4.521   6.005   5.381  0.9666 -0.0440  3.4226
    1OL    H13S 4112   4.516   6.177   5.418  1.8144 -0.7932 -0.1366
    1OL    C114 4113   4.395   6.118   5.248  0.4153 -0.5771 -0.1239
    1OL    H14R 4114   4.325   6.202   5.246  0.4683 -0.5364 -1.2704
    1OL    H14S 4115   4.320   6.045   5.218 -2.1142  1.8960 -0.2514
    1OL    C115 4116   4.505   6.126   5.144 -0.9244  0.2796 -0.2393
    1OL    H15R 4117   4.575   6.044   5.162 -1.8634 -0.3015  0.8507
    1OL    H15S 4118   4.566   6.212   5.172  0.9069 -1.5603  1.8527
    1OL    C116 4119   4.465   6.152   4.995 -0.0666  0.1495  0.0298
    1OL    H16R 4120   4.399   6.239   4.993  0.3995  0.5386  0.7423
    1OL    H16S 4121   4.414   6.065   4.954 -0.4138  0.4458 -0.1640
    1OL    C117 4122   4.588   6.182   4.898  0.0754 -0.3903  0.5097
    1OL    H17R 4123   4.618   6.285   4.919 -0.3048 -0.0181 -0.6636
    1OL    H17S 4124   4.567   6.181   4.790 -0.2493  0.8681  0.5485
    1OL    C118 4125   4.711   6.087   4.923  0.3839 -0.1909  0.1757
    1OL    H18R 4126   4.696   5.988   4.879 -1.0284  0.6967 -1.4695
    1OL    H18S 4127   4.739   6.065   5.026 -0.7562 -4.5808 -0.2210
    1OL    H18T 4128   4.804   6.130   4.885 -0.5967  1.1316 -0.8191
    1PA    C116 4129   0.998   0.085   5.243  0.5410 -0.2434  0.0043
    1PA    H16R 4130   0.924   0.165   5.247 -0.1738 -0.9071  0.1237
    1PA    H16S 4131   0.949  -0.005   5.207 -1.5410  1.1410 -0.8071
    1PA    H16T 4132   1.073   0.121   5.172 -1.3468  1.8374 -1.0638
    1PA    C115 4133   1.057   0.078   5.390  0.6865 -0.7712 -0.0911
    1PA    H15R 4134   0.971   0.063   5.456  2.0117  0.6742  2.0960
    1PA    H15S 4135   1.139   0.006   5.381  1.2205 -0.0282 -1.5153
    1PA    C114 4136   1.125   0.213   5.421 -1.2686  0.2994  0.8735
    1PA    H14R 4137   1.214   0.243   5.365 -1.4662 -0.7268 -0.0204
    1PA    H14S 4138   1.052   0.293   5.407 -0.0645  1.3220  0.2624
    1PA    C113 4139   1.172   0.218   5.567  0.2262 -0.1050 -0.0408
    1PA    H13R 4140   1.260   0.154   5.574  0.2308 -0.5160 -2.6533
    1PA    H13S 4141   1.209   0.320   5.581 -0.7781  0.2148  0.3782
    1PA    C112 4142   1.059   0.185   5.675 -0.2690 -0.2775  0.3069
    1PA    H12R 4143   0.979   0.256   5.651  0.7808  1.1087  0.7344
    1PA    H12S 4144   1.017   0.085   5.666 -0.0262 -0.2681 -1.0522
    1PA    C111 4145   1.092   0.206   5.820  0.4356 -0.0962 -0.4568
    1PA    H11R 4146   1.104   0.314   5.833  1.3604 -0.1891 -0.5345
    1PA    H11S 4147   1.002   0.173   5.873  1.2486 -0.8084  0.5087
    1PA    C110 4148   1.216   0.134   5.871 -0.2045  0.0062  0.6815
    1PA    H10R 4149   1.202   0.119   5.978  1.3333 -0.2262  0.8795
    1PA    H10S 4150   1.225   0.038   5.820  0.6034  0.5615 -0.2731
    1PA     C19 4151   1.343   0.218   5.850 -0.3195 -0.2047  0.5632
    1PA     H9R 4152   1.356   0.251   5.747  1.6375 -0.5398  0.6613
    1PA     H9S 4153   1.340   0.304   5.918 -2.2042  1.2736 -1.2766
    1PA     C18 4154   1.456   0.113   5.887 -0.6657 -0.2933  0.7421
    1PA     H8R 4155   1.447   0.089   5.993  0.5164  1.0832  1.1822
    1PA     H8S 4156   1.449   0.018   5.833  0.2596 -0.3213  0.6640
    1PA     C17 4157   1.603   0.168   5.846  0.4655  0.2914 -0.0124
    1PA     H7R 4158   1.598   0.223   5.752  0.7110 -1.8679 -1.3694
    1PA     H7S 4159   1.631   0.239   5.924 -1.7314  0.1028  1.0510
    1PA     C16 4160   1.712   0.057   5.842  0.4603 -0.2327 -0.7462
    1PA     H6R 4161   1.671  -0.029   5.788 -0.9452  0.6458 -1.1374
    1PA     H6S 4162   1.802   0.100   5.796  0.6886  1.0719  0.8189
    1PA     C15 4163   1.744   0.007   5.987 -0.2900  0.1757  0.6660
    1PA     H5R 4164   1.821   0.075   6.025  2.3001 -2.4739  0.5046
    1PA     H5S 4165   1.654   0.013   6.048 -0.9316  2.9393 -0.3876
    1PA     C14 4166   1.810  -0.136   6.003 -0.1732 -0.7780 -0.5112
    1PA     H4R 4167   1.753  -0.220   5.963 -0.3075 -0.4950 -0.9156
    1PA     H4S 4168   1.909  -0.128   5.958  0.3134  2.7308  0.8903
    1PA     C13 4169   1.821  -0.157   6.163  0.2654 -1.2388  0.0930
    1PA     H3R 4170   1.846  -0.064   6.213  0.2497 -1.6284  0.8385
    1PA     H3S 4171   1.727  -0.193   6.205 -0.9751  0.0253 -1.5014
    1PA     C12 4172   1.940  -0.250   6.195 -0.3093 -0.2380  0.2501
    1PA     H2R 4173   1.952  -0.324   6.116  1.1411 -0.2448  0.4511
    1PA     H2S 4174   2.029  -0.188   6.185 -0.2681 -0.4096 -0.4964
    1PC     C11 4175   1.922  -0.324   6.325 -0.5164 -0.6428 -0.0728
    1PC     O12 4176   1.818  -0.330   6.390 -0.2125  0.1052 -0.0739
    1PC     O11 4177   2.038  -0.377   6.360 -0.1855 -0.1346  0.1766
    1PC      C1 4178   2.042  -0.439   6.488 -0.3350 -0.0314  0.4666
    1PC      HR 4179   2.147  -0.438   6.518 -0.5885  0.2990  1.3677
    1PC      HS 4180   1.981  -0.391   6.565  0.5590  1.3700  0.3333
    1PC      C2 4181   1.994  -0.582   6.493  0.1497  0.7276  0.9050
    1PC      HX 4182   1.897  -0.588   6.443  0.5067 -2.9531  0.3637
    1PC      C3 4183   2.003  -0.647   6.633 -0.2974 -0.5456  0.5382
    1PC      HA 4184   1.931  -0.594   6.695 -2.4632 -3.4734  0.7421
    1PC      HB 4185   1.981  -0.754   6.627  0.4205 -0.6975  0.6087
    1PC     O31 4186   2.140  -0.631   6.681  0.2942  1.2626  0.1492
    1PC     P31 4187   2.169  -0.614   6.827 -0.3910 -0.2070 -0.0787
    1PC     O32 4188   2.160  -0.765   6.878  0.3484  0.4363 -0.2677
    1PC     C31 4189   2.043  -0.823   6.940 -0.0072  0.7804 -0.1770
    1PC     H1A 4190   1.959  -0.811   6.871 -0.5007  4.8595  0.9000
    1PC     H1B 4191   2.063  -0.930   6.955  0.4856  0.6355 -1.7546
    1PC     C32 4192   2.009  -0.757   7.078  0.1214  0.0684  0.1518
    1PC     H2A 4193   2.074  -0.779   7.162 -0.8465  0.6774  1.0900
    1PC     H2B 4194   1.993  -0.651   7.059 -1.0965 -0.5197 -2.5690
    1PC     N31 4195   1.872  -0.794   7.137 -0.2789  0.8044  0.5075
    1PC     C33 4196   1.763  -0.736   7.055  0.3435  0.2328 -0.1680
    1PC     H3A 4197   1.754  -0.629   7.074 -1.0294 -0.0396  0.8746
    1PC     H3B 4198   1.785  -0.755   6.950 -0.2063  3.2091 -0.8996
    1PC     H3C 4199   1.670  -0.785   7.084  1.5024 -1.9436  0.0650
    1PC     C34 4200   1.854  -0.949   7.140 -1.0681 -1.1773  0.0010
    1PC     H4A 4201   1.861  -0.990   7.039 -0.8952 -2.0968  0.3805
    1PC     H4B 4202   1.933  -0.992   7.200 -0.7969  0.1404  0.6340
    1PC     H4C 4203   1.751  -0.972   7.168 -2.3977  0.2423 -3.2058
    1PC     C35 4204   1.856  -0.731   7.275 -0.6186  0.1189 -0.4126
    1PC     H5A 4205   1.883  -0.625   7.269  1.5206 -0.3739 -0.1557
    1PC     H5B 4206   1.923  -0.787   7.340 -0.8162  0.6535  0.2698
    1PC     H5C 4207   1.755  -0.752   7.312 -0.8491  3.7244  1.4907
    1PC     O33 4208   2.310  -0.573   6.842 -0.3494 -0.1816 -0.0876
    1PC     O34 4209   2.060  -0.535   6.897 -0.7203  0.1911  0.0511
    1PC     O21 4210   2.087  -0.653   6.410  0.3729 -0.1116 -0.3615
    1PC     C21 4211   2.039  -0.753   6.331 -0.1884  0.2837 -0.3720
    1PC     O22 4212   1.937  -0.810   6.345  0.0146  0.0209 -0.4318
    1OL     C12 4213   2.128  -0.768   6.212  0.2331 -0.1161  1.0060
    1OL     H2R 4214   2.164  -0.870   6.196  0.4966 -0.0703  1.2898
    1OL     H2S 4215   2.222  -0.713   6.225  1.4670 -1.9129 -0.0077
    1OL     C13 4216   2.058  -0.717   6.081 -0.4962 -0.7971 -0.1449
    1OL     H3R 4217   2.034  -0.611   6.096  0.3361 -0.9037  2.3791
    1OL     H3S 4218   1.964  -0.770   6.064 -0.7199 -0.9603  1.4238
    1OL     C14 4219   2.152  -0.738   5.960 -0.3515  0.4605 -0.2509
    1OL     H4R 4220   2.186  -0.841   5.957  0.4377  0.6994  0.1096
    1OL     H4S 4221   2.236  -0.668   5.969  0.7699 -0.7584 -0.9040
    1OL     C15 4222   2.070  -0.704   5.841 -0.1042 -0.3076 -0.8331
    1OL     H5R 4223   2.026  -0.606   5.860  1.8092  0.4323  0.0581
    1OL     H5S 4224   1.993  -0.782   5.836 -1.7978  1.2994 -0.9377
    1OL     C16 4225   2.163  -0.712   5.722  0.0501 -0.5626 -1.0451
    1OL     H6R 4226   2.188  -0.816   5.701  2.0283 -0.4733  0.5577
    1OL     H6S 4227   2.259  -0.667   5.747 -0.1582 -0.1786 -0.9131
    1OL     C17 4228   2.107  -0.637   5.601  0.6980  0.6745 -0.8402
    1OL     H7R 4229   2.090  -0.531   5.620 -1.2905  0.1171  0.9677
    1OL     H7S 4230   2.010  -0.673   5.565  0.2400  0.7282  0.2872
    1OL     C18 4231   2.187  -0.661   5.471  0.0927  0.3250  0.8617
    1OL     H8R 4232   2.288  -0.624   5.488  0.5046  0.0290 -0.8232
    1OL     H8S 4233   2.143  -0.606   5.388 -0.2846  1.0805  1.5411
    1OL     C19 4234   2.170  -0.809   5.432  0.0349  0.1219  0.1466
    1OL     H9R 4235   2.072  -0.851   5.410 -0.0318 -1.1473  2.5057
    1OL    C110 4236   2.271  -0.888   5.406  0.0986 -0.0082 -0.2005
    1OL    H10R 4237   2.249  -0.990   5.376  0.0685 -0.4714  1.2827
    1OL    C111 4238   2.415  -0.869   5.440  0.6474 -0.6472  0.0820
    1OL    H11R 4239   2.452  -0.959   5.490 -2.2927 -1.2396  1.4074
    1OL    H11S 4240   2.422  -0.790   5.515 -0.3435  1.3331 -1.7788
    1OL    C112 4241   2.502  -0.834   5.311 -0.1819 -0.1790 -0.0859
    1OL    H12R 4242   2.602  -0.814   5.349 -0.6906  1.6164  0.4260
    1OL    H12S 4243   2.460  -0.742   5.269 -0.1440 -0.2284 -0.2336
    1OL    C113 4244   2.506  -0.947   5.206  0.0613  0.0274 -1.0776
    1OL    H13R 4245   2.414  -0.967   5.150 -0.3625 -0.6885 -0.1399
    1OL    H13S 4246   2.540  -1.034   5.263  2.8098  0.8028 -1.3657
    1OL    C114 4247   2.612  -0.925   5.099 -0.4094  0.2034 -0.3693
    1OL    H14R 4248   2.607  -0.999   5.019  0.6468 -0.8448  0.4871
    1OL    H14S 4249   2.712  -0.927   5.144 -0.6422  2.0452  0.3325
    1OL    C115 4250   2.612  -0.784   5.035  0.3364  0.3575 -0.2405
    1OL    H15R 4251   2.687  -0.782   4.956  0.3463 -0.7250 -0.2749
    1OL    H15S 4252   2.637  -0.716   5.118 -3.0218 -0.0025  1.2376
    1OL    C116 4253   2.484  -0.720   4.978  0.5333 -0.0302 -0.0403
    1OL    H16R 4254   2.417  -0.698   5.061 -1.4089 -0.7428 -1.3606
    1OL    H16S 4255   2.426  -0.793   4.923  0.9040 -0.3247 -0.0421
    1OL    C117 4256   2.505  -0.597   4.887 -0.0657  0.1017 -0.1092
    1OL    H17R 4257   2.586  -0.534   4.925  0.9482 -0.9820 -0.4380
    1OL    H17S 4258   2.410  -0.544   4.889 -0.7396 -1.1100  1.0021
    1OL    C118 4259   2.529  -0.640   4.744 -0.6289  0.3155 -0.7323
    1OL    H18R 4260   2.623  -0.695   4.733 -1.1609 -1.0679  1.2249
    1OL    H18S 4261   2.531  -0.549   4.683  1.4689  3.0976  3.0726
    1OL    H18T 4262   2.451  -0.707   4.706 -2.5635  2.9609 -1.7137
    1PA    C116 4263   1.754   4.966   5.677 -0.5005 -0.1381  0.3302
    1PA    H16R 4264   1.838   5.021   5.720 -1.5909  1.2971  0.6971
    1PA    H16S 4265   1.684   4.962   5.760  1.7827 -0.9358  2.3202
    1PA    H16T 4266   1.702   5.027   5.603  0.2691 -0.5487 -0.5841
    1PA    C115 4267   1.786   4.818   5.636 -0.2838  0.3353 -0.0020
    1PA    H15R 4268   1.862   4.806   5.559  0.4744  0.8008  0.6504
    1PA    H15S 4269   1.814   4.754   5.720 -2.3703 -1.5101 -0.6346
    1PA    C114 4270   1.656   4.750   5.592  0.5346 -0.2381 -0.2151
    1PA    H14R 4271   1.566   4.778   5.647 -0.5248 -1.5116 -1.2109
    1PA    H14S 4272   1.625   4.786   5.493  1.5776  0.8751 -0.1529
    1PA    C113 4273   1.669   4.592   5.576 -0.0450 -0.3699 -0.4877
    1PA    H13R 4274   1.579   4.539   5.546  0.1568 -1.2344  0.3619
    1PA    H13S 4275   1.749   4.573   5.504  1.7386  2.5977  0.4893
    1PA    C112 4276   1.701   4.522   5.709  0.5731  0.0137  0.1592
    1PA    H12R 4277   1.700   4.415   5.686  0.0324  0.2166 -0.8257
    1PA    H12S 4278   1.798   4.557   5.744  1.1611  0.4123 -1.7396
    1PA    C111 4279   1.600   4.555   5.815  0.3813 -0.1252 -0.5849
    1PA    H11R 4280   1.599   4.662   5.837  1.5995  0.1211 -1.5918
    1PA    H11S 4281   1.503   4.528   5.773 -0.7517 -0.4202  2.0870
    1PA    C110 4282   1.627   4.477   5.946 -0.4048  0.4123  1.0109
    1PA    H10R 4283   1.645   4.371   5.928 -2.8436  0.0823  0.2148
    1PA    H10S 4284   1.723   4.513   5.985  0.0977  0.8540 -0.5698
    1PA     C19 4285   1.518   4.484   6.054 -0.1131 -0.0652 -0.5466
    1PA     H9R 4286   1.433   4.419   6.032 -0.3929  0.5323 -1.2876
    1PA     H9S 4287   1.557   4.457   6.152 -0.9088 -0.9009 -0.4445
    1PA     C18 4288   1.472   4.631   6.074  0.2580  0.0443  0.2832
    1PA     H8R 4289   1.424   4.659   5.980  0.8773 -1.9233 -0.6668
    1PA     H8S 4290   1.398   4.643   6.154 -0.4065  0.7296 -0.4206
    1PA     C17 4291   1.586   4.730   6.103  0.5513  0.8560 -0.3865
    1PA     H7R 4292   1.648   4.681   6.178 -1.4029  0.3847  1.0150
    1PA     H7S 4293   1.643   4.744   6.011 -0.4748 -0.5759 -1.2785
    1PA     C16 4294   1.534   4.864   6.156  0.3888 -0.4270 -0.2303
    1PA     H6R 4295   1.492   4.846   6.255  1.4600 -2.3477 -0.0872
    1PA     H6S 4296   1.619   4.926   6.186  0.5088 -1.3589  1.4294
    1PA     C15 4297   1.432   4.952   6.069 -0.3330 -0.2773 -0.4981
    1PA     H5R 4298   1.488   4.983   5.980 -0.9812  0.1156 -0.7754
    1PA     H5S 4299   1.340   4.902   6.036 -1.0980  0.7248  0.0598
    1PA     C14 4300   1.392   5.076   6.146 -0.2948 -0.4233 -0.3484
    1PA     H4R 4301   1.480   5.107   6.202 -0.1348  0.3243 -0.9978
    1PA     H4S 4302   1.365   5.155   6.076 -0.0359  0.1911  0.2348
    1PA     C13 4303   1.275   5.039   6.249 -0.1748 -0.5905 -0.1037
    1PA     H3R 4304   1.197   4.986   6.194  0.7540  0.0067 -2.0797
    1PA     H3S 4305   1.318   4.973   6.325 -0.3224 -0.1901  0.3286
    1PA     C12 4306   1.213   5.174   6.298 -0.1625 -0.1811  0.2538
    1PA     H2R 4307   1.295   5.226   6.348  0.2569  0.6853 -1.2604
    1PA     H2S 4308   1.189   5.248   6.221  1.2879 -0.9720 -1.0115
    1PC     C11 4309   1.094   5.142   6.389 -0.0170 -0.4624 -0.3482
    1PC     O12 4310   1.097   5.059   6.481  0.4369  0.0425  0.1920
    1PC     O11 4311   0.978   5.206   6.355  0.6550 -0.4346 -0.0732
    1PC      C1 4312   0.877   5.193   6.460 -0.4016 -0.1634 -0.2095
    1PC      HR 4313   0.784   5.180   6.404  0.1024  0.2727 -1.1813
    1PC      HS 4314   0.895   5.106   6.524 -2.7305 -0.8838 -0.4344
    1PC      C2 4315   0.877   5.325   6.540 -0.1615 -0.5412  0.1250
    1PC      HX 4316   0.974   5.359   6.577 -0.3588 -2.5933  2.8997
    1PC      C3 4317   0.792   5.328   6.669 -0.5805 -0.6978 -0.6512
    1PC      HA 4318   0.798   5.429   6.709 -0.7840 -0.5536 -0.9887
    1PC      HB 4319   0.690   5.302   6.640 -0.9387 -0.4080  0.3165
    1PC     O31 4320   0.840   5.230   6.765 -0.4435  0.6018  0.4367
    1PC     P31 4321   0.957   5.253   6.860  0.0623 -0.1194  0.3425
    1PC     O32 4322   0.910   5.344   6.976 -0.0346  0.7571 -0.7950
    1PC     C31 4323   0.915   5.486   6.966  0.1054 -0.4422  0.1223
    1PC     H1A 4324   1.002   5.513   6.905  0.5126 -2.3032 -0.1887
    1PC     H1B 4325   0.828   5.520   6.910 -0.2207  1.4124  1.6834
    1PC     C32 4326   0.932   5.562   7.098  0.1756  0.1170 -0.5152
    1PC     H2A 4327   0.974   5.493   7.171 -2.3615  1.0369  1.9641
    1PC     H2B 4328   0.993   5.652   7.090 -0.2037  0.2715 -2.0954
    1PC     N31 4329   0.806   5.610   7.161 -0.2272 -0.4384  0.0840
    1PC     C33 4330   0.840   5.691   7.282 -0.3459 -0.8985 -0.1479
    1PC     H3A 4331   0.869   5.792   7.253 -2.9267 -0.0433 -0.0920
    1PC     H3B 4332   0.751   5.697   7.346  0.6695  2.7819  1.1868
    1PC     H3C 4333   0.920   5.649   7.342  0.2312 -0.6655 -0.7375
    1PC     C34 4334   0.734   5.704   7.073  0.7861  0.1892 -0.5008
    1PC     H4A 4335   0.653   5.742   7.134  1.0752  2.1745 -1.2823
    1PC     H4B 4336   0.802   5.785   7.045  0.7212 -0.0707 -1.4529
    1PC     H4C 4337   0.693   5.656   6.984 -0.6328 -0.1609  0.3256
    1PC     C35 4338   0.712   5.498   7.200 -0.5285 -0.2405 -0.3996
    1PC     H5A 4339   0.701   5.442   7.108  0.1645 -0.6041 -0.2684
    1PC     H5B 4340   0.622   5.553   7.227  0.7268  1.9691 -0.4202
    1PC     H5C 4341   0.762   5.438   7.276  0.8659  1.0988 -0.2035
    1PC     O33 4342   0.990   5.119   6.910  0.1787  0.0612 -0.5452
    1PC     O34 4343   1.065   5.325   6.783 -0.3758 -0.1930 -0.0724
    1PC     O21 4344   0.828   5.432   6.457 -1.0922 -0.0722 -0.3587
    1PC     C21 4345   0.908   5.513   6.379  0.2807 -0.4699  0.2244
    1PC     O22 4346   1.029   5.499   6.361  0.9106 -0.0502  0.1227
    1OL     C12 4347   0.842   5.641   6.334 -0.3328 -0.7491 -0.0569
    1OL     H2R 4348   0.801   5.696   6.419  1.2580  2.3983 -1.1374
    1OL     H2S 4349   0.762   5.623   6.262 -0.0124  0.3790 -0.7165
    1OL     C13 4350   0.944   5.749   6.271  0.0558  0.7892 -0.1202
    1OL     H3R 4351   1.002   5.715   6.185 -0.1664  1.0139 -0.3653
    1OL     H3S 4352   1.016   5.774   6.349 -1.9342  3.6199  0.9833
    1OL     C14 4353   0.869   5.880   6.239 -0.0555  0.3045  0.4871
    1OL     H4R 4354   0.945   5.958   6.249  0.0660  0.2352  0.1275
    1OL     H4S 4355   0.794   5.895   6.317  0.0292 -0.6102  0.7587
    1OL     C15 4356   0.794   5.888   6.097 -0.4786  0.6331 -0.2188
    1OL     H5R 4357   0.731   5.976   6.104 -0.1196  0.7996  1.7986
    1OL     H5S 4358   0.732   5.798   6.095 -1.6811  1.3997  0.8172
    1OL     C16 4359   0.887   5.907   5.972 -0.1011  0.3722 -0.4699
    1OL     H6R 4360   0.985   5.866   5.996 -1.1659 -1.2903  1.3739
    1OL     H6S 4361   0.904   6.014   5.959  1.3372  0.2181 -0.0234
    1OL     C17 4362   0.820   5.833   5.856  0.8952 -0.1069  0.2347
    1OL     H7R 4363   0.729   5.886   5.827  1.9739  0.8082 -1.6675
    1OL     H7S 4364   0.793   5.730   5.882  1.2403 -0.4412 -0.6841
    1OL     C18 4365   0.908   5.822   5.730  0.7914  0.1057  0.0647
    1OL     H8R 4366   1.003   5.774   5.757  0.6339 -0.0355  0.3832
    1OL     H8S 4367   0.928   5.927   5.707 -0.3744  0.2449 -0.3710
    1OL     C19 4368   0.831   5.749   5.620  0.2158  0.3502 -0.9404
    1OL     H9R 4369   0.801   5.650   5.653  2.0434  0.4480  1.2082
    1OL    C110 4370   0.823   5.780   5.496 -0.4786  0.6154 -0.1989
    1OL    H10R 4371   0.761   5.719   5.430 -0.6808  1.0824 -0.4476
    1OL    C111 4372   0.878   5.903   5.427  0.2943 -0.0165  0.2861
    1OL    H11R 4373   0.956   5.880   5.353  0.4471  0.3944  0.3191
    1OL    H11S 4374   0.925   5.973   5.496  0.9290 -0.0642 -0.0924
    1OL    C112 4375   0.770   5.979   5.345  0.3336  0.4095 -0.1658
    1OL    H12R 4376   0.820   6.062   5.294  2.9563  0.3440  2.0292
    1OL    H12S 4377   0.707   6.017   5.426  1.1606 -0.5569  0.9746
    1OL    C113 4378   0.675   5.905   5.250 -0.8819  0.0814  0.3683
    1OL    H13R 4379   0.596   5.972   5.217  0.3804 -0.0280 -3.2486
    1OL    H13S 4380   0.627   5.825   5.307 -2.9451  1.7100  1.0310
    1OL    C114 4381   0.747   5.841   5.136 -0.0950 -0.5910  0.4582
    1OL    H14R 4382   0.684   5.760   5.097  1.0761 -0.9506 -0.7842
    1OL    H14S 4383   0.840   5.791   5.162  1.6434  1.8471 -0.6797
    1OL    C115 4384   0.777   5.944   5.022 -0.3777 -0.2667  0.3947
    1OL    H15R 4385   0.861   6.008   5.050  0.5819 -1.4643  0.3201
    1OL    H15S 4386   0.702   6.019   4.995  0.2658  0.0572 -0.5827
    1OL    C116 4387   0.808   5.861   4.890 -0.2454  0.8330 -0.3226
    1OL    H16R 4388   0.726   5.796   4.857 -0.3973  0.3784  0.8985
    1OL    H16S 4389   0.891   5.796   4.921 -1.3098 -1.5187 -2.0800
    1OL    C117 4390   0.858   5.948   4.774 -0.9046  0.2088 -0.4647
    1OL    H17R 4391   0.954   5.995   4.793  0.3632 -1.2008 -2.8201
    1OL    H17S 4392   0.794   6.034   4.752 -2.9869 -1.3759 -0.9556
    1OL    C118 4393   0.885   5.866   4.650 -0.5099 -0.4211  0.2038
    1OL    H18R 4394   0.954   5.784   4.669 -0.0279 -0.4327 -1.4422
    1OL    H18S 4395   0.934   5.935   4.580 -1.6808 -0.7400 -0.9582
    1OL    H18T 4396   0.789   5.833   4.612 -0.8759  1.3165 -0.4756
    1PA    C116 4397   1.075   3.344   5.484  0.2080 -0.1976 -0.7879
    1PA    H16R 4398   0.982   3.328   5.430  0.1711 -0.4899 -0.6436
    1PA    H16S 4399   1.142   3.266   5.448 -0.9831 -0.9517 -1.4282
    1PA    H16T 4400   1.113   3.438   5.445  0.7614 -0.2444 -0.3819
    1PA    C115 4401   1.055   3.347   5.637  0.1110  0.1351 -0.4270
    1PA    H15R 4402   1.150   3.349   5.691 -1.2377  1.6472  2.0642
    1PA    H15S 4403   0.993   3.432   5.665 -1.3997 -0.9911 -0.2379
    1PA    C114 4404   0.973   3.218   5.685  0.5355 -0.2567 -0.2447
    1PA    H14R 4405   0.892   3.199   5.614  0.5301  1.6926 -0.8043
    1PA    H14S 4406   1.039   3.130   5.683 -0.5783 -1.1431  0.7814
    1PA    C113 4407   0.908   3.225   5.820 -0.0106 -0.1418  0.3886
    1PA    H13R 4408   0.985   3.207   5.896  3.7452  0.7576 -2.8937
    1PA    H13S 4409   0.863   3.322   5.839 -0.3673 -0.1028 -0.6134
    1PA    C112 4410   0.805   3.112   5.840  0.6316 -0.4679  0.5211
    1PA    H12R 4411   0.737   3.099   5.756 -1.2836 -0.4593  2.0050
    1PA    H12S 4412   0.854   3.014   5.845  1.1574 -0.2607 -0.3564
    1PA    C111 4413   0.722   3.135   5.971  0.8006 -0.5259  0.4292
    1PA    H11R 4414   0.783   3.131   6.061  0.5192 -1.0627  0.5999
    1PA    H11S 4415   0.669   3.230   5.957  0.8490 -0.7448 -1.4377
    1PA    C110 4416   0.614   3.031   5.971  0.0731  0.7139 -0.3592
    1PA    H10R 4417   0.548   3.053   5.887 -0.9654 -1.4637 -0.1714
    1PA    H10S 4418   0.658   2.932   5.955 -1.1701  0.4883 -2.7338
    1PA     C19 4419   0.521   3.034   6.102 -0.0179 -0.3649 -0.7269
    1PA     H9R 4420   0.589   3.047   6.186 -0.6359 -1.5519 -0.0047
    1PA     H9S 4421   0.442   3.108   6.091  0.5206  0.3161 -0.0783
    1PA     C18 4422   0.449   2.902   6.124 -0.0665  0.2372 -0.5586
    1PA     H8R 4423   0.368   2.883   6.053  1.3228  0.3845 -2.2480
    1PA     H8S 4424   0.525   2.824   6.126  0.7803  1.0407 -0.4498
    1PA     C17 4425   0.391   2.897   6.263  0.0781 -0.3543  0.2385
    1PA     H7R 4426   0.327   2.809   6.276 -0.6989  0.1373 -0.2347
    1PA     H7S 4427   0.476   2.891   6.332 -1.0408  1.7470  1.9041
    1PA     C16 4428   0.309   3.017   6.311 -0.0484  0.0024  0.2114
    1PA     H6R 4429   0.304   3.014   6.420  1.8556  0.8351  0.3565
    1PA     H6S 4430   0.358   3.107   6.275  0.5785 -0.5282 -0.2793
    1PA     C15 4431   0.155   3.012   6.271 -0.4992 -0.5481  1.0366
    1PA     H5R 4432   0.156   3.024   6.162  0.6644  1.2356  1.2050
    1PA     H5S 4433   0.129   2.909   6.294  0.1930 -0.7811  0.8136
    1PA     C14 4434   0.071   3.124   6.333  0.2876  0.2980 -0.4824
    1PA     H4R 4435   0.074   3.135   6.442 -1.3128  0.4981 -0.4367
    1PA     H4S 4436   0.114   3.217   6.295  0.6300 -0.0973 -1.0806
    1PA     C13 4437  -0.077   3.122   6.287  0.1744  0.1904  0.8687
    1PA     H3R 4438  -0.124   3.208   6.336  0.1863  0.0196  1.1855
    1PA     H3S 4439  -0.085   3.135   6.179  0.2214  0.4959  0.9004
    1PA     C12 4440  -0.145   2.992   6.327  0.5039 -0.2317 -0.1069
    1PA     H2R 4441  -0.249   2.994   6.292 -0.0832  0.0143  1.5433
    1PA     H2S 4442  -0.100   2.901   6.288  1.0159 -0.0895  0.1398
    1PC     C11 4443  -0.147   2.962   6.481 -0.0719 -0.8932 -0.0608
    1PC     O12 4444  -0.101   3.044   6.564 -0.3772 -0.0611  0.7537
    1PC     O11 4445  -0.182   2.836   6.505  0.8458  0.3450  0.7179
    1PC      C1 4446  -0.155   2.776   6.636  0.1734  0.0044  0.1725
    1PC      HR 4447  -0.179   2.858   6.704 -1.9211  0.8887 -1.5231
    1PC      HS 4448  -0.232   2.701   6.651 -0.5532  0.7856  0.4489
    1PC      C2 4449  -0.012   2.718   6.651 -0.2096 -0.6095 -0.6341
    1PC      HX 4450  -0.021   2.622   6.703  0.4010 -0.9064 -1.0689
    1PC      C3 4451   0.078   2.819   6.738  0.6026  0.0243  0.1120
    1PC      HA 4452   0.174   2.773   6.765 -0.0526 -2.0886 -0.9607
    1PC      HB 4453   0.087   2.909   6.676  1.9696  0.2845  0.6576
    1PC     O31 4454   0.011   2.846   6.860 -0.3438 -0.4576 -0.2505
    1PC     P31 4455   0.036   2.765   6.999  0.1291 -0.1100 -0.3713
    1PC     O32 4456   0.174   2.821   7.056 -0.1822 -0.1737  0.5251
    1PC     C31 4457   0.166   2.955   7.109  0.1437  0.1878  0.3949
    1PC     H1A 4458   0.207   3.023   7.033  0.0361 -1.3811 -1.1187
    1PC     H1B 4459   0.073   2.984   7.158  0.5163  1.1894  0.5468
    1PC     C32 4460   0.278   2.958   7.214 -0.2970  0.1239 -0.5510
    1PC     H2A 4461   0.271   2.881   7.291  3.3715  1.2225  1.0501
    1PC     H2B 4462   0.375   2.944   7.168 -0.6729 -2.8689 -0.6703
    1PC     N31 4463   0.292   3.079   7.302 -0.7831 -0.1198 -0.4676
    1PC     C33 4464   0.171   3.103   7.388 -0.1129 -0.0898 -0.1789
    1PC     H3A 4465   0.099   3.130   7.310 -2.0026  0.4861  1.6852
    1PC     H3B 4466   0.148   3.004   7.427 -1.4019 -1.0286 -3.0253
    1PC     H3C 4467   0.187   3.181   7.463  1.0530 -0.6267  0.1575
    1PC     C34 4468   0.402   3.047   7.402  1.0687 -0.1583 -0.1713
    1PC     H4A 4469   0.405   3.117   7.485 -0.2964 -0.5380  0.2183
    1PC     H4B 4470   0.386   2.947   7.441  0.4895  0.4279  1.1597
    1PC     H4C 4471   0.497   3.060   7.349  1.4537  0.4157  0.6376
    1PC     C35 4472   0.328   3.201   7.228  0.0422  0.1762  0.0910
    1PC     H5A 4473   0.330   3.284   7.299 -0.7369  0.8331 -0.6365
    1PC     H5B 4474   0.261   3.213   7.143  1.3276  0.4217 -0.9181
    1PC     H5C 4475   0.430   3.189   7.193  0.8284  1.9705  1.5983
    1PC     O33 4476  -0.073   2.782   7.094  0.1862 -0.7221 -0.3253
    1PC     O34 4477   0.057   2.624   6.954  0.1447  0.2470  0.6174
    1PC     O21 4478   0.055   2.695   6.528  0.0031 -0.6201 -0.0531
    1PC     C21 4479  -0.002   2.603   6.454  0.7660  0.4979 -0.4720
    1PC     O22 4480  -0.090   2.525   6.492 -0.4635 -0.6116 -0.0131
    1OL     C12 4481   0.063   2.593   6.323  0.2348 -0.1801  0.3737
    1OL     H2R 4482   0.164   2.552   6.333  0.1154 -1.0289 -1.4030
    1OL     H2S 4483   0.085   2.692   6.283  3.2124 -0.7815  0.2125
    1OL     C13 4484  -0.026   2.525   6.218  0.1171 -0.7538 -0.3494
    1OL     H3R 4485  -0.113   2.590   6.204  1.5779  1.7045  1.1371
    1OL     H3S 4486  -0.069   2.432   6.255  1.6763 -0.8609  1.3312
    1OL     C14 4487   0.038   2.509   6.081 -0.1000  0.0369 -0.1130
    1OL     H4R 4488   0.130   2.452   6.094 -0.5884 -0.7862 -0.2264
    1OL     H4S 4489   0.078   2.607   6.054  0.2809 -0.1245 -0.1291
    1OL     C15 4490  -0.062   2.455   5.981  0.0961 -1.1675 -0.4169
    1OL     H5R 4491  -0.156   2.509   5.995  0.1737 -0.3451 -2.6749
    1OL     H5S 4492  -0.089   2.353   6.008 -0.0968 -0.8775  0.5210
    1OL     C16 4493  -0.014   2.465   5.834 -0.1961  0.7217 -0.2587
    1OL     H6R 4494   0.078   2.406   5.824 -0.7690 -1.3432  4.1968
    1OL     H6S 4495   0.004   2.570   5.807 -2.3970  1.3160  0.3792
    1OL     C17 4496  -0.118   2.401   5.737  0.3772 -0.3663 -0.1446
    1OL     H7R 4497  -0.216   2.445   5.753  1.4345  1.2262  2.7904
    1OL     H7S 4498  -0.121   2.293   5.754 -0.0600 -0.2668  0.4512
    1OL     C18 4499  -0.072   2.415   5.580 -0.6891 -0.0322 -0.2215
    1OL     H8R 4500  -0.150   2.386   5.509 -1.9552  2.5853 -0.0349
    1OL     H8S 4501   0.015   2.350   5.567  0.3496  1.5991 -1.7297
    1OL     C19 4502  -0.031   2.554   5.540  0.4006  0.6269 -0.3962
    1OL     H9R 4503  -0.110   2.628   5.535  1.2788  1.6956  0.7609
    1OL    C110 4504   0.089   2.586   5.495  0.7688 -0.2841  0.2240
    1OL    H10R 4505   0.116   2.688   5.471  0.1378  0.0530  0.9177
    1OL    C111 4506   0.209   2.497   5.480  0.1098 -0.3145 -0.5619
    1OL    H11R 4507   0.204   2.398   5.525  0.9259  0.7177  1.9551
    1OL    H11S 4508   0.286   2.546   5.540  0.1814  2.0340 -2.4127
    1OL    C112 4509   0.267   2.491   5.343  0.5937  0.2183  0.6300
    1OL    H12R 4510   0.272   2.590   5.298  0.7163 -0.5242 -1.0899
    1OL    H12S 4511   0.202   2.423   5.287  1.1224 -0.7295  1.1401
    1OL    C113 4512   0.414   2.433   5.340  1.0158 -0.2091 -0.2970
    1OL    H13R 4513   0.415   2.341   5.398  1.6117 -0.9806 -1.4901
    1OL    H13S 4514   0.477   2.504   5.394 -2.4068  2.4032  0.6538
    1OL    C114 4515   0.459   2.407   5.194  0.1829 -0.7975 -0.0194
    1OL    H14R 4516   0.443   2.496   5.132 -0.5625 -0.4557  0.6605
    1OL    H14S 4517   0.396   2.334   5.142 -0.4164 -0.6070  0.4340
    1OL    C115 4518   0.600   2.348   5.165  0.3015  0.5358  0.2691
    1OL    H15R 4519   0.614   2.321   5.060 -1.6158 -1.3590  0.4362
    1OL    H15S 4520   0.613   2.256   5.223  0.5687 -0.0854 -0.7505
    1OL    C116 4521   0.708   2.446   5.212 -0.1034  0.7984  0.0866
    1OL    H16R 4522   0.694   2.480   5.315  0.4012 -2.3987  1.3260
    1OL    H16S 4523   0.709   2.534   5.147 -0.1756  0.4240 -0.4242
    1OL    C117 4524   0.853   2.400   5.229 -0.6797 -0.3444 -0.9116
    1OL    H17R 4525   0.900   2.368   5.137  0.0338 -1.7771 -0.0824
    1OL    H17S 4526   0.846   2.318   5.301 -1.9178  0.8377  0.4022
    1OL    C118 4527   0.934   2.511   5.291 -0.2027  0.1119  0.0800
    1OL    H18R 4528   0.930   2.596   5.222 -0.9035  1.3642  1.5749
    1OL    H18S 4529   1.035   2.473   5.308 -0.3036 -0.4538 -0.5514
    1OL    H18T 4530   0.891   2.538   5.388 -0.0066 -0.6859  0.3963
    1PA    C116 4531   3.323   3.089   5.477 -0.2463 -0.5081 -0.5509
    1PA    H16R 4532   3.331   3.148   5.385  0.3372  0.4308  0.0866
    1PA    H16S 4533   3.411   3.095   5.541 -0.0173  2.2328 -0.9825
    1PA    H16T 4534   3.246   3.148   5.528  1.0761 -0.6667  1.7206
    1PA    C115 4535   3.276   2.944   5.457  0.4318 -0.1276 -0.0794
    1PA    H15R 4536   3.347   2.886   5.397  0.0634 -0.4360 -0.2199
    1PA    H15S 4537   3.281   2.899   5.556 -2.0772 -1.4641 -0.4841
    1PA    C114 4538   3.139   2.917   5.388 -0.4481 -0.6878  0.0400
    1PA    H14R 4539   3.156   2.940   5.282 -0.6173 -1.3293 -0.1321
    1PA    H14S 4540   3.112   2.811   5.382  0.8069 -0.9427 -2.0191
    1PA    C113 4541   3.022   3.005   5.443  0.4435 -0.1950 -0.6368
    1PA    H13R 4542   3.052   3.110   5.445  1.9659 -0.6231 -0.0968
    1PA    H13S 4543   2.934   2.996   5.378 -0.5256 -0.5992  0.6898
    1PA    C112 4544   2.981   2.963   5.588  0.7094 -0.7079 -0.4484
    1PA    H12R 4545   2.952   2.858   5.595 -2.0434  0.0402  1.2438
    1PA    H12S 4546   3.072   2.968   5.647  0.5697 -0.2286 -0.2657
    1PA    C111 4547   2.865   3.042   5.648 -0.8286 -0.6003  0.0519
    1PA    H11R 4548   2.896   3.147   5.640  0.7926 -1.1363 -1.2373
    1PA    H11S 4549   2.781   3.042   5.579  0.4290  2.1430 -1.6774
    1PA    C110 4550   2.823   3.005   5.792  0.3079 -0.3541 -0.1384
    1PA    H10R 4551   2.733   3.062   5.814  0.7358  0.9619 -1.6339
    1PA    H10S 4552   2.794   2.900   5.794  1.1480 -0.6466 -1.6700
    1PA     C19 4553   2.920   3.046   5.906 -0.4127 -0.0164 -0.1432
    1PA     H9R 4554   3.013   2.989   5.910  0.9209  2.0962  1.9677
    1PA     H9S 4555   2.959   3.146   5.884  1.0253  0.0426  2.2655
    1PA     C18 4556   2.855   3.069   6.042 -0.3450  0.4194 -0.5445
    1PA     H8R 4557   2.755   3.112   6.036 -0.6506 -0.0969  0.6363
    1PA     H8S 4558   2.848   2.971   6.089  3.2993  0.3583  0.1465
    1PA     C17 4559   2.940   3.159   6.135  0.4000  0.0515  0.4450
    1PA     H7R 4560   3.042   3.121   6.140 -0.0318 -1.2261  0.0692
    1PA     H7S 4561   2.940   3.259   6.091 -0.1648 -0.6717 -1.2705
    1PA     C16 4562   2.899   3.161   6.285  0.2090 -0.5160  1.1900
    1PA     H6R 4563   2.794   3.187   6.299 -0.0263 -1.3480  1.0125
    1PA     H6S 4564   2.915   3.061   6.325  3.4415 -0.9740 -0.8648
    1PA     C15 4565   2.976   3.266   6.363  0.1524 -0.5833 -0.1324
    1PA     H5R 4566   3.084   3.250   6.359  0.5231  0.9711  1.9400
    1PA     H5S 4567   2.957   3.360   6.311  5.3466  0.7686 -0.1311
    1PA     C14 4568   2.915   3.273   6.509  0.2357 -0.0375 -0.1695
    1PA     H4R 4569   2.813   3.310   6.495 -0.6528 -2.6830 -1.3234
    1PA     H4S 4570   2.901   3.169   6.541  1.2869 -0.8159 -2.0662
    1PA     C13 4571   3.011   3.340   6.615 -0.4378  0.7409 -0.3566
    1PA     H3R 4572   2.971   3.340   6.716  0.9628  1.4154  0.2244
    1PA     H3S 4573   3.105   3.283   6.618  1.0693  3.0721 -0.6360
    1PA     C12 4574   3.053   3.480   6.578  0.5980 -0.4618 -0.2059
    1PA     H2R 4575   3.094   3.473   6.477 -0.5854  0.3852 -0.7758
    1PA     H2S 4576   2.969   3.549   6.567  0.7199 -0.7611 -5.2918
    1PC     C11 4577   3.145   3.544   6.674  0.0977 -0.8004 -0.1283
    1PC     O12 4578   3.208   3.478   6.748 -0.3156 -0.0202  0.4953
    1PC     O11 4579   3.150   3.680   6.669  0.3343 -0.4633  0.1435
    1PC      C1 4580   3.242   3.756   6.758 -0.1237 -0.2590  0.2646
    1PC      HR 4581   3.193   3.847   6.794  0.3063 -0.3681  1.1359
    1PC      HS 4582   3.284   3.697   6.839  0.8411 -0.5980 -0.4644
    1PC      C2 4583   3.369   3.801   6.677  0.3890 -0.4167  0.6944
    1PC      HX 4584   3.435   3.716   6.662  0.6589 -0.4643  2.0083
    1PC      C3 4585   3.440   3.906   6.768 -0.5602 -0.0070 -0.5494
    1PC      HA 4586   3.529   3.945   6.718  0.5841 -0.7968  0.7619
    1PC      HB 4587   3.373   3.989   6.789  0.2382  0.4939  0.1105
    1PC     O31 4588   3.479   3.845   6.890  0.0985  0.3075  0.0130
    1PC     P31 4589   3.433   3.902   7.036 -0.1757  0.1689  0.1434
    1PC     O32 4590   3.520   4.034   7.063 -0.0003 -0.0195 -0.6857
    1PC     C31 4591   3.487   4.161   7.002 -0.2653  0.2538 -0.3056
    1PC     H1A 4592   3.500   4.147   6.894 -0.1938  0.5682 -0.3385
    1PC     H1B 4593   3.384   4.185   7.028 -0.9428 -0.9957 -1.6742
    1PC     C32 4594   3.597   4.272   7.034 -0.0567  0.0045 -0.2507
    1PC     H2A 4595   3.688   4.251   6.978 -0.6296 -0.1567 -1.1631
    1PC     H2B 4596   3.570   4.366   6.986  0.4930  0.3407  0.1014
    1PC     N31 4597   3.626   4.297   7.181  0.0586  0.2675 -0.3895
    1PC     C33 4598   3.708   4.182   7.231 -0.9358  0.0054 -0.0859
    1PC     H3A 4599   3.759   4.211   7.323  0.1350  2.7482 -1.4141
    1PC     H3B 4600   3.644   4.096   7.251 -1.7735  0.4920 -0.6341
    1PC     H3C 4601   3.781   4.157   7.154  0.7078  0.7038  1.1838
    1PC     C34 4602   3.700   4.429   7.191 -0.6408  0.2854 -0.9292
    1PC     H4A 4603   3.649   4.515   7.148 -2.7046  0.2036  1.1464
    1PC     H4B 4604   3.715   4.447   7.297 -0.6448 -1.6733 -0.5506
    1PC     H4C 4605   3.795   4.407   7.140 -0.9382  3.7245 -3.2993
    1PC     C35 4606   3.504   4.299   7.269 -0.3473 -0.2081 -0.6660
    1PC     H5A 4607   3.547   4.288   7.368 -0.5513 -0.5995 -0.6177
    1PC     H5B 4608   3.437   4.214   7.251  0.5651 -1.8191  2.6321
    1PC     H5C 4609   3.455   4.393   7.246  0.1010 -0.3017 -2.0884
    1PC     O33 4610   3.291   3.930   7.034 -0.1528  0.5221 -0.1654
    1PC     O34 4611   3.478   3.796   7.127 -0.5143 -0.5839 -0.1705
    1PC     O21 4612   3.321   3.864   6.559 -0.3569  0.2162  0.2389
    1PC     C21 4613   3.403   3.860   6.452  0.5150  0.0255 -0.2038
    1PC     O22 4614   3.504   3.793   6.454 -0.2132  0.0469  0.6900
    1OL     C12 4615   3.357   3.924   6.334 -0.0309 -0.0626  0.8508
    1OL     H2R 4616   3.330   4.027   6.361 -1.3745 -0.0799 -0.3258
    1OL     H2S 4617   3.272   3.869   6.294 -0.2039  0.0471  1.0681
    1OL     C13 4618   3.456   3.933   6.217 -0.2726  0.3578 -0.0476
    1OL     H3R 4619   3.481   3.829   6.195 -0.5273 -0.0226  1.3763
    1OL     H3S 4620   3.557   3.965   6.245  0.0329 -1.1556  0.7069
    1OL     C14 4621   3.410   4.015   6.098 -0.3483 -0.1066  0.3886
    1OL     H4R 4622   3.495   4.054   6.042  0.3385 -1.0794  0.7163
    1OL     H4S 4623   3.350   4.097   6.137 -1.3713 -0.0123 -1.3187
    1OL     C15 4624   3.316   3.937   6.007 -0.7982  0.1388 -0.3506
    1OL     H5R 4625   3.226   3.917   6.066  0.5853 -1.6973  1.2430
    1OL     H5S 4626   3.362   3.845   5.972  0.0155  1.2316 -2.3690
    1OL     C16 4627   3.289   4.003   5.876 -0.5769  0.0710  0.2216
    1OL     H6R 4628   3.386   4.021   5.829 -0.2110 -1.1314  0.4855
    1OL     H6S 4629   3.245   4.102   5.885  1.2581  0.7558  2.5759
    1OL     C17 4630   3.195   3.930   5.783  0.1862 -0.0386  0.3805
    1OL     H7R 4631   3.098   3.928   5.835  0.4498  0.5748  0.9141
    1OL     H7S 4632   3.226   3.826   5.769 -0.4902 -0.6216  2.6702
    1OL     C18 4633   3.176   3.995   5.641  0.1790  0.4085 -0.2113
    1OL     H8R 4634   3.264   4.023   5.583 -1.1689  1.8498 -1.6945
    1OL     H8S 4635   3.134   4.092   5.669  0.3896  0.1359  1.1122
    1OL     C19 4636   3.080   3.917   5.550  0.1136 -0.2672  0.0490
    1OL     H9R 4637   3.081   3.810   5.566 -0.5526 -0.0056  2.2128
    1OL    C110 4638   3.001   3.961   5.457  0.1904  0.3629  0.4931
    1OL    H10R 4639   2.939   3.892   5.401  0.3219  0.3810  0.3233
    1OL    C111 4640   2.974   4.099   5.410 -1.2683  0.3102  0.8013
    1OL    H11R 4641   2.971   4.107   5.301  0.6968  0.5721  0.7147
    1OL    H11S 4642   3.058   4.161   5.444 -0.6153  0.3327 -0.7454
    1OL    C112 4643   2.843   4.164   5.451 -0.2885 -0.5406 -0.0504
    1OL    H12R 4644   2.762   4.105   5.409 -1.6398  0.8789  0.4721
    1OL    H12S 4645   2.832   4.261   5.402 -0.2646  0.1483  1.2641
    1OL    C113 4646   2.812   4.187   5.604 -0.1094  0.6456 -0.0476
    1OL    H13R 4647   2.890   4.257   5.633 -0.7432  1.6429 -0.6655
    1OL    H13S 4648   2.832   4.096   5.662 -0.1371  1.3617  1.1075
    1OL    C114 4649   2.681   4.261   5.654 -0.1863  0.3088  0.7238
    1OL    H14R 4650   2.590   4.200   5.648 -0.1563  0.3561 -0.4851
    1OL    H14S 4651   2.662   4.346   5.589  1.4247  1.4114  1.6379
    1OL    C115 4652   2.682   4.321   5.794 -0.1035 -0.2039 -0.4108
    1OL    H15R 4653   2.770   4.386   5.796  0.0671 -0.4507  0.5947
    1OL    H15S 4654   2.679   4.242   5.869 -0.5324  0.0939 -0.1059
    1OL    C116 4655   2.547   4.396   5.817  0.2353  0.4346  0.0428
    1OL    H16R 4656   2.466   4.326   5.840  0.1735  0.6781  0.5897
    1OL    H16S 4657   2.517   4.450   5.726 -2.6995  0.0833  0.6999
    1OL    C117 4658   2.559   4.504   5.925  0.8490  0.3871 -0.7348
    1OL    H17R 4659   2.461   4.552   5.913 -0.3529 -1.1936  1.8679
    1OL    H17S 4660   2.638   4.577   5.905  1.3777  0.1911  0.5216
    1OL    C118 4661   2.578   4.460   6.073 -0.5280  0.0301 -0.0091
    1OL    H18R 4662   2.491   4.400   6.101  0.4837 -0.4836  2.2670
    1OL    H18S 4663   2.573   4.548   6.137  0.1512  0.6533 -0.7989
    1OL    H18T 4664   2.659   4.392   6.098 -0.5940  0.2745  0.8968
    1PA    C116 4665   1.143   4.240   5.102  0.7669  0.1045  0.0366
    1PA    H16R 4666   1.109   4.147   5.057  2.0381 -0.8435  0.9614
    1PA    H16S 4667   1.135   4.236   5.211  0.2120 -1.2921 -0.0378
    1PA    H16T 4668   1.247   4.254   5.072  1.1175  0.7147  1.4497
    1PA    C115 4669   1.060   4.361   5.052 -0.3292 -0.2049 -0.3562
    1PA    H15R 4670   1.109   4.385   4.957  0.8857  2.0184  0.7340
    1PA    H15S 4671   0.962   4.320   5.029  0.2802 -1.9774  0.0691
    1PA    C114 4672   1.078   4.487   5.148  0.0550  0.0529  0.1470
    1PA    H14R 4673   1.015   4.570   5.115  0.4576  0.0910 -0.5419
    1PA    H14S 4674   1.034   4.464   5.245 -1.4592 -0.0223 -0.5409
    1PA    C113 4675   1.223   4.530   5.166  0.2167  0.8627 -0.1097
    1PA    H13R 4676   1.299   4.455   5.146 -0.5502  0.7403 -2.9716
    1PA    H13S 4677   1.242   4.597   5.081 -0.0358  2.1047  0.7814
    1PA    C112 4678   1.251   4.614   5.288  0.4065  0.5341 -0.9049
    1PA    H12R 4679   1.335   4.682   5.272 -0.6801  1.7222 -1.7349
    1PA    H12S 4680   1.165   4.681   5.293 -0.0340 -0.0830  0.0706
    1PA    C111 4681   1.247   4.540   5.424 -0.4777  0.0510 -0.1332
    1PA    H11R 4682   1.162   4.472   5.434 -0.6165  0.5563  4.0446
    1PA    H11S 4683   1.336   4.477   5.426 -1.4704 -1.3908  0.7746
    1PA    C110 4684   1.260   4.623   5.553 -0.1911  0.5556  0.5235
    1PA    H10R 4685   1.352   4.682   5.549 -0.2724  0.6824  0.4971
    1PA    H10S 4686   1.175   4.690   5.538  0.1725  1.0159  0.4812
    1PA     C19 4687   1.254   4.537   5.681  0.7556 -0.3884  1.0602
    1PA     H9R 4688   1.326   4.457   5.661  2.3479  0.9042  1.4825
    1PA     H9S 4689   1.283   4.595   5.769  0.0738  1.0436  0.3790
    1PA     C18 4690   1.116   4.473   5.707  0.4546  0.3496  0.4495
    1PA     H8R 4691   1.031   4.536   5.680 -0.4750 -0.6746  0.9295
    1PA     H8S 4692   1.114   4.388   5.639  0.3131 -0.2663  1.2125
    1PA     C17 4693   1.098   4.430   5.860  0.7653 -0.4654  0.1161
    1PA     H7R 4694   1.007   4.372   5.877  0.1435  0.9147  1.8437
    1PA     H7S 4695   1.177   4.359   5.887  0.9483  0.8737  3.7396
    1PA     C16 4696   1.107   4.540   5.968 -0.1152 -0.5315  0.8807
    1PA     H6R 4697   1.212   4.564   5.986 -0.0267 -0.6005  0.4670
    1PA     H6S 4698   1.064   4.629   5.923  0.2756 -0.0736  1.3967
    1PA     C15 4699   1.043   4.509   6.102  0.1724 -0.7376 -0.2389
    1PA     H5R 4700   1.054   4.591   6.175 -0.0459  0.4132 -1.4582
    1PA     H5S 4701   0.936   4.500   6.082 -0.0204  0.9677 -0.1239
    1PA     C14 4702   1.098   4.379   6.161  0.0563  0.1961 -0.2078
    1PA     H4R 4703   1.057   4.292   6.109  1.0812 -1.0730  1.0294
    1PA     H4S 4704   1.206   4.366   6.156  0.2861  1.6159  0.5875
    1PA     C13 4705   1.056   4.366   6.309 -0.1788  0.6386  0.3767
    1PA     H3R 4706   1.129   4.304   6.361 -0.2202  0.1847 -0.1038
    1PA     H3S 4707   1.055   4.466   6.354 -2.5828  0.4387  0.9138
    1PA     C12 4708   0.913   4.330   6.328 -0.6947 -0.3328 -0.4858
    1PA     H2R 4709   0.851   4.406   6.279 -0.6795 -0.2426 -0.3644
    1PA     H2S 4710   0.903   4.234   6.277 -1.3588 -0.8279  0.5536
    1PC     C11 4711   0.873   4.325   6.473 -0.0170 -0.1134  0.1980
    1PC     O12 4712   0.943   4.275   6.561  0.1797 -0.1935 -0.0118
    1PC     O11 4713   0.762   4.400   6.500  0.3638 -0.1382 -0.0847
    1PC      C1 4714   0.718   4.411   6.642  0.1027 -0.3984  0.1943
    1PC      HR 4715   0.619   4.457   6.644  1.0859  1.8351  1.9115
    1PC      HS 4716   0.708   4.316   6.695  2.9069 -1.1392 -0.4623
    1PC      C2 4717   0.812   4.511   6.717 -0.3906 -1.3631 -0.0413
    1PC      HX 4718   0.919   4.492   6.728  0.0374  1.2374  1.1320
    1PC      C3 4719   0.744   4.524   6.862 -0.3621  0.4160  0.2416
    1PC      HA 4720   0.637   4.543   6.851 -0.2973  0.7942  0.2308
    1PC      HB 4721   0.736   4.435   6.924 -2.2507  0.2425 -0.1750
    1PC     O31 4722   0.801   4.632   6.936 -0.3293  0.1008 -0.2315
    1PC     P31 4723   0.912   4.609   7.047  0.0276  0.1550  0.3706
    1PC     O32 4724   1.040   4.582   6.962  0.2162  0.1313  0.1666
    1PC     C31 4725   1.134   4.691   6.944  0.1408  1.0920 -0.3491
    1PC     H1A 4726   1.088   4.789   6.929  0.2129  1.4176  1.2888
    1PC     H1B 4727   1.197   4.689   7.034  0.3056 -1.6881 -0.4551
    1PC     C32 4728   1.212   4.659   6.813  0.0891  0.7965 -0.5051
    1PC     H2A 4729   1.144   4.671   6.729 -1.6890 -2.2617  0.3444
    1PC     H2B 4730   1.292   4.734   6.813  1.4367 -0.4538  2.6643
    1PC     N31 4731   1.287   4.527   6.806  0.1814 -0.1097 -0.1775
    1PC     C33 4732   1.391   4.539   6.705 -0.3786  0.4629  0.6973
    1PC     H3A 4733   1.465   4.616   6.730 -0.4770  0.1078  2.1713
    1PC     H3B 4734   1.441   4.442   6.713  1.9575  1.5591  0.4131
    1PC     H3C 4735   1.332   4.552   6.614 -1.3709 -0.2857  1.2162
    1PC     C34 4736   1.359   4.512   6.937  0.8352  0.6634  0.8091
    1PC     H4A 4737   1.290   4.498   7.021  0.3375  1.7566  0.6033
    1PC     H4B 4738   1.414   4.418   6.936 -0.6184 -0.2264  1.3475
    1PC     H4C 4739   1.420   4.602   6.939  3.6739 -1.1053  0.4190
    1PC     C35 4740   1.195   4.406   6.786  0.1992  0.1821  0.1642
    1PC     H5A 4741   1.158   4.400   6.683  0.8238 -1.5127  0.0067
    1PC     H5B 4742   1.120   4.403   6.865 -1.4501 -0.5007 -1.3464
    1PC     H5C 4743   1.259   4.318   6.799 -0.8138 -0.6199 -0.1187
    1PC     O33 4744   0.918   4.734   7.127  0.5750 -0.2325  0.4201
    1PC     O34 4745   0.874   4.479   7.117  0.3889  0.1496  0.0847
    1PC     O21 4746   0.787   4.649   6.667  0.2503  0.2329 -0.0106
    1PC     C21 4747   0.857   4.697   6.567 -0.0718  0.2101  0.3663
    1PC     O22 4748   0.967   4.654   6.533 -0.7544  0.0780 -0.9296
    1OL     C12 4749   0.782   4.809   6.493 -0.2610  0.0865  0.6213
    1OL     H2R 4750   0.782   4.898   6.555  0.8945  0.4811  0.0966
    1OL     H2S 4751   0.680   4.776   6.472  0.1417 -0.3556 -0.7494
    1OL     C13 4752   0.851   4.843   6.365 -0.0524 -0.9040 -0.2193
    1OL     H3R 4753   0.958   4.856   6.381  0.3642 -2.5993 -1.3974
    1OL     H3S 4754   0.798   4.936   6.338 -0.3685 -0.9972  0.0716
    1OL     C14 4755   0.824   4.753   6.244  0.0049  0.1624  0.5068
    1OL     H4R 4756   0.723   4.711   6.248 -1.2800  2.4887 -2.9617
    1OL     H4S 4757   0.888   4.665   6.251 -2.6688 -2.1048 -1.6136
    1OL     C15 4758   0.850   4.831   6.112  0.1792 -0.0477  0.4439
    1OL     H5R 4759   0.768   4.903   6.107 -1.7604 -2.0660  1.0878
    1OL     H5S 4760   0.829   4.759   6.033  0.5151  1.1368 -0.7573
    1OL     C16 4761   0.988   4.889   6.090 -0.0419  0.4966 -0.2370
    1OL     H6R 4762   1.064   4.811   6.106 -0.6857  0.1876  1.5564
    1OL     H6S 4763   0.998   4.974   6.157  0.1839  0.2109  0.0997
    1OL     C17 4764   0.978   4.956   5.953 -0.1449  0.2078 -0.2834
    1OL     H7R 4765   0.879   5.002   5.944 -1.0021 -1.7694 -1.6201
    1OL     H7S 4766   0.975   4.881   5.875 -0.3288 -0.9736  0.8272
    1OL     C18 4767   1.074   5.069   5.920  0.1212  0.2926 -0.6018
    1OL     H8R 4768   1.170   5.022   5.938 -1.1839 -1.4780  2.5247
    1OL     H8S 4769   1.052   5.151   5.989 -1.6846  0.1598 -0.9741
    1OL     C19 4770   1.060   5.113   5.776 -0.1560  0.2086 -0.1451
    1OL     H9R 4771   0.960   5.145   5.749 -0.7821 -0.5656  1.1854
    1OL    C110 4772   1.159   5.104   5.687  0.2986 -0.2364 -0.2895
    1OL    H10R 4773   1.136   5.138   5.586  1.0752 -0.6923 -0.6341
    1OL    C111 4774   1.291   5.040   5.712  0.2071  0.2783 -0.5330
    1OL    H11R 4775   1.272   4.944   5.759 -0.2353  0.6909  0.1542
    1OL    H11S 4776   1.344   5.094   5.791 -0.1661 -1.3465  0.8720
    1OL    C112 4777   1.381   5.033   5.594 -0.2015 -0.7699  0.0190
    1OL    H12R 4778   1.329   4.982   5.513 -1.7610  0.9201 -0.0900
    1OL    H12S 4779   1.467   4.968   5.611  0.1851 -0.1315  0.5569
    1OL    C113 4780   1.433   5.172   5.553 -0.5093  0.0753 -0.4696
    1OL    H13R 4781   1.520   5.198   5.614 -1.0741  0.5418  0.1435
    1OL    H13S 4782   1.359   5.251   5.568  0.3433  0.6713  0.7321
    1OL    C114 4783   1.478   5.176   5.407 -0.3037 -0.4801  0.1570
    1OL    H14R 4784   1.395   5.145   5.344  0.1139  1.3171 -1.3746
    1OL    H14S 4785   1.553   5.097   5.395 -0.8424 -1.1664  1.1456
    1OL    C115 4786   1.540   5.307   5.347  0.0119 -0.3374 -0.0488
    1OL    H15R 4787   1.473   5.390   5.369  0.2693 -0.4260  1.1423
    1OL    H15S 4788   1.563   5.299   5.241  1.4714  0.5704  0.1773
    1OL    C116 4789   1.679   5.332   5.412  0.0821 -0.0637  0.4330
    1OL    H16R 4790   1.720   5.238   5.447 -1.1357 -0.1321  1.7911
    1OL    H16S 4791   1.671   5.399   5.498 -0.5818  0.2516  0.1367
    1OL    C117 4792   1.773   5.404   5.318 -0.6778  0.3619  0.7503
    1OL    H17R 4793   1.716   5.491   5.282  0.1216 -0.2910 -2.3608
    1OL    H17S 4794   1.793   5.357   5.221  3.3748 -0.7188  1.9379
    1OL    C118 4795   1.908   5.438   5.379  0.3014  0.1582 -0.1396
    1OL    H18R 4796   1.951   5.342   5.406 -0.0819  0.0547  0.1068
    1OL    H18S 4797   1.895   5.493   5.472 -0.0860  1.5002 -0.9599
    1OL    H18T 4798   1.973   5.499   5.315 -0.6264  0.7508 -0.5346
    1PA    C116 4799   4.534   1.255   5.344  0.4364  0.3346  0.2410
    1PA    H16R 4800   4.577   1.181   5.277 -1.7573 -0.2143 -0.6421
    1PA    H16S 4801   4.535   1.356   5.302  1.3121  0.2131 -0.0462
    1PA    H16T 4802   4.430   1.230   5.368  0.4096 -0.9037 -1.0997
    1PA    C115 4803   4.616   1.250   5.475  0.4969  0.3300  0.3311
    1PA    H15R 4804   4.570   1.310   5.554 -0.5126 -0.6715  0.5234
    1PA    H15S 4805   4.615   1.150   5.520 -0.3179  0.5495  0.8208
    1PA    C114 4806   4.760   1.292   5.456 -0.9648 -0.8800  0.5522
    1PA    H14R 4807   4.806   1.232   5.377  1.4794  1.7130 -0.1549
    1PA    H14S 4808   4.755   1.394   5.417 -2.5188 -1.9971 -2.4484
    1PA    C113 4809   4.846   1.275   5.581  1.0396  0.2795  0.1988
    1PA    H13R 4810   4.912   1.188   5.584 -0.4629 -0.9363 -0.5769
    1PA    H13S 4811   4.925   1.350   5.571  0.0489  1.1700 -1.3780
    1PA    C112 4812   4.776   1.285   5.718 -0.5816 -0.1084 -0.3726
    1PA    H12R 4813   4.723   1.380   5.717 -0.1648  0.1396  0.2702
    1PA    H12S 4814   4.698   1.209   5.724 -0.9184  0.2733  0.1022
    1PA    C111 4815   4.874   1.281   5.839  0.3239 -0.2674  0.0528
    1PA    H11R 4816   4.884   1.178   5.875 -2.4703 -0.6771 -0.1303
    1PA    H11S 4817   4.970   1.322   5.805 -1.3190  2.8688 -1.2563
    1PA    C110 4818   4.826   1.361   5.959  0.1314 -0.2408  0.2881
    1PA    H10R 4819   4.799   1.464   5.936  0.0404 -0.5237 -0.9269
    1PA    H10S 4820   4.734   1.309   5.988  0.8859 -0.3464  2.7598
    1PA     C19 4821   4.910   1.358   6.081  0.0770 -0.0398  0.2369
    1PA     H9R 4822   5.010   1.334   6.043  0.7606  2.8225 -0.0216
    1PA     H9S 4823   4.932   1.455   6.126 -1.0691  1.0890 -1.5058
    1PA     C18 4824   4.865   1.256   6.185 -0.5506  0.3630  0.2500
    1PA     H8R 4825   4.864   1.161   6.131  0.9977 -0.3418  1.3874
    1PA     H8S 4826   4.941   1.255   6.263 -1.7435  0.2889  1.4478
    1PA     C17 4827   4.722   1.275   6.247  0.0354 -0.3074 -0.6804
    1PA     H7R 4828   4.649   1.278   6.166 -1.2089  2.8487  0.3965
    1PA     H7S 4829   4.713   1.189   6.314  0.4350  0.5404  0.5036
    1PA     C16 4830   4.718   1.405   6.328 -0.5648  0.4133  0.4144
    1PA     H6R 4831   4.790   1.403   6.411  2.5432  2.1075 -2.0125
    1PA     H6S 4832   4.748   1.478   6.252 -2.6194 -0.2943 -1.1624
    1PA     C15 4833   4.579   1.457   6.369 -0.1097  0.5834  0.0941
    1PA     H5R 4834   4.590   1.559   6.406  1.8337  0.7745 -0.8622
    1PA     H5S 4835   4.514   1.469   6.283  0.9795  0.0811 -0.8258
    1PA     C14 4836   4.518   1.362   6.478  0.1833  0.1897 -0.8927
    1PA     H4R 4837   4.459   1.280   6.438  0.0242  0.4071 -1.1086
    1PA     H4S 4838   4.597   1.322   6.542  0.2177 -0.3793 -1.2851
    1PA     C13 4839   4.418   1.435   6.572 -0.4039  0.1001  0.4331
    1PA     H3R 4840   4.365   1.513   6.517  0.5076  0.8774  0.6259
    1PA     H3S 4841   4.338   1.365   6.596 -0.8243  0.3455 -0.2329
    1PA     C12 4842   4.474   1.489   6.710 -0.5060 -0.4861  1.3151
    1PA     H2R 4843   4.544   1.424   6.764  0.0262  0.6217  2.0022
    1PA     H2S 4844   4.521   1.586   6.690 -1.0902 -0.3573  0.5252
    1PC     C11 4845   4.358   1.515   6.791  0.7239 -0.0497 -0.4666
    1PC     O12 4846   4.313   1.440   6.880 -0.4042 -0.3937  0.2043
    1PC     O11 4847   4.300   1.635   6.758  0.0123 -0.0182 -0.2538
    1PC      C1 4848   4.202   1.693   6.840  0.6155  0.0265 -0.4534
    1PC      HR 4849   4.137   1.744   6.768  0.7595  0.1479 -0.4964
    1PC      HS 4850   4.136   1.628   6.899  0.5415  1.2892  0.9301
    1PC      C2 4851   4.260   1.804   6.934  0.2546  0.7894  0.3007
    1PC      HX 4852   4.307   1.758   7.022  0.0907  0.1904  0.0788
    1PC      C3 4853   4.141   1.881   7.003 -0.4595  1.1387 -0.4720
    1PC      HA 4854   4.183   1.964   7.059  1.3063  0.3520 -0.5752
    1PC      HB 4855   4.081   1.908   6.915 -0.8229  0.3546 -0.4729
    1PC     O31 4856   4.055   1.795   7.088 -0.1519  0.3582 -0.7204
    1PC     P31 4857   4.081   1.773   7.247  0.5588  0.6285  0.6031
    1PC     O32 4858   4.200   1.668   7.231 -0.0026 -0.9631  0.3845
    1PC     C31 4859   4.179   1.533   7.213  0.5193  0.0284 -0.5716
    1PC     H1A 4860   4.076   1.509   7.185  0.1668  1.6718 -0.7851
    1PC     H1B 4861   4.241   1.501   7.129  1.6047  1.0490 -0.1835
    1PC     C32 4862   4.224   1.466   7.348 -0.6655 -0.0715  0.1631
    1PC     H2A 4863   4.325   1.496   7.378 -1.0517 -1.0322  2.6670
    1PC     H2B 4864   4.161   1.504   7.429  0.7504  0.4241  1.0679
    1PC     N31 4865   4.218   1.316   7.361  0.3213  0.0018  0.3632
    1PC     C33 4866   4.260   1.243   7.235 -0.4149  0.4242  0.3680
    1PC     H3A 4867   4.199   1.289   7.157  2.4443  0.2895 -2.1322
    1PC     H3B 4868   4.361   1.269   7.205 -1.2290  1.9830 -1.2330
    1PC     H3C 4869   4.246   1.137   7.255  2.9144  0.1719  1.8880
    1PC     C34 4870   4.299   1.260   7.473  0.0334 -0.7707  0.3662
    1PC     H4A 4871   4.244   1.281   7.565 -0.2782 -0.8717  0.2053
    1PC     H4B 4872   4.298   1.152   7.458  0.4611 -0.6405 -0.6579
    1PC     H4C 4873   4.395   1.311   7.475 -0.5135  0.2736  0.4837
    1PC     C35 4874   4.076   1.273   7.381  0.7070 -0.6826 -0.0919
    1PC     H5A 4875   4.021   1.302   7.291  1.4594  1.3251  0.0364
    1PC     H5B 4876   4.043   1.326   7.471 -0.2495 -1.4818  0.0499
    1PC     H5C 4877   4.068   1.167   7.404  1.5101 -0.5248  1.0168
    1PC     O33 4878   4.139   1.890   7.308  0.1632 -0.0469  0.3223
    1PC     O34 4879   3.964   1.707   7.305  0.2995  0.5397  0.0410
    1PC     O21 4880   4.338   1.897   6.862  0.0074  0.0393 -0.2558
    1PC     C21 4881   4.470   1.878   6.849 -0.4111 -0.0120 -0.0530
    1PC     O22 4882   4.531   1.788   6.898 -0.4042  0.5958 -0.0223
    1OL     C12 4883   4.526   1.970   6.735  0.0921 -0.2594 -0.0878
    1OL     H2R 4884   4.590   2.050   6.773 -1.3021  0.1351  1.5350
    1OL     H2S 4885   4.434   1.998   6.685 -0.0186 -1.4661 -0.6030
    1OL     C13 4886   4.604   1.900   6.630 -0.2125  0.4723  0.0905
    1OL     H3R 4887   4.544   1.821   6.585  1.3400 -1.0710  0.6075
    1OL     H3S 4888   4.683   1.843   6.679 -0.0870  0.6634  0.1116
    1OL     C14 4889   4.666   1.986   6.518 -0.2283 -0.0637  0.1835
    1OL     H4R 4890   4.718   2.074   6.558 -0.4189  0.0969  0.0836
    1OL     H4S 4891   4.581   2.023   6.460  0.1261  1.9345  0.8582
    1OL     C15 4892   4.772   1.917   6.418  0.7289  0.0639 -0.7010
    1OL     H5R 4893   4.730   1.822   6.385  0.6185  0.1145 -0.7048
    1OL     H5S 4894   4.864   1.897   6.474  1.0819 -0.7460 -1.5479
    1OL     C16 4895   4.796   1.994   6.292  0.1229 -0.0468 -0.4068
    1OL     H6R 4896   4.708   2.027   6.237  0.2811  1.0353 -0.0550
    1OL     H6S 4897   4.843   1.918   6.228 -0.5522 -0.0773 -0.8736
    1OL     C17 4898   4.883   2.118   6.310  0.0897 -0.5569  0.1401
    1OL     H7R 4899   4.976   2.097   6.362  1.9409  2.0811 -1.8478
    1OL     H7S 4900   4.837   2.197   6.369  2.8750 -0.1595  1.9705
    1OL     C18 4901   4.937   2.181   6.177  0.0397 -0.2146 -0.4632
    1OL     H8R 4902   5.000   2.101   6.139  0.6250 -0.7616  1.5566
    1OL     H8S 4903   5.006   2.263   6.201 -0.6435  0.4148 -0.5849
    1OL     C19 4904   4.817   2.217   6.087  0.2769  0.3871  0.5583
    1OL     H9R 4905   4.737   2.260   6.146 -0.4856 -1.2244  0.7375
    1OL    C110 4906   4.811   2.205   5.956 -0.3342 -0.6121  0.1009
    1OL    H10R 4907   4.718   2.245   5.917 -1.0887 -1.6337  0.8021
    1OL    C111 4908   4.911   2.151   5.859 -0.3735  0.3316 -0.5816
    1OL    H11R 4909   5.000   2.124   5.917  0.5983 -0.6096 -2.4324
    1OL    H11S 4910   4.937   2.232   5.791 -2.4716  2.6485  1.1769
    1OL    C112 4911   4.853   2.029   5.780  0.4486 -0.0030 -0.3202
    1OL    H12R 4912   4.758   2.064   5.740 -0.0041  1.0948  1.5857
    1OL    H12S 4913   4.831   1.955   5.857 -3.7152  0.5493 -0.7684
    1OL    C113 4914   4.952   1.983   5.677  0.1285 -0.2725  0.5201
    1OL    H13R 4915   5.046   1.967   5.730  0.5657  0.8814  0.1146
    1OL    H13S 4916   4.965   2.058   5.598  0.4487 -1.2783 -0.4142
    1OL    C114 4917   4.902   1.850   5.622  0.5243  0.0765  0.1074
    1OL    H14R 4918   4.805   1.854   5.572  0.4208  0.2569  0.3197
    1OL    H14S 4919   4.884   1.780   5.703 -2.3036 -0.3211 -0.7770
    1OL    C115 4920   5.009   1.792   5.526  0.0016 -0.8142 -0.3668
    1OL    H15R 4921   5.106   1.793   5.576 -0.5727 -0.0757  0.7865
    1OL    H15S 4922   5.023   1.856   5.439 -1.4628  1.1876  0.7979
    1OL    C116 4923   4.967   1.656   5.465  0.4909  0.1828 -0.7932
    1OL    H16R 4924   4.881   1.654   5.398 -0.6432  0.3465  0.6059
    1OL    H16S 4925   4.941   1.595   5.552 -0.1209  1.5203  0.0064
    1OL    C117 4926   5.090   1.591   5.396 -0.4964 -0.4877  1.4497
    1OL    H17R 4927   5.052   1.491   5.372 -0.3620  0.0394 -1.1491
    1OL    H17S 4928   5.166   1.594   5.475 -0.1725 -0.2446  1.1303
    1OL    C118 4929   5.150   1.658   5.271 -1.0044 -0.4778  0.0822
    1OL    H18R 4930   5.097   1.658   5.176 -0.3754 -0.1893 -0.2788
    1OL    H18S 4931   5.170   1.762   5.298 -0.1613 -1.1366  2.1949
    1OL    H18T 4932   5.251   1.617   5.263 -1.1743 -1.1324  1.0575
    1PA    C116 4933   2.443   2.516   5.334  0.1888  0.1493  0.2779
    1PA    H16R 4934   2.385   2.469   5.255 -0.8126 -0.9307  1.6161
    1PA    H16S 4935   2.442   2.625   5.328 -0.2328  0.2578  1.8319
    1PA    H16T 4936   2.407   2.492   5.434 -0.3082  0.6386  0.2253
    1PA    C115 4937   2.586   2.460   5.327  0.0462  0.4647 -0.4493
    1PA    H15R 4938   2.578   2.358   5.364  0.0192  0.1012 -1.4261
    1PA    H15S 4939   2.627   2.462   5.226 -0.3608 -0.8155 -0.6580
    1PA    C114 4940   2.680   2.527   5.433 -0.5641 -0.6688  0.1219
    1PA    H14R 4941   2.733   2.610   5.386 -1.4639 -0.8291 -1.2186
    1PA    H14S 4942   2.617   2.565   5.513  0.1339 -1.1542  0.9171
    1PA    C113 4943   2.787   2.432   5.477 -0.4370 -0.7213 -0.2068
    1PA    H13R 4944   2.738   2.353   5.534  1.6612 -1.1769  1.0964
    1PA    H13S 4945   2.845   2.393   5.393 -2.0920  1.1108 -2.3145
    1PA    C112 4946   2.880   2.503   5.570  0.1898 -0.3119  0.3173
    1PA    H12R 4947   2.966   2.442   5.598  1.5181  1.1557 -0.4423
    1PA    H12S 4948   2.915   2.592   5.518 -3.8263  0.7139 -1.0201
    1PA    C111 4949   2.807   2.546   5.703  0.1904 -0.1186  0.3457
    1PA    H11R 4950   2.727   2.620   5.702  1.3053  1.1694  1.5015
    1PA    H11S 4951   2.773   2.461   5.760 -0.5573 -0.3486 -0.4242
    1PA    C110 4952   2.908   2.620   5.788 -0.1220  0.2886 -0.2966
    1PA    H10R 4953   2.998   2.559   5.784  0.1548  0.5687  1.0759
    1PA    H10S 4954   2.925   2.723   5.756  0.2752 -0.1408 -1.5429
    1PA     C19 4955   2.871   2.633   5.939 -0.4176 -0.7198  0.0526
    1PA     H9R 4956   2.778   2.691   5.944  0.5389  0.9183 -0.3215
    1PA     H9S 4957   2.844   2.535   5.978  0.4994 -0.7897  0.5261
    1PA     C18 4958   2.982   2.700   6.014 -0.7846  0.4653 -0.5218
    1PA     H8R 4959   3.075   2.646   5.994 -0.1011  1.6615 -0.7095
    1PA     H8S 4960   2.992   2.801   5.974 -0.5843  0.0500 -1.5600
    1PA     C17 4961   2.951   2.692   6.166  0.0683 -0.3603 -0.4941
    1PA     H7R 4962   2.857   2.748   6.179  0.3340  0.7965 -3.0099
    1PA     H7S 4963   2.941   2.590   6.203 -1.5799  0.1511  0.6182
    1PA     C16 4964   3.052   2.766   6.249 -0.1711  0.7507  0.0728
    1PA     H6R 4965   3.145   2.712   6.266  0.2937  1.5268  0.0472
    1PA     H6S 4966   3.074   2.858   6.194 -0.8035  0.1009 -1.3264
    1PA     C15 4967   2.990   2.798   6.379 -0.0357 -0.1434 -0.6561
    1PA     H5R 4968   2.903   2.862   6.365 -2.9481 -3.9820 -1.9410
    1PA     H5S 4969   2.966   2.701   6.424  0.2866  0.4310  0.8300
    1PA     C14 4970   3.099   2.869   6.463  0.6491 -0.0358  0.5086
    1PA     H4R 4971   3.200   2.830   6.449  0.5755  0.2888 -1.0849
    1PA     H4S 4972   3.099   2.977   6.448 -0.6103  0.0249  0.8059
    1PA     C13 4973   3.058   2.855   6.609  1.1191 -0.5587  0.4770
    1PA     H3R 4974   2.956   2.894   6.621  0.9407 -1.2230  1.1894
    1PA     H3S 4975   3.056   2.747   6.624 -3.0336 -0.5023  1.6840
    1PA     C12 4976   3.146   2.931   6.708 -0.8914 -0.5103  0.0938
    1PA     H2R 4977   3.252   2.938   6.685 -1.1500  0.8023 -0.8338
    1PA     H2S 4978   3.104   3.032   6.712 -0.8221 -0.4443 -0.6205
    1PC     C11 4979   3.138   2.864   6.846  0.2489 -0.6629  0.4420
    1PC     O12 4980   3.036   2.840   6.901  0.2919  0.4941  0.3430
    1PC     O11 4981   3.254   2.823   6.891 -0.1189 -0.4805  0.4140
    1PC      C1 4982   3.263   2.766   7.026  0.3025 -0.3674 -0.1653
    1PC      HR 4983   3.367   2.771   7.057  0.8133  1.8593 -2.0088
    1PC      HS 4984   3.215   2.842   7.089 -0.5949 -0.2485 -0.9695
    1PC      C2 4985   3.212   2.620   7.038  0.2425  0.4235 -0.4168
    1PC      HX 4986   3.107   2.610   7.010  0.5494 -1.9185 -0.9391
    1PC      C3 4987   3.238   2.581   7.185  0.5017 -0.1645  0.5956
    1PC      HA 4988   3.200   2.666   7.242 -1.3775  0.3468 -1.2892
    1PC      HB 4989   3.183   2.490   7.207 -1.2179  1.0768  1.6612
    1PC     O31 4990   3.379   2.567   7.221  0.3083 -0.7367  0.3595
    1PC     P31 4991   3.458   2.430   7.221 -0.5885 -0.0894  0.5452
    1PC     O32 4992   3.492   2.410   7.373 -0.6176  0.5557  0.0860
    1PC     C31 4993   3.384   2.405   7.476  0.1168  0.1932 -0.0541
    1PC     H1A 4994   3.287   2.417   7.426 -0.9384  2.0428  2.2069
    1PC     H1B 4995   3.388   2.308   7.527 -1.8946 -0.4646 -1.0397
    1PC     C32 4996   3.403   2.517   7.580  0.5571 -0.0489  0.9880
    1PC     H2A 4997   3.421   2.611   7.527  1.2627 -1.7236 -1.9296
    1PC     H2B 4998   3.315   2.527   7.643 -0.6662  2.5925 -0.9445
    1PC     N31 4999   3.515   2.503   7.685  0.6597 -0.4054 -0.0051
    1PC     C33 5000   3.497   2.376   7.759 -0.0839 -0.3997  0.0041
    1PC     H3A 5001   3.571   2.364   7.839 -0.6565 -1.5292  0.3803
    1PC     H3B 5002   3.400   2.377   7.810 -1.3118  0.6710 -2.2221
    1PC     H3C 5003   3.502   2.292   7.690 -0.9388 -1.5226  1.2412
    1PC     C34 5004   3.649   2.501   7.628  0.4523 -0.2629 -0.2119
    1PC     H4A 5005   3.718   2.492   7.712  0.5428 -0.7369 -0.3358
    1PC     H4B 5006   3.658   2.414   7.562 -1.5005 -0.9858  0.4028
    1PC     H4C 5007   3.661   2.590   7.565 -1.4903 -0.6114 -1.1529
    1PC     C35 5008   3.513   2.610   7.784 -0.3294  0.2339  0.1266
    1PC     H5A 5009   3.513   2.711   7.743 -2.2428  0.1879 -0.0415
    1PC     H5B 5010   3.580   2.596   7.869  0.9653  1.7237 -0.5949
    1PC     H5C 5011   3.412   2.596   7.822 -0.5382 -1.3142 -0.9117
    1PC     O33 5012   3.381   2.317   7.172  0.6395  0.2163 -0.5551
    1PC     O34 5013   3.581   2.466   7.140  0.1193 -0.4737 -0.0268
    1PC     O21 5014   3.290   2.527   6.964 -0.0663 -0.1263 -0.1444
    1PC     C21 5015   3.259   2.514   6.834 -0.2907 -0.1591 -0.0447
    1PC     O22 5016   3.161   2.560   6.777  0.1167  0.1763 -0.2273
    1OL     C12 5017   3.363   2.439   6.761  0.7018 -0.6135  0.2482
    1OL     H2R 5018   3.322   2.345   6.721 -1.7674  0.7073 -0.5801
    1OL     H2S 5019   3.448   2.424   6.827 -0.5220 -0.8286  1.8360
    1OL     C13 5020   3.424   2.522   6.636  0.3597 -0.2385  0.4420
    1OL     H3R 5021   3.503   2.460   6.594 -0.3733 -0.2789 -0.9538
    1OL     H3S 5022   3.470   2.616   6.668  0.6948  0.3554 -1.6647
    1OL     C14 5023   3.324   2.554   6.528 -0.2429  0.3755  0.7305
    1OL     H4R 5024   3.247   2.621   6.567 -0.5049  0.5906 -0.1257
    1OL     H4S 5025   3.273   2.465   6.490  0.5342  0.8658 -1.6285
    1OL     C15 5026   3.401   2.625   6.416 -0.7132  0.3372 -0.3429
    1OL     H5R 5027   3.473   2.694   6.461 -1.1417  0.4235  0.2141
    1OL     H5S 5028   3.330   2.685   6.360  0.4886  2.5128  0.3438
    1OL     C16 5029   3.481   2.529   6.333  0.2731  0.4653 -0.0400
    1OL     H6R 5030   3.411   2.450   6.305  0.0999  0.0592  1.4766
    1OL     H6S 5031   3.558   2.481   6.394 -0.0662  0.2724  0.2385
    1OL     C17 5032   3.549   2.591   6.212  0.6755 -0.7849 -0.1457
    1OL     H7R 5033   3.593   2.505   6.160 -0.0715 -0.3503 -1.5519
    1OL     H7S 5034   3.629   2.655   6.252  0.5287  0.2534 -1.4279
    1OL     C18 5035   3.452   2.660   6.116  0.2947  0.4369  0.4767
    1OL     H8R 5036   3.506   2.690   6.026  1.2005 -0.3667  0.7362
    1OL     H8S 5037   3.430   2.758   6.159  3.6721  2.3054 -1.5507
    1OL     C19 5038   3.339   2.571   6.078  0.2531 -0.3698  0.1196
    1OL     H9R 5039   3.276   2.547   6.163 -0.0049  0.6589  0.2402
    1OL    C110 5040   3.319   2.516   5.960 -0.3346 -0.6041 -0.4005
    1OL    H10R 5041   3.238   2.445   5.942  1.3920 -2.2142 -2.2136
    1OL    C111 5042   3.398   2.552   5.832  0.3146  0.9560  0.4329
    1OL    H11R 5043   3.495   2.503   5.830  0.1268  0.5928 -0.0308
    1OL    H11S 5044   3.421   2.658   5.817 -0.6113  1.0330 -0.5786
    1OL    C112 5045   3.320   2.513   5.708 -0.2609  0.5981 -0.9205
    1OL    H12R 5046   3.228   2.570   5.723 -0.5284 -0.0755  0.1050
    1OL    H12S 5047   3.297   2.407   5.721  1.2674  0.1667 -1.4786
    1OL    C113 5048   3.376   2.542   5.567 -0.6457  0.0313  0.3391
    1OL    H13R 5049   3.473   2.493   5.552 -0.7469  0.0098 -0.2669
    1OL    H13S 5050   3.389   2.650   5.563  0.6634 -0.0875  0.7423
    1OL    C114 5051   3.283   2.494   5.459  0.0443  0.1385  0.2979
    1OL    H14R 5052   3.187   2.546   5.463 -0.0797  0.0768 -1.2960
    1OL    H14S 5053   3.251   2.391   5.470 -1.8535  0.5846 -0.6977
    1OL    C115 5054   3.328   2.528   5.314 -0.2453  0.1379 -0.1657
    1OL    H15R 5055   3.432   2.496   5.301 -0.4167 -0.4290 -0.1565
    1OL    H15S 5056   3.331   2.635   5.291 -1.8599  0.3091  0.3312
    1OL    C116 5057   3.254   2.454   5.200  0.1651 -0.0953 -0.2025
    1OL    H16R 5058   3.254   2.346   5.217 -0.0845 -0.4898 -2.4162
    1OL    H16S 5059   3.298   2.478   5.103 -1.4709  1.1637 -0.6894
    1OL    C117 5060   3.106   2.501   5.200 -0.5353 -0.2529  0.2045
    1OL    H17R 5061   3.095   2.600   5.157  0.7705 -0.6717 -1.1652
    1OL    H17S 5062   3.068   2.513   5.302  0.4970  3.3037  0.3070
    1OL    C118 5063   3.025   2.413   5.107 -0.1215 -0.3104 -0.4079
    1OL    H18R 5064   3.043   2.445   5.004  0.9669 -1.1514 -0.4893
    1OL    H18S 5065   2.919   2.430   5.129 -1.2918 -1.7282 -4.0587
    1OL    H18T 5066   3.055   2.308   5.117 -0.3926 -0.4505 -0.9693
    1PA    C116 5067   3.289   0.472   5.448  0.8215  0.6762  0.1860
    1PA    H16R 5068   3.244   0.375   5.467  1.7884 -0.5142 -3.0173
    1PA    H16S 5069   3.385   0.451   5.401  0.3639  0.6424 -0.7419
    1PA    H16T 5070   3.234   0.533   5.376  1.7456  0.3276 -0.8234
    1PA    C115 5071   3.319   0.540   5.577 -0.4119  0.3188  0.3340
    1PA    H15R 5072   3.418   0.510   5.614  0.2580 -0.3767 -1.8266
    1PA    H15S 5073   3.318   0.646   5.553 -1.4703  0.3538  0.5000
    1PA    C114 5074   3.214   0.517   5.689  0.6063  0.2245 -0.6314
    1PA    H14R 5075   3.202   0.409   5.693  1.1570  0.1743 -0.3432
    1PA    H14S 5076   3.250   0.547   5.788 -1.6627  2.1204 -0.2992
    1PA    C113 5077   3.076   0.590   5.661 -0.0886 -0.0357  0.2788
    1PA    H13R 5078   3.074   0.691   5.620 -1.9512  1.2985  3.3200
    1PA    H13S 5079   3.031   0.522   5.588  1.4213 -0.6292 -0.1299
    1PA    C112 5080   2.983   0.584   5.779  0.1404 -0.0393 -0.9340
    1PA    H12R 5081   2.883   0.625   5.764 -0.8296 -0.8581  2.3821
    1PA    H12S 5082   2.974   0.482   5.817  0.5792  0.6778  1.2641
    1PA    C111 5083   3.019   0.663   5.910  0.4867  0.3293 -0.0036
    1PA    H11R 5084   2.939   0.645   5.983  2.8653  0.7244  2.8845
    1PA    H11S 5085   3.115   0.627   5.947  0.6776 -0.1693 -0.9769
    1PA    C110 5086   3.026   0.811   5.878 -0.5555  0.0746 -0.0126
    1PA    H10R 5087   3.094   0.838   5.797 -0.2624 -1.1793 -0.2069
    1PA    H10S 5088   2.927   0.846   5.848 -2.4294 -3.9833  0.8113
    1PA     C19 5089   3.081   0.907   5.985  0.3963  0.1323  0.3512
    1PA     H9R 5090   3.183   0.872   5.998  1.2553  1.4769 -2.2023
    1PA     H9S 5091   3.089   1.009   5.946 -1.2230  0.3626  0.5455
    1PA     C18 5092   2.989   0.924   6.108  0.2469 -0.2496 -0.2056
    1PA     H8R 5093   2.890   0.954   6.075  0.1055  1.7018  1.7787
    1PA     H8S 5094   2.980   0.832   6.166  1.6952  0.0228  0.5120
    1PA     C17 5095   3.041   1.033   6.212  0.0729  0.1919  0.0787
    1PA     H7R 5096   3.031   1.128   6.159 -2.6141 -0.2134 -0.2682
    1PA     H7S 5097   2.970   1.047   6.293  2.8405  1.4755  2.4406
    1PA     C16 5098   3.177   1.019   6.269 -0.3144 -0.1946  0.6680
    1PA     H6R 5099   3.255   1.042   6.196  3.1136 -2.0760  3.4020
    1PA     H6S 5100   3.201   1.088   6.350  3.0798 -2.3303  1.6836
    1PA     C15 5101   3.207   0.880   6.317 -0.2574  0.8720 -0.5857
    1PA     H5R 5102   3.135   0.850   6.394  1.5805 -1.1149  0.4584
    1PA     H5S 5103   3.200   0.806   6.237  1.6188  1.5657 -1.4428
    1PA     C14 5104   3.339   0.869   6.382 -0.0957 -0.4000 -0.7060
    1PA     H4R 5105   3.411   0.866   6.301  0.1620 -2.3393 -0.4599
    1PA     H4S 5106   3.368   0.949   6.451 -2.2320 -0.1221 -0.0591
    1PA     C13 5107   3.355   0.735   6.456  1.0328  0.4068  0.0676
    1PA     H3R 5108   3.308   0.658   6.394 -0.5504  1.6110 -0.2827
    1PA     H3S 5109   3.464   0.726   6.467  1.0051  0.5604  0.4729
    1PA     C12 5110   3.304   0.723   6.601  0.5484 -0.0773 -0.4249
    1PA     H2R 5111   3.378   0.775   6.663  1.0040  1.2897 -2.0289
    1PA     H2S 5112   3.203   0.765   6.602  1.4136  2.1028  0.2140
    1PC     C11 5113   3.280   0.581   6.635  0.2093  0.3749 -0.7018
    1PC     O12 5114   3.170   0.532   6.630  0.4437 -0.3228 -0.2475
    1PC     O11 5115   3.396   0.519   6.664 -0.0301 -0.8776 -0.3080
    1PC      C1 5116   3.389   0.374   6.697  0.1217  0.0545 -0.1967
    1PC      HR 5117   3.307   0.351   6.766 -1.2606  1.4900 -1.3026
    1PC      HS 5118   3.348   0.313   6.616 -1.3766  1.5233 -0.5781
    1PC      C2 5119   3.523   0.320   6.752 -0.4504 -0.2946 -0.2276
    1PC      HX 5120   3.523   0.212   6.770  0.7934 -0.5100 -1.3552
    1PC      C3 5121   3.575   0.383   6.890  0.5083 -0.0321  0.4645
    1PC      HA 5122   3.664   0.331   6.928  0.0828  0.0045  1.5426
    1PC      HB 5123   3.599   0.486   6.863 -0.6736 -0.0623 -0.8274
    1PC     O31 5124   3.467   0.366   6.983 -0.1080  0.4698  0.6433
    1PC     P31 5125   3.419   0.487   7.075  0.0146  0.1956  0.0536
    1PC     O32 5126   3.327   0.578   6.978  0.0611  0.3919  0.1133
    1PC     C31 5127   3.183   0.573   6.976  0.3130 -0.5454  0.4168
    1PC     H1A 5128   3.158   0.598   6.873 -2.0136 -1.6339  0.6487
    1PC     H1B 5129   3.136   0.480   7.011 -0.1890 -0.8398 -0.9804
    1PC     C32 5130   3.146   0.693   7.068 -0.0385  0.6374  0.0154
    1PC     H2A 5131   3.167   0.660   7.170 -1.4669  1.4938  0.6176
    1PC     H2B 5132   3.207   0.779   7.045  0.2013  1.1351  2.2511
    1PC     N31 5133   3.003   0.743   7.071  0.8184 -0.1677 -0.1497
    1PC     C33 5134   3.003   0.864   7.161 -0.0982 -0.3374  0.1255
    1PC     H3A 5135   3.045   0.845   7.260  3.0720  1.4027 -0.7422
    1PC     H3B 5136   3.054   0.943   7.106  1.1594  0.0100  1.7118
    1PC     H3C 5137   2.897   0.889   7.171  0.0179  0.6507 -0.8973
    1PC     C34 5138   2.964   0.778   6.933  0.0652  0.0758  0.0554
    1PC     H4A 5139   2.886   0.854   6.924 -0.4014 -0.2802  0.9137
    1PC     H4B 5140   3.053   0.820   6.888 -0.0746  1.5769  1.1060
    1PC     H4C 5141   2.940   0.686   6.880  2.5074 -0.0330 -0.9528
    1PC     C35 5142   2.901   0.645   7.134 -1.0789 -1.1359  0.1653
    1PC     H5A 5143   2.921   0.654   7.241  0.8543  1.5145 -0.3092
    1PC     H5B 5144   2.905   0.548   7.085 -4.9643 -0.3700 -1.9964
    1PC     H5C 5145   2.804   0.690   7.115  0.1932  1.9108  0.2555
    1PC     O33 5146   3.331   0.428   7.177  0.4563  0.4839  0.1454
    1PC     O34 5147   3.536   0.567   7.111  0.0295  0.0843 -0.0154
    1PC     O21 5148   3.634   0.345   6.658  0.3666 -0.5777 -0.7033
    1PC     C21 5149   3.633   0.275   6.545  0.2545 -0.1294 -0.6942
    1PC     O22 5150   3.555   0.184   6.516 -0.0035  0.3959 -0.0631
    1OL     C12 5151   3.746   0.313   6.450  0.6673 -0.2920 -0.3593
    1OL     H2R 5152   3.812   0.226   6.456 -1.8328 -2.4168 -1.1639
    1OL     H2S 5153   3.798   0.403   6.482 -2.0176  1.2253  0.0708
    1OL     C13 5154   3.697   0.334   6.302 -0.4457  0.5633  0.3838
    1OL     H3R 5155   3.646   0.431   6.291  1.7676  1.6505 -0.8819
    1OL     H3S 5156   3.625   0.263   6.261 -0.7740  0.1464  1.6398
    1OL     C14 5157   3.815   0.339   6.205 -0.2228  0.1041 -0.1037
    1OL     H4R 5158   3.881   0.253   6.224  2.9951  2.6488  1.2166
    1OL     H4S 5159   3.880   0.421   6.236  0.6686 -0.4622 -0.4116
    1OL     C15 5160   3.789   0.367   6.054 -0.1461 -0.3307 -0.1466
    1OL     H5R 5161   3.728   0.457   6.055  2.1411  1.3176 -1.4164
    1OL     H5S 5162   3.729   0.286   6.013  3.2773 -2.4369 -1.4151
    1OL     C16 5163   3.912   0.394   5.972  0.0964 -0.6281  0.1041
    1OL     H6R 5164   3.940   0.301   5.923  2.2534  1.5094 -3.1040
    1OL     H6S 5165   3.997   0.425   6.033  1.7173 -2.2123 -1.2331
    1OL     C17 5166   3.894   0.494   5.854  0.1111 -0.3807 -0.7379
    1OL     H7R 5167   3.995   0.519   5.822  0.2525 -0.6939 -0.5420
    1OL     H7S 5168   3.858   0.591   5.890  3.6771  0.4495  1.0797
    1OL     C18 5169   3.826   0.438   5.729 -0.2027 -0.4384 -0.1841
    1OL     H8R 5170   3.726   0.405   5.761 -1.6330  0.7435 -3.0595
    1OL     H8S 5171   3.881   0.349   5.700 -1.2815 -1.9845  2.2193
    1OL     C19 5172   3.837   0.542   5.614  0.1367 -0.0061  0.3834
    1OL     H9R 5173   3.798   0.636   5.654  2.3882  0.8618  0.6946
    1OL    C110 5174   3.885   0.538   5.490 -0.0405 -0.2122  0.1322
    1OL    H10R 5175   3.873   0.620   5.420  2.9613 -0.3637 -0.6786
    1OL    C111 5176   3.959   0.421   5.431  0.1886 -0.6577  0.6705
    1OL    H11R 5177   3.899   0.380   5.349 -0.5422 -1.6719  1.6782
    1OL    H11S 5178   3.974   0.338   5.500 -0.2512 -0.9290  0.4491
    1OL    C112 5179   4.089   0.462   5.366 -0.2659  0.1124 -0.2687
    1OL    H12R 5180   4.152   0.492   5.450 -0.6966  0.1959  0.0259
    1OL    H12S 5181   4.084   0.552   5.304  0.5415  0.2254 -0.1848
    1OL    C113 5182   4.161   0.355   5.284 -0.7172  0.3154  0.3347
    1OL    H13R 5183   4.243   0.402   5.228  0.3155 -0.2833  1.2966
    1OL    H13S 5184   4.101   0.328   5.197  0.5671 -0.0495 -0.4734
    1OL    C114 5185   4.206   0.227   5.370 -0.0814  0.3770  0.1482
    1OL    H14R 5186   4.251   0.147   5.311  1.0487  1.3821 -0.3818
    1OL    H14S 5187   4.117   0.183   5.415 -0.8130  2.9377  1.3882
    1OL    C115 5188   4.311   0.274   5.484  0.2573  0.0780 -0.5264
    1OL    H15R 5189   4.289   0.364   5.541  1.2221 -0.8489  1.4102
    1OL    H15S 5190   4.414   0.290   5.451  0.9952  1.3669  2.0895
    1OL    C116 5191   4.316   0.175   5.599  1.0998  0.0535 -0.1925
    1OL    H16R 5192   4.402   0.199   5.661  0.8088  0.2882  0.1239
    1OL    H16S 5193   4.332   0.077   5.552 -1.2377 -0.4623 -0.0537
    1OL    C117 5194   4.197   0.173   5.702  0.0572  0.1368  0.4159
    1OL    H17R 5195   4.136   0.262   5.719 -1.6851 -1.1412  1.1500
    1OL    H17S 5196   4.247   0.167   5.799 -0.0085  3.1397  0.7171
    1OL    C118 5197   4.096   0.050   5.672 -0.4274 -0.3400 -0.3638
    1OL    H18R 5198   4.100  -0.032   5.745 -1.0076  0.8855  1.1189
    1OL    H18S 5199   4.108   0.010   5.572  1.8904 -0.3239 -0.1438
    1OL    H18T 5200   3.994   0.087   5.682 -0.8397 -1.9376  3.1743
    1PA    C116 5201   0.757   1.554   5.375 -0.5036  0.3046  0.0649
    1PA    H16R 5202   0.690   1.511   5.450 -0.9716  1.2632  0.2201
    1PA    H16S 5203   0.848   1.495   5.384 -1.2243 -1.1069 -1.3498
    1PA    H16T 5204   0.723   1.548   5.271 -1.4375 -1.6436  0.4295
    1PA    C115 5205   0.778   1.703   5.419 -0.1370  0.2735 -0.0078
    1PA    H15R 5206   0.830   1.746   5.334  0.6066  0.0844  0.3415
    1PA    H15S 5207   0.681   1.753   5.429 -0.0653  1.6422 -4.3514
    1PA    C114 5208   0.863   1.720   5.550 -0.7961 -0.1432  0.7695
    1PA    H14R 5209   0.951   1.660   5.525 -1.2555  0.5073 -2.8378
    1PA    H14S 5210   0.905   1.821   5.561  1.3970 -0.8544 -0.4260
    1PA    C113 5211   0.793   1.668   5.676  0.0145  0.7225  0.1821
    1PA    H13R 5212   0.741   1.575   5.649 -0.9246  1.7984 -2.0122
    1PA    H13S 5213   0.872   1.647   5.748 -0.6453 -2.0379  0.2333
    1PA    C112 5214   0.697   1.774   5.732  0.6980  0.2476 -0.0085
    1PA    H12R 5215   0.741   1.872   5.751 -0.7929  0.9011  0.1746
    1PA    H12S 5216   0.613   1.791   5.664  0.4180  3.6420  1.0065
    1PA    C111 5217   0.640   1.728   5.868 -0.1066  0.3418 -0.3875
    1PA    H11R 5218   0.573   1.643   5.859  0.0344  0.2252 -0.3391
    1PA    H11S 5219   0.726   1.696   5.928 -1.0313 -0.3450  0.6099
    1PA    C110 5220   0.568   1.840   5.947 -0.2981  0.7310 -0.0735
    1PA    H10R 5221   0.635   1.925   5.935  2.6485 -1.4571 -0.4425
    1PA    H10S 5222   0.469   1.857   5.905 -1.3783 -2.0822  1.0512
    1PA     C19 5223   0.547   1.821   6.098  0.7697  0.0513 -0.5133
    1PA     H9R 5224   0.633   1.766   6.137  0.6614  0.8933  0.9848
    1PA     H9S 5225   0.527   1.919   6.140  1.7043  0.4354 -0.9263
    1PA     C18 5226   0.417   1.745   6.131 -0.1010  0.0187 -0.1176
    1PA     H8R 5227   0.326   1.800   6.104 -1.1421 -1.7407 -0.3599
    1PA     H8S 5228   0.416   1.651   6.074 -0.1258  0.3275 -0.6326
    1PA     C17 5229   0.395   1.711   6.279 -0.8386 -0.7996  0.0497
    1PA     H7R 5230   0.487   1.660   6.309 -0.2717  0.5305  0.6485
    1PA     H7S 5231   0.384   1.808   6.329  4.6494  1.1973 -1.8201
    1PA     C16 5232   0.273   1.627   6.294  0.0201  0.8690 -0.7022
    1PA     H6R 5233   0.176   1.676   6.280 -0.9639 -0.5663  0.8015
    1PA     H6S 5234   0.269   1.540   6.228 -0.3374 -0.1932  0.6967
    1PA     C15 5235   0.260   1.559   6.436  0.1919 -0.2714 -0.8443
    1PA     H5R 5236   0.352   1.506   6.463 -0.3379 -0.1193  1.4459
    1PA     H5S 5237   0.257   1.642   6.506 -1.7391  2.2679 -3.7012
    1PA     C14 5238   0.141   1.455   6.445 -0.5710 -0.0288 -0.5221
    1PA     H4R 5239   0.106   1.463   6.548 -2.4047 -1.1165 -1.0312
    1PA     H4S 5240   0.061   1.470   6.373 -1.3442 -4.7299 -0.8955
    1PA     C13 5241   0.190   1.311   6.422 -0.2721  0.2686  0.1043
    1PA     H3R 5242   0.222   1.293   6.319  1.1823 -0.7327  0.6879
    1PA     H3S 5243   0.284   1.287   6.472 -0.4098  1.7401  1.1226
    1PA     C12 5244   0.075   1.215   6.456 -0.2429 -0.8141 -0.2386
    1PA     H2R 5245  -0.018   1.270   6.439  0.8426  1.5467  0.9785
    1PA     H2S 5246   0.081   1.141   6.376 -1.3780 -0.7200 -0.4260
    1PC     C11 5247   0.094   1.150   6.593  0.1819 -0.2266  0.2080
    1PC     O12 5248   0.193   1.142   6.660 -0.1652  0.7586  0.4426
    1PC     O11 5249  -0.021   1.100   6.634  0.3583  0.3425  0.3393
    1PC      C1 5250  -0.018   1.004   6.747  0.8441 -0.1674 -0.1706
    1PC      HR 5251   0.055   0.925   6.730  1.8186  0.9383 -1.2535
    1PC      HS 5252   0.031   1.059   6.828 -0.3358 -0.3625  0.7131
    1PC      C2 5253  -0.161   0.965   6.802 -0.0523 -0.3838  0.5087
    1PC      HX 5254  -0.215   1.059   6.817 -1.9473 -1.1423 -1.0859
    1PC      C3 5255  -0.161   0.881   6.937  0.3548 -0.3636  1.4346
    1PC      HA 5256  -0.256   0.889   6.992 -0.4914  3.2271 -0.2297
    1PC      HB 5257  -0.148   0.776   6.909  0.2107  0.3153 -1.4542
    1PC     O31 5258  -0.051   0.923   7.011  0.0128 -0.0132 -0.0919
    1PC     P31 5259  -0.068   1.031   7.129  0.0768  0.1330 -0.1893
    1PC     O32 5260  -0.054   1.175   7.055 -0.4816  0.0311  1.4296
    1PC     C31 5261   0.087   1.226   7.038  0.4118  0.4313  0.1315
    1PC     H1A 5262   0.129   1.245   7.137 -1.4713 -2.3212  1.5696
    1PC     H1B 5263   0.143   1.154   6.979 -0.2120  2.6727 -3.5496
    1PC     C32 5264   0.088   1.355   6.955 -0.1964 -0.7294 -0.4047
    1PC     H2A 5265   0.050   1.337   6.854  1.9053 -0.4005 -1.3153
    1PC     H2B 5266   0.015   1.426   6.994  0.4632  0.5594 -1.4052
    1PC     N31 5267   0.214   1.434   6.941  0.1940  0.7394  0.1510
    1PC     C33 5268   0.259   1.483   7.072  0.2693 -0.1463 -0.5311
    1PC     H3A 5269   0.338   1.557   7.056  1.0222 -0.4844  1.2977
    1PC     H3B 5270   0.175   1.535   7.118  0.9197  1.4589 -1.0823
    1PC     H3C 5271   0.299   1.405   7.137 -1.7721 -0.1397  0.8068
    1PC     C34 5272   0.323   1.350   6.883 -0.6201  0.1118  0.1997
    1PC     H4A 5273   0.287   1.329   6.782  1.1259  0.6760 -0.5729
    1PC     H4B 5274   0.416   1.407   6.877  0.7510 -1.9391  0.9090
    1PC     H4C 5275   0.353   1.268   6.948 -0.0974  2.0782  2.6262
    1PC     C35 5276   0.172   1.554   6.852 -0.2958  1.0445 -0.1234
    1PC     H5A 5277   0.080   1.596   6.893 -0.0634  1.8070 -0.3585
    1PC     H5B 5278   0.157   1.499   6.759 -1.6992  0.7466  0.2593
    1PC     H5C 5279   0.255   1.625   6.848 -0.0807  0.7481 -1.6061
    1PC     O33 5280  -0.207   1.026   7.177 -0.4442 -0.2652  0.3728
    1PC     O34 5281   0.046   1.020   7.222  0.0714 -0.1080  0.0882
    1PC     O21 5282  -0.231   0.891   6.702 -0.5748 -0.2131  0.0282
    1PC     C21 5283  -0.339   0.942   6.641 -0.2269 -0.3008 -0.3402
    1PC     O22 5284  -0.395   1.047   6.671  0.0601  0.1390  0.0525
    1OL     C12 5285  -0.371   0.853   6.518  0.0740  0.2550 -1.3280
    1OL     H2R 5286  -0.474   0.818   6.527 -0.5636  2.1312 -0.8859
    1OL     H2S 5287  -0.306   0.765   6.523 -0.1857  0.1470  2.2175
    1OL     C13 5288  -0.357   0.932   6.387  0.8115 -0.5638  0.0382
    1OL     H3R 5289  -0.427   1.015   6.388 -0.8050 -1.7423 -2.9369
    1OL     H3S 5290  -0.378   0.867   6.302  0.4342  1.0110 -1.1235
    1OL     C14 5291  -0.213   0.987   6.362  0.2382 -0.3966 -0.3062
    1OL     H4R 5292  -0.212   1.066   6.438 -1.3805 -0.7953  0.1667
    1OL     H4S 5293  -0.204   1.034   6.264 -0.7519 -0.1612 -0.2972
    1OL     C15 5294  -0.094   0.884   6.367  0.6409  0.1295  0.5011
    1OL     H5R 5295  -0.078   0.848   6.469  1.6907 -1.3548 -0.1326
    1OL     H5S 5296  -0.002   0.927   6.325 -0.2160  1.2079 -0.3228
    1OL     C16 5297  -0.120   0.761   6.286 -0.2755 -0.3760  0.6401
    1OL     H6R 5298  -0.213   0.710   6.310 -2.0445  1.4028 -1.9453
    1OL     H6S 5299  -0.037   0.689   6.290 -0.4874 -0.6527  0.0771
    1OL     C17 5300  -0.137   0.796   6.133 -1.4175  0.1101 -0.2780
    1OL     H7R 5301  -0.059   0.866   6.101 -0.7815 -1.0760 -1.4059
    1OL     H7S 5302  -0.234   0.844   6.121 -1.3965  0.9276  2.1677
    1OL     C18 5303  -0.133   0.676   6.042 -1.1111  0.2236  0.1467
    1OL     H8R 5304  -0.167   0.706   5.943 -1.7258  0.5540  0.4488
    1OL     H8S 5305  -0.206   0.603   6.077 -2.3598  1.6973  0.7183
    1OL     C19 5306   0.012   0.613   6.031  0.2108 -0.6312  0.6706
    1OL     H9R 5307   0.087   0.657   6.096  0.9533 -0.4676 -0.2820
    1OL    C110 5308   0.052   0.542   5.924  0.0937  0.2116 -1.0186
    1OL    H10R 5309   0.156   0.511   5.930 -0.1402 -0.4203  0.0744
    1OL    C111 5310  -0.033   0.480   5.818  0.1071  0.4435  0.1189
    1OL    H11R 5311  -0.140   0.497   5.832  0.3808  1.8920  0.6755
    1OL    H11S 5312  -0.029   0.371   5.811 -3.7920  0.0706  1.5462
    1OL    C112 5313   0.001   0.548   5.681 -0.3494  0.0454  0.0208
    1OL    H12R 5314   0.110   0.551   5.672 -0.1312  0.3731  2.2836
    1OL    H12S 5315  -0.020   0.655   5.679  3.2385  0.8681 -0.9699
    1OL    C113 5316  -0.061   0.481   5.559  0.4483 -0.1275 -0.7109
    1OL    H13R 5317  -0.058   0.373   5.571  0.2552  0.0445  1.1513
    1OL    H13S 5318  -0.004   0.517   5.473  0.3385  2.0897  0.0759
    1OL    C114 5319  -0.207   0.523   5.531  0.1149  0.4641 -0.2484
    1OL    H14R 5320  -0.214   0.632   5.526 -2.3332  0.4612  1.2822
    1OL    H14S 5321  -0.273   0.490   5.612 -1.9379 -0.5690 -2.2340
    1OL    C115 5322  -0.260   0.460   5.399  0.0525  0.5106 -0.0069
    1OL    H15R 5323  -0.248   0.351   5.399 -0.5356  0.3782 -2.6671
    1OL    H15S 5324  -0.209   0.497   5.310 -1.0908 -1.2842 -1.4906
    1OL    C116 5325  -0.417   0.481   5.391  0.3279 -0.0019  0.6257
    1OL    H16R 5326  -0.447   0.586   5.394  1.9969  0.6104 -1.6292
    1OL    H16S 5327  -0.475   0.434   5.470 -0.0333 -0.5833  0.0240
    1OL    C117 5328  -0.465   0.423   5.262  0.0339  0.1217  0.2586
    1OL    H17R 5329  -0.464   0.316   5.284  2.8074 -0.0770 -0.4712
    1OL    H17S 5330  -0.399   0.447   5.179  2.2650 -1.3515  1.4924
    1OL    C118 5331  -0.612   0.453   5.227  0.0499 -0.0314 -0.6104
    1OL    H18R 5332  -0.638   0.393   5.139  0.7248 -0.7574 -0.3290
    1OL    H18S 5333  -0.618   0.559   5.204  1.7158  0.2967  0.3211
    1OL    H18T 5334  -0.675   0.423   5.310  0.1639  1.7323  0.1341
    1PA    C116 5335   3.204   1.346   4.973  0.3265 -0.4466 -0.2503
    1PA    H16R 5336   3.132   1.399   4.910  2.8231  2.5801 -0.7836
    1PA    H16S 5337   3.224   1.249   4.925 -1.5102  0.0290 -2.1378
    1PA    H16T 5338   3.297   1.402   4.984  0.0494  0.2960 -1.5015
    1PA    C115 5339   3.129   1.321   5.103 -0.7258 -0.6554  0.0632
    1PA    H15R 5340   3.036   1.265   5.093 -1.9133  0.9355  1.6123
    1PA    H15S 5341   3.189   1.275   5.182 -0.6517  2.1612  1.7937
    1PA    C114 5342   3.101   1.457   5.172 -0.0837 -0.2003 -0.2480
    1PA    H14R 5343   3.195   1.512   5.167 -0.8364  1.0737 -0.9520
    1PA    H14S 5344   3.042   1.523   5.108  0.1620 -1.8773 -2.3056
    1PA    C113 5345   3.045   1.449   5.317 -0.3474  0.1778  0.3304
    1PA    H13R 5346   2.943   1.418   5.297 -0.4075 -0.4479  1.5213
    1PA    H13S 5347   3.091   1.366   5.371  0.9550  1.3023  1.0323
    1PA    C112 5348   3.061   1.573   5.403 -0.0764 -0.4925 -0.0246
    1PA    H12R 5349   3.166   1.604   5.405 -0.5786  1.5988 -1.9183
    1PA    H12S 5350   2.999   1.648   5.351 -0.1612 -0.3187  0.3253
    1PA    C111 5351   3.010   1.550   5.547 -0.1539  0.0536  0.5344
    1PA    H11R 5352   2.907   1.514   5.547 -0.1384 -0.3184 -2.8078
    1PA    H11S 5353   3.071   1.468   5.586  0.9684  0.3608 -0.4883
    1PA    C110 5354   3.014   1.669   5.646  0.1438  0.4114 -0.1990
    1PA    H10R 5355   3.117   1.692   5.673  0.2188 -1.5824  1.5095
    1PA    H10S 5356   2.970   1.751   5.590 -0.6031 -0.7046 -1.3206
    1PA     C19 5357   2.960   1.644   5.784  0.7751 -0.3232 -0.0312
    1PA     H9R 5358   2.855   1.614   5.775  1.0072 -1.7910  1.6160
    1PA     H9S 5359   3.008   1.557   5.829 -0.4171 -1.1188 -0.2422
    1PA     C18 5360   2.981   1.770   5.877 -0.0021  0.3934  0.2466
    1PA     H8R 5361   3.086   1.783   5.901  0.2264 -1.1782  0.1967
    1PA     H8S 5362   2.949   1.857   5.819 -0.5912  0.3304  0.4708
    1PA     C17 5363   2.892   1.765   6.008 -0.8793 -0.8507  0.3823
    1PA     H7R 5364   2.927   1.853   6.063  1.6721  0.0227 -2.3436
    1PA     H7S 5365   2.790   1.791   5.980 -0.2787  0.8226 -0.4052
    1PA     C16 5366   2.921   1.631   6.090  0.0688 -0.7873 -0.5145
    1PA     H6R 5367   2.890   1.551   6.023 -0.8652 -0.2782 -0.7087
    1PA     H6S 5368   3.029   1.630   6.105  0.0876  1.4937 -0.1268
    1PA     C15 5369   2.845   1.627   6.227  0.2765 -0.0052 -0.8771
    1PA     H5R 5370   2.737   1.626   6.213  0.2029 -1.0983 -0.3258
    1PA     H5S 5371   2.878   1.530   6.265  1.1741  0.4944 -0.3496
    1PA     C14 5372   2.880   1.735   6.334 -0.5995 -0.2498 -0.0170
    1PA     H4R 5373   2.987   1.726   6.351 -0.8184 -1.5975  0.7130
    1PA     H4S 5374   2.865   1.833   6.286  0.9201 -0.5514 -1.1814
    1PA     C13 5375   2.807   1.722   6.464 -0.0356 -0.1294  0.9490
    1PA     H3R 5376   2.701   1.725   6.438  0.4974  2.0945 -1.3056
    1PA     H3S 5377   2.829   1.626   6.511  0.1960 -1.2799 -1.3502
    1PA     C12 5378   2.842   1.837   6.559  0.2892 -0.0854 -0.1926
    1PA     H2R 5379   2.950   1.849   6.567  0.0570  3.3324 -0.6431
    1PA     H2S 5380   2.807   1.934   6.524 -1.5828 -0.3625  0.7499
    1PC     C11 5381   2.778   1.810   6.695  0.1127  0.3822 -0.7763
    1PC     O12 5382   2.813   1.733   6.784 -0.0761  0.2452  0.1273
    1PC     O11 5383   2.680   1.899   6.714  0.0732  0.2015 -0.1016
    1PC      C1 5384   2.636   1.922   6.848 -0.2769  0.0021 -0.2578
    1PC      HR 5385   2.591   1.827   6.880 -3.0103  1.8706  1.8733
    1PC      HS 5386   2.720   1.941   6.916 -0.0311 -0.0668 -0.5394
    1PC      C2 5387   2.521   2.025   6.860  0.7293  0.0481 -0.1586
    1PC      HX 5388   2.561   2.127   6.859 -2.1405  1.3228  1.7165
    1PC      C3 5389   2.445   2.009   6.989  0.2117 -0.0497  0.0602
    1PC      HA 5390   2.373   2.090   7.004  0.7816  0.5082 -0.1437
    1PC      HB 5391   2.397   1.912   6.999  1.2131 -0.4229  1.5883
    1PC     O31 5392   2.530   2.027   7.099 -0.4079 -0.2604 -0.5751
    1PC     P31 5393   2.506   1.961   7.239  0.1522 -0.0786  0.1456
    1PC     O32 5394   2.590   1.813   7.225  0.3151 -0.7301 -0.1673
    1PC     C31 5395   2.729   1.799   7.256 -0.3386 -0.1522  0.3885
    1PC     H1A 5396   2.760   1.863   7.338  5.1809  2.4246 -3.0695
    1PC     H1B 5397   2.742   1.696   7.290 -0.2350 -0.6147 -0.9715
    1PC     C32 5398   2.820   1.837   7.142  0.2163  0.3636  1.1941
    1PC     H2A 5399   2.784   1.782   7.055 -0.8503 -0.4708  2.1296
    1PC     H2B 5400   2.811   1.943   7.118 -0.7160  0.0363  0.0076
    1PC     N31 5401   2.963   1.809   7.158 -0.3680 -0.5642 -0.0615
    1PC     C33 5402   3.029   1.843   7.035 -0.0113  0.1525 -0.1234
    1PC     H3A 5403   3.002   1.944   7.002  0.3429  0.8429  1.6086
    1PC     H3B 5404   3.135   1.822   7.044 -0.3172 -1.1724  0.5435
    1PC     H3C 5405   2.987   1.784   6.953  1.2404  0.2603 -0.8705
    1PC     C34 5406   3.024   1.889   7.269 -0.2399 -0.3310 -0.4455
    1PC     H4A 5407   2.957   1.895   7.354 -0.8641 -0.4105 -0.9305
    1PC     H4B 5408   3.117   1.840   7.299  0.7729  2.0602  0.5553
    1PC     H4C 5409   3.054   1.987   7.230  2.0743  0.5570  3.1224
    1PC     C35 5410   2.985   1.665   7.171  0.1443 -0.0516 -0.1921
    1PC     H5A 5411   3.085   1.638   7.140 -0.9031 -3.7497 -0.8153
    1PC     H5B 5412   2.922   1.616   7.097 -0.2168 -1.5750  1.0697
    1PC     H5C 5413   2.952   1.635   7.271 -0.9516  1.8898  0.0721
    1PC     O33 5414   2.563   2.039   7.350 -0.1707  0.0757  0.8267
    1PC     O34 5415   2.361   1.927   7.249  0.3190  0.3953 -0.1912
    1PC     O21 5416   2.421   2.003   6.754  0.5767 -0.0382 -0.6592
    1PC     C21 5417   2.434   2.063   6.635 -1.2146  0.4838  0.2039
    1PC     O22 5418   2.506   2.161   6.613 -0.8467  0.3755  0.4820
    1OL     C12 5419   2.374   1.994   6.514  0.4145 -0.0055  0.2444
    1OL     H2R 5420   2.294   2.058   6.474  1.1970  0.5563 -0.4510
    1OL     H2S 5421   2.329   1.897   6.534 -1.8096  0.3733 -2.2416
    1OL     C13 5422   2.483   1.973   6.407 -0.0859 -0.4396 -0.4831
    1OL     H3R 5423   2.549   1.899   6.452 -2.1848 -0.9790  1.9580
    1OL     H3S 5424   2.534   2.069   6.395 -1.3681  0.3576  0.1979
    1OL     C14 5425   2.422   1.905   6.278 -0.1164 -0.3302  0.0184
    1OL     H4R 5426   2.366   1.984   6.228 -2.3068 -0.9959  1.3055
    1OL     H4S 5427   2.368   1.816   6.312 -1.4908  0.4174 -0.1275
    1OL     C15 5428   2.544   1.877   6.185  0.2092 -0.0808 -0.1946
    1OL     H5R 5429   2.618   1.812   6.233  0.9912  0.8038 -0.1791
    1OL     H5S 5430   2.597   1.970   6.166  0.0599  0.2116  0.7736
    1OL     C16 5431   2.508   1.810   6.049  0.0449 -0.7473 -0.2814
    1OL     H6R 5432   2.587   1.822   5.975 -0.4719  1.3555 -0.5446
    1OL     H6S 5433   2.418   1.860   6.014 -0.8166 -1.8274  0.3085
    1OL     C17 5434   2.479   1.661   6.057  0.2939  0.0475 -0.2829
    1OL     H7R 5435   2.411   1.651   6.142 -0.4072 -0.0641 -0.8459
    1OL     H7S 5436   2.565   1.599   6.084 -1.4590 -2.9856 -1.1566
    1OL     C18 5437   2.420   1.618   5.915  0.2097 -0.9675 -0.8389
    1OL     H8R 5438   2.360   1.698   5.873  0.9232  0.4156  0.6698
    1OL     H8S 5439   2.352   1.535   5.934 -2.3748  0.7325 -2.1199
    1OL     C19 5440   2.530   1.578   5.823 -0.2689 -0.4149 -0.2815
    1OL     H9R 5441   2.622   1.559   5.878 -1.1255 -1.4745  0.8404
    1OL    C110 5442   2.510   1.539   5.699 -0.3964 -0.2751  0.3036
    1OL    H10R 5443   2.590   1.491   5.644  1.0389 -1.3120  3.1063
    1OL    C111 5444   2.368   1.531   5.630  0.4140  0.1509  0.1539
    1OL    H11R 5445   2.365   1.614   5.560  0.8238 -0.7030 -0.8900
    1OL    H11S 5446   2.298   1.536   5.714 -1.1187 -3.1868 -0.7910
    1OL    C112 5447   2.342   1.400   5.556 -0.5639 -0.1545 -0.0033
    1OL    H12R 5448   2.353   1.321   5.630 -0.2730  1.6041  1.9140
    1OL    H12S 5449   2.420   1.392   5.479  0.9706  0.2421  1.4553
    1OL    C113 5450   2.196   1.395   5.502 -0.2758  0.3288  0.6126
    1OL    H13R 5451   2.175   1.480   5.438 -1.5905 -0.5176 -0.1201
    1OL    H13S 5452   2.135   1.402   5.592  0.1615  2.5776  0.7981
    1OL    C114 5453   2.175   1.260   5.429 -0.3023  0.1076  0.3787
    1OL    H14R 5454   2.067   1.252   5.415 -0.6452  2.2081  1.5484
    1OL    H14S 5455   2.208   1.172   5.486  0.0489  0.1518  0.2508
    1OL    C115 5456   2.244   1.262   5.291 -0.1558  0.1878  0.7840
    1OL    H15R 5457   2.350   1.278   5.308 -0.2701 -0.2213  1.9951
    1OL    H15S 5458   2.203   1.351   5.242  0.8525  0.9028  1.2287
    1OL    C116 5459   2.220   1.129   5.214  0.1007  0.2850  0.3107
    1OL    H16R 5460   2.231   1.050   5.288 -1.2069 -0.2781 -0.0566
    1OL    H16S 5461   2.298   1.118   5.139 -1.6869  0.2069 -1.6556
    1OL    C117 5462   2.075   1.138   5.157  0.1623  0.1389  0.1972
    1OL    H17R 5463   2.060   1.226   5.093  0.2988 -1.0647 -1.5500
    1OL    H17S 5464   2.006   1.146   5.242 -1.2932 -0.3837 -0.8831
    1OL    C118 5465   2.033   1.017   5.077  0.8052 -0.7088 -0.0972
    1OL    H18R 5466   2.120   0.969   5.033  1.5111 -0.0751  0.5711
    1OL    H18S 5467   1.956   1.032   5.002  0.3470 -1.9307  0.1032
    1OL    H18T 5468   1.986   0.946   5.146  0.2549  1.4398  1.8727
    1PA    C116 5469   3.582   4.843   4.724 -0.3295 -0.2817 -0.1396
    1PA    H16R 5470   3.663   4.916   4.734 -2.7733  2.6956 -0.5926
    1PA    H16S 5471   3.532   4.874   4.632 -1.9489  0.5280  0.9745
    1PA    H16T 5472   3.629   4.745   4.714  3.7331  1.0176  3.0421
    1PA    C115 5473   3.472   4.836   4.840  0.0330  0.3840  0.1382
    1PA    H15R 5474   3.431   4.935   4.860 -2.6786 -0.6821  0.1808
    1PA    H15S 5475   3.395   4.766   4.808  0.8543 -0.7859  0.6101
    1PA    C114 5476   3.530   4.772   4.966  0.3514  0.0405  0.2399
    1PA    H14R 5477   3.563   4.671   4.940  1.5970  0.5939 -0.4105
    1PA    H14S 5478   3.627   4.815   4.993  0.3482 -1.2595  2.5737
    1PA    C113 5479   3.429   4.771   5.086  0.2596  0.1377  0.4514
    1PA    H13R 5480   3.331   4.739   5.051  1.2161 -1.1252 -1.2603
    1PA    H13S 5481   3.476   4.694   5.149 -1.9615 -2.8280 -1.2660
    1PA    C112 5482   3.412   4.913   5.151  0.0640 -0.2442  0.7905
    1PA    H12R 5483   3.508   4.958   5.176  0.1989  0.6622 -1.2137
    1PA    H12S 5484   3.370   4.977   5.074 -3.0242 -0.8049  1.8622
    1PA    C111 5485   3.313   4.913   5.276  0.2931 -0.3836 -0.0386
    1PA    H11R 5486   3.279   5.014   5.302  0.0728  0.3746 -2.8830
    1PA    H11S 5487   3.226   4.855   5.247 -0.1279  0.6133 -0.8701
    1PA    C110 5488   3.377   4.856   5.403  0.3814 -0.0618 -0.2058
    1PA    H10R 5489   3.418   4.758   5.380  2.0684  0.4947  0.2634
    1PA    H10S 5490   3.463   4.917   5.430 -0.0665  1.5527 -2.1745
    1PA     C19 5491   3.285   4.853   5.522  0.2658  1.0472  0.4085
    1PA     H9R 5492   3.187   4.809   5.505  0.9379 -1.5786  2.6051
    1PA     H9S 5493   3.340   4.792   5.593  0.6246  1.2276  0.2902
    1PA     C18 5494   3.275   4.997   5.579  0.8197  0.4832 -0.5198
    1PA     H8R 5495   3.364   5.044   5.622 -0.6056  1.3133  1.6818
    1PA     H8S 5496   3.250   5.069   5.502  1.8773  1.0358 -0.3690
    1PA     C17 5497   3.160   5.003   5.687  0.1389 -0.1169  0.1843
    1PA     H7R 5498   3.175   5.097   5.741  0.6618  0.7581 -1.4236
    1PA     H7S 5499   3.067   4.995   5.632 -0.1695  1.0204  0.5007
    1PA     C16 5500   3.157   4.892   5.791 -0.4029  0.6527  0.7219
    1PA     H6R 5501   3.185   4.797   5.746 -1.1026  0.7042  0.1641
    1PA     H6S 5502   3.237   4.910   5.864  0.2014  0.3680  0.1350
    1PA     C15 5503   3.024   4.881   5.864 -0.0351  0.9125  0.1516
    1PA     H5R 5504   2.987   4.977   5.902 -0.7312  1.0508 -0.8441
    1PA     H5S 5505   2.951   4.850   5.788  1.7611 -0.7037 -0.9973
    1PA     C14 5506   3.026   4.784   5.987 -0.4377 -0.4691 -0.1214
    1PA     H4R 5507   3.056   4.685   5.953 -0.3972 -1.3248  2.1681
    1PA     H4S 5508   3.099   4.825   6.057 -0.1664  0.7503 -1.0852
    1PA     C13 5509   2.891   4.764   6.061  0.1673 -0.2802 -0.2939
    1PA     H3R 5510   2.864   4.856   6.115 -0.5598 -1.5369  1.5905
    1PA     H3S 5511   2.807   4.751   5.992 -0.5591 -0.0140  0.5089
    1PA     C12 5512   2.894   4.649   6.161 -0.1029  0.2632 -0.3478
    1PA     H2R 5513   2.796   4.629   6.204  0.6840  2.1231  2.5937
    1PA     H2S 5514   2.927   4.560   6.108  0.3024  2.1401 -3.4605
    1PC     C11 5515   2.987   4.671   6.276  0.0416 -0.6294 -0.4825
    1PC     O12 5516   3.100   4.634   6.283  0.7708  0.0634 -0.3622
    1PC     O11 5517   2.922   4.740   6.371 -0.3272 -0.2356 -0.4219
    1PC      C1 5518   3.001   4.800   6.483 -0.2103 -0.1603  1.2418
    1PC      HR 5519   2.937   4.831   6.566 -0.5415 -1.0073  1.3199
    1PC      HS 5520   3.065   4.721   6.524 -1.2440 -1.2809  0.7627
    1PC      C2 5521   3.099   4.919   6.449  0.1465 -0.2465  0.3563
    1PC      HX 5522   3.195   4.881   6.412  1.0842  1.1597  1.2359
    1PC      C3 5523   3.134   4.993   6.576 -0.6454 -0.1975 -0.5081
    1PC      HA 5524   3.197   5.080   6.558  0.5249 -1.3368 -2.3008
    1PC      HB 5525   3.042   5.032   6.621 -0.9160 -0.8159 -0.5082
    1PC     O31 5526   3.198   4.915   6.679 -0.3363  0.4032 -0.2785
    1PC     P31 5527   3.348   4.864   6.667  0.0303  0.0821 -0.0701
    1PC     O32 5528   3.338   4.742   6.567 -0.0155 -0.8451 -0.1257
    1PC     C31 5529   3.308   4.610   6.613 -0.1635 -0.1672  0.4312
    1PC     H1A 5530   3.396   4.591   6.675  1.2612 -0.1129 -1.4697
    1PC     H1B 5531   3.209   4.600   6.657 -0.2191 -0.0352  0.3362
    1PC     C32 5532   3.330   4.532   6.483  0.5173  0.3244 -0.0233
    1PC     H2A 5533   3.275   4.586   6.405 -0.1733 -0.9618 -0.4537
    1PC     H2B 5534   3.432   4.511   6.452 -0.3028 -0.7075 -2.2609
    1PC     N31 5535   3.273   4.392   6.470  0.2009  0.1027 -0.8641
    1PC     C33 5536   3.334   4.304   6.577  0.2687  0.2776 -0.3012
    1PC     H3A 5537   3.283   4.207   6.580  0.6322  0.1049  0.5312
    1PC     H3B 5538   3.439   4.300   6.547 -0.6372 -0.4417 -3.8947
    1PC     H3C 5539   3.336   4.362   6.669  1.0431 -1.6029  0.9454
    1PC     C34 5540   3.128   4.388   6.490  0.1443 -0.0363  0.7290
    1PC     H4A 5541   3.080   4.474   6.445 -0.7559  0.6513  2.8921
    1PC     H4B 5542   3.081   4.296   6.456 -1.7244  1.2627 -0.3512
    1PC     H4C 5543   3.118   4.384   6.598 -0.1571  0.3280  0.7121
    1PC     C35 5544   3.312   4.344   6.333 -0.3135  0.5350 -0.4561
    1PC     H5A 5545   3.278   4.242   6.314 -2.1963  1.2381 -1.0847
    1PC     H5B 5546   3.420   4.357   6.320 -0.7047  1.8335 -2.9075
    1PC     H5C 5547   3.271   4.414   6.260 -0.1061  1.3310  0.1691
    1PC     O33 5548   3.427   4.967   6.601  0.2449  0.5261 -1.1207
    1PC     O34 5549   3.390   4.819   6.801 -0.3624 -0.2503 -0.2914
    1PC     O21 5550   3.033   5.012   6.357  0.1817 -0.0448 -0.0323
    1PC     C21 5551   3.106   5.077   6.259 -0.3485 -0.2428 -0.5861
    1PC     O22 5552   3.216   5.042   6.230 -0.4217  0.1986  0.0162
    1OL     C12 5553   3.032   5.187   6.188  0.2971 -0.0710 -0.4207
    1OL     H2R 5554   3.051   5.277   6.248  2.5329  0.3788 -1.6724
    1OL     H2S 5555   2.924   5.174   6.178  0.3586 -0.4652 -0.5923
    1OL     C13 5556   3.086   5.215   6.044  0.2599  1.0043  0.2491
    1OL     H3R 5557   3.002   5.264   5.994 -1.0420 -0.9925  0.3616
    1OL     H3S 5558   3.111   5.118   6.001  1.1863  0.5370  1.7743
    1OL     C14 5559   3.206   5.309   6.041  0.2153 -0.2669 -0.1510
    1OL     H4R 5560   3.279   5.278   6.116  2.0423 -0.9137 -2.0842
    1OL     H4S 5561   3.183   5.411   6.073 -1.9785 -0.7921  0.0746
    1OL     C15 5562   3.267   5.316   5.896 -0.0263 -0.6139 -0.9088
    1OL     H5R 5563   3.197   5.377   5.839  0.5850  1.2613  0.2729
    1OL     H5S 5564   3.273   5.216   5.852  0.1273 -0.4151 -1.3418
    1OL     C16 5565   3.398   5.391   5.882 -0.1344 -0.4666 -0.0262
    1OL     H6R 5566   3.469   5.338   5.945 -0.1772 -0.6466 -0.1274
    1OL     H6S 5567   3.388   5.488   5.930  0.6532 -0.7168  0.6672
    1OL     C17 5568   3.438   5.407   5.735  0.8320  0.8952 -0.0418
    1OL     H7R 5569   3.355   5.456   5.684  0.8415  0.8688 -0.0820
    1OL     H7S 5570   3.457   5.304   5.704  0.7503  0.0683  2.3899
    1OL     C18 5571   3.558   5.495   5.716  0.1376  0.6760 -0.7626
    1OL     H8R 5572   3.640   5.437   5.757 -2.3188 -1.3964  1.5666
    1OL     H8S 5573   3.537   5.586   5.773  0.1341 -1.4863  2.9615
    1OL     C19 5574   3.591   5.531   5.567 -0.0651 -0.2790 -0.3820
    1OL     H9R 5575   3.587   5.639   5.553 -1.8066 -0.0047  1.6426
    1OL    C110 5576   3.609   5.460   5.460  0.1108  0.3781  0.0584
    1OL    H10R 5577   3.611   5.506   5.362 -1.1746 -0.4292 -0.3662
    1OL    C111 5578   3.610   5.308   5.460 -0.1479  0.6154 -0.5433
    1OL    H11R 5579   3.549   5.273   5.377 -2.3751  0.6742  0.9752
    1OL    H11S 5580   3.559   5.266   5.547  0.0219  0.6138 -0.4437
    1OL    C112 5581   3.756   5.258   5.449  0.0344  0.3644  0.8885
    1OL    H12R 5582   3.761   5.149   5.437 -1.0096  0.5393 -1.8241
    1OL    H12S 5583   3.814   5.279   5.539  1.6440 -2.4589  0.6313
    1OL    C113 5584   3.837   5.310   5.331 -0.1548 -0.1952  0.1445
    1OL    H13R 5585   3.945   5.291   5.331 -0.0475  0.2938 -1.0782
    1OL    H13S 5586   3.816   5.416   5.319  0.0598 -0.4465 -4.0919
    1OL    C114 5587   3.781   5.246   5.198  0.6437  0.2892 -0.1981
    1OL    H14R 5588   3.691   5.298   5.166  1.1458  1.5315  0.3649
    1OL    H14S 5589   3.754   5.140   5.207  0.2137  0.3869 -0.3491
    1OL    C115 5590   3.887   5.257   5.089 -0.1189  0.5329  0.2831
    1OL    H15R 5591   3.983   5.217   5.122 -1.2526 -2.0242  0.6640
    1OL    H15S 5592   3.902   5.365   5.074 -3.1266  1.1530  1.1190
    1OL    C116 5593   3.848   5.190   4.952 -0.5162  0.7431 -0.3490
    1OL    H16R 5594   3.914   5.237   4.878  1.1548 -0.0818  0.5626
    1OL    H16S 5595   3.742   5.207   4.930 -0.5944  0.8862  0.1331
    1OL    C117 5596   3.868   5.043   4.961 -0.3210 -0.0379 -0.2248
    1OL    H17R 5597   3.790   4.992   4.904  1.2174 -1.7123 -0.9455
    1OL    H17S 5598   3.852   5.010   5.064 -1.6162  0.5305 -0.2211
    1OL    C118 5599   4.001   5.008   4.899  0.3307  0.3234  0.1109
    1OL    H18R 5600   3.990   5.020   4.791 -1.6037 -0.4339  0.1970
    1OL    H18S 5601   4.079   5.073   4.939  0.8026  0.1593 -0.5203
    1OL    H18T 5602   4.039   4.908   4.920  1.7659  0.9564  0.6731
    1PA    C116 5603   3.564   0.909   5.611  0.2743 -0.2390  0.1133
    1PA    H16R 5604   3.635   0.848   5.554  0.0469 -0.4001  0.0024
    1PA    H16S 5605   3.614   1.000   5.645 -0.3974  0.3536 -0.4322
    1PA    H16T 5606   3.487   0.934   5.538  0.9723  1.7802  0.0064
    1PA    C115 5607   3.496   0.842   5.732 -0.2584 -0.1220  0.5691
    1PA    H15R 5608   3.434   0.913   5.787  0.4499 -0.1163  1.3803
    1PA    H15S 5609   3.442   0.754   5.697 -0.5500  0.4012 -0.3120
    1PA    C114 5610   3.613   0.809   5.823  0.2844 -0.3676  0.3527
    1PA    H14R 5611   3.676   0.728   5.786  2.5367 -0.0876  3.2548
    1PA    H14S 5612   3.669   0.901   5.842 -2.6935  1.1658  2.9005
    1PA    C113 5613   3.566   0.766   5.967  0.2534  0.4846  0.8050
    1PA    H13R 5614   3.643   0.765   6.044  0.4325 -1.6146  0.6531
    1PA    H13S 5615   3.487   0.831   6.007  0.8208  1.4914  0.3382
    1PA    C112 5616   3.513   0.623   5.962  0.4242  0.0015 -0.2631
    1PA    H12R 5617   3.432   0.617   5.888 -1.2846 -1.2496  1.6002
    1PA    H12S 5618   3.586   0.549   5.927  0.8104  0.1089  0.3210
    1PA    C111 5619   3.451   0.578   6.094  0.0828  0.4531  0.9145
    1PA    H11R 5620   3.524   0.590   6.174  1.1824  1.4280 -0.2163
    1PA    H11S 5621   3.359   0.634   6.113  0.0323  1.9749 -2.9600
    1PA    C110 5622   3.401   0.429   6.090 -0.3017  0.0851  1.0665
    1PA    H10R 5623   3.347   0.411   5.997  2.5246  0.7639 -0.8171
    1PA    H10S 5624   3.484   0.359   6.094 -0.6268 -0.3608  0.1755
    1PA     C19 5625   3.318   0.395   6.216 -0.1800  0.2736  0.1990
    1PA     H9R 5626   3.312   0.286   6.221  3.0910 -0.0056  0.6970
    1PA     H9S 5627   3.373   0.434   6.302  1.0433 -2.1877  0.6348
    1PA     C18 5628   3.176   0.447   6.197 -0.6334  0.2524 -0.6730
    1PA     H8R 5629   3.167   0.556   6.194  0.4524  0.4045  0.7376
    1PA     H8S 5630   3.143   0.414   6.098  0.2040 -0.1265 -0.8306
    1PA     C17 5631   3.087   0.385   6.311  0.6353  0.6117 -0.7247
    1PA     H7R 5632   3.095   0.277   6.295  0.6537  0.1581  1.8694
    1PA     H7S 5633   3.114   0.413   6.413 -0.6067 -1.1995  0.1640
    1PA     C16 5634   2.943   0.433   6.292  0.1028  1.0569 -0.7224
    1PA     H6R 5635   2.903   0.421   6.191 -0.5883  2.5305 -0.6544
    1PA     H6S 5636   2.884   0.373   6.361  3.3903  2.6868  3.9807
    1PA     C15 5637   2.927   0.573   6.354  0.0220 -0.3392  0.6682
    1PA     H5R 5638   2.980   0.573   6.450 -0.6698 -1.6706  1.0930
    1PA     H5S 5639   2.984   0.641   6.292 -0.3950 -1.1376 -0.6397
    1PA     C14 5640   2.782   0.608   6.374  0.3662 -0.3922 -0.2003
    1PA     H4R 5641   2.733   0.604   6.277  0.6019  0.0985 -0.3448
    1PA     H4S 5642   2.739   0.536   6.444  0.0922 -1.2908 -1.2724
    1PA     C13 5643   2.759   0.754   6.413  0.0563  0.0054 -0.0542
    1PA     H3R 5644   2.786   0.820   6.330  0.1735  0.5010  0.3783
    1PA     H3S 5645   2.653   0.763   6.436 -0.1442 -2.6289  0.3596
    1PA     C12 5646   2.817   0.807   6.549  0.2838  0.0304 -0.0245
    1PA     H2R 5647   2.816   0.724   6.619  2.3074  0.2006  0.2804
    1PA     H2S 5648   2.924   0.832   6.542  0.2797  0.2069  0.4732
    1PC     C11 5649   2.733   0.917   6.613 -0.4504 -0.1581  0.3830
    1PC     O12 5650   2.647   0.981   6.553  0.2084 -0.4387  0.4394
    1PC     O11 5651   2.758   0.927   6.739 -0.0642 -0.5809 -0.5303
    1PC      C1 5652   2.655   0.997   6.821 -0.7734 -0.2240  0.6098
    1PC      HR 5653   2.704   1.019   6.916  0.5167 -3.5517  0.8303
    1PC      HS 5654   2.633   1.090   6.768 -0.5748 -0.5718 -0.0850
    1PC      C2 5655   2.527   0.918   6.849  0.0098 -0.9119  0.0993
    1PC      HX 5656   2.462   0.978   6.913 -1.5960 -0.3278 -1.9909
    1PC      C3 5657   2.560   0.785   6.913  0.1672 -0.0220 -0.5210
    1PC      HA 5658   2.465   0.733   6.930 -0.6964  2.0988  1.7196
    1PC      HB 5659   2.637   0.739   6.851  1.1756 -0.3642  0.9348
    1PC     O31 5660   2.606   0.807   7.051  0.4861  0.0595  0.3305
    1PC     P31 5661   2.548   0.714   7.168 -0.1313  0.2386  0.2428
    1PC     O32 5662   2.389   0.740   7.172 -0.6137 -0.5143 -0.2757
    1PC     C31 5663   2.326   0.810   7.285  0.1217 -0.2899 -0.2988
    1PC     H1A 5664   2.383   0.899   7.311 -0.4987  0.1826 -0.5589
    1PC     H1B 5665   2.229   0.848   7.253 -0.9054 -0.7238  2.0194
    1PC     C32 5666   2.318   0.710   7.400  0.2777 -0.8857 -0.4773
    1PC     H2A 5667   2.266   0.618   7.377 -3.9272  0.3502  2.7837
    1PC     H2B 5668   2.420   0.695   7.436  0.5160 -1.7138 -1.4592
    1PC     N31 5669   2.241   0.769   7.515 -0.0662  0.1570 -0.1236
    1PC     C33 5670   2.099   0.790   7.473 -0.3186  0.0788 -0.1017
    1PC     H3A 5671   2.038   0.788   7.564 -0.6717  3.2764 -0.1328
    1PC     H3B 5672   2.094   0.891   7.432 -1.0937 -0.5322 -1.5852
    1PC     H3C 5673   2.062   0.708   7.412 -1.3177 -0.0345  0.6282
    1PC     C34 5674   2.250   0.683   7.637  0.4187  0.1127  0.1743
    1PC     H4A 5675   2.356   0.661   7.651  0.7765  0.2245 -2.0324
    1PC     H4B 5676   2.221   0.745   7.722  1.5012 -0.2344  0.8163
    1PC     H4C 5677   2.188   0.594   7.625  0.3613  0.3565 -1.6364
    1PC     C35 5678   2.301   0.895   7.563 -0.0588 -0.2194  0.9416
    1PC     H5A 5679   2.404   0.873   7.591 -0.4258 -1.8357  1.1519
    1PC     H5B 5680   2.251   0.928   7.654 -0.5899 -1.5840  1.1643
    1PC     H5C 5681   2.283   0.975   7.492 -0.2681 -1.3148 -0.2599
    1PC     O33 5682   2.573   0.576   7.115 -0.7359  0.3420  0.1775
    1PC     O34 5683   2.613   0.763   7.293  0.3759  0.8367 -0.3874
    1PC     O21 5684   2.444   0.886   6.740 -0.0516  0.2083 -0.0215
    1PC     C21 5685   2.354   0.977   6.693 -0.0580  0.2471 -0.1659
    1PC     O22 5686   2.323   1.084   6.747 -0.4938 -0.5576 -0.1873
    1OL     C12 5687   2.279   0.921   6.573 -0.2267 -0.6007 -0.2187
    1OL     H2R 5688   2.178   0.896   6.605 -0.3182  0.6743  0.5458
    1OL     H2S 5689   2.323   0.823   6.552  1.1013 -0.0697 -0.0640
    1OL     C13 5690   2.280   1.026   6.461 -0.1793 -0.2630 -0.1136
    1OL     H3R 5691   2.384   1.043   6.433  0.0504  1.4148  1.6130
    1OL     H3S 5692   2.245   1.126   6.486  1.7373  0.5380 -0.4746
    1OL     C14 5693   2.211   0.974   6.337  0.1888  0.3646 -0.8545
    1OL     H4R 5694   2.211   1.055   6.264  0.5209  0.0160 -1.2441
    1OL     H4S 5695   2.115   0.947   6.383  1.0664  0.6433  1.2564
    1OL     C15 5696   2.267   0.851   6.284 -0.7349 -0.6515  0.1405
    1OL     H5R 5697   2.203   0.811   6.206 -1.0896  0.9264 -0.4034
    1OL     H5S 5698   2.271   0.767   6.354 -0.5298 -2.9427 -2.4407
    1OL     C16 5699   2.407   0.878   6.212  0.0244  0.9936 -0.1944
    1OL     H6R 5700   2.479   0.910   6.286  1.7031  1.7024 -2.0370
    1OL     H6S 5701   2.392   0.948   6.129  1.2515 -1.5230 -2.7113
    1OL     C17 5702   2.477   0.756   6.147 -0.0192 -0.0897 -0.4222
    1OL     H7R 5703   2.396   0.704   6.094 -2.9244  0.7721  2.7931
    1OL     H7S 5704   2.491   0.689   6.232  0.5624 -2.1465 -2.0411
    1OL     C18 5705   2.599   0.786   6.056 -0.0122  0.1833 -0.8268
    1OL     H8R 5706   2.673   0.844   6.112  1.2458 -0.2177 -2.0091
    1OL     H8S 5707   2.564   0.851   5.976  0.4466 -1.9892 -2.8863
    1OL     C19 5708   2.664   0.663   6.001  0.5341 -0.7153  0.3715
    1OL     H9R 5709   2.739   0.617   6.065 -1.0943 -1.5180  1.8123
    1OL    C110 5710   2.631   0.601   5.889  0.2001  0.0555 -0.0976
    1OL    H10R 5711   2.669   0.500   5.869  1.7420 -0.0429  2.7084
    1OL    C111 5712   2.514   0.637   5.800  0.1095  0.1663  0.2141
    1OL    H11R 5713   2.470   0.731   5.832 -0.6816 -0.2355  0.3445
    1OL    H11S 5714   2.436   0.562   5.818  1.1889 -0.2361  4.0847
    1OL    C112 5715   2.554   0.636   5.657  0.6758  0.1554  0.1828
    1OL    H12R 5716   2.466   0.623   5.594 -0.5763 -2.0700  2.2691
    1OL    H12S 5717   2.619   0.552   5.634 -0.5751  0.1107 -4.0894
    1OL    C113 5718   2.616   0.766   5.600  0.3710  0.0413 -0.4751
    1OL    H13R 5719   2.709   0.783   5.654  0.5805 -0.7325 -0.5706
    1OL    H13S 5720   2.550   0.849   5.626  0.6087  0.4138 -1.0572
    1OL    C114 5721   2.650   0.761   5.450 -0.0973  0.6786  0.4170
    1OL    H14R 5722   2.678   0.856   5.404 -1.0370  0.0630 -1.5110
    1OL    H14S 5723   2.564   0.726   5.393  0.1186  0.9572 -0.0829
    1OL    C115 5724   2.768   0.663   5.426 -0.6309  0.2811 -0.2509
    1OL    H15R 5725   2.748   0.562   5.464 -0.3632  1.1483  2.3861
    1OL    H15S 5726   2.850   0.715   5.476  1.5747 -2.1255 -1.1003
    1OL    C116 5727   2.800   0.645   5.279  1.2878 -0.0677  0.1775
    1OL    H16R 5728   2.905   0.616   5.268  1.9283  1.9713  0.5808
    1OL    H16S 5729   2.782   0.734   5.219  1.7006 -0.7865 -1.0557
    1OL    C117 5730   2.716   0.533   5.209 -0.2732  0.4749 -0.0659
    1OL    H17R 5731   2.718   0.546   5.101 -2.7047  2.2130  0.0253
    1OL    H17S 5732   2.612   0.546   5.238  0.3399  0.7686  2.1799
    1OL    C118 5733   2.764   0.386   5.228  0.4401 -0.0275 -0.8544
    1OL    H18R 5734   2.792   0.362   5.331 -1.3705  0.7457 -0.1390
    1OL    H18S 5735   2.857   0.386   5.171 -0.4067  0.6811 -2.3010
    1OL    H18T 5736   2.700   0.305   5.193  0.8208  0.0102 -1.6647
    1PA    C116 5737   4.813   3.175   5.324  0.5106 -1.2407 -0.5333
    1PA    H16R 5738   4.868   3.146   5.414 -0.4867 -1.1131  0.1380
    1PA    H16S 5739   4.849   3.266   5.276 -0.1501 -1.1775 -0.9300
    1PA    H16T 5740   4.814   3.090   5.255 -0.0938 -0.9015 -0.9705
    1PA    C115 5741   4.671   3.196   5.373  0.0585  0.6433  1.3752
    1PA    H15R 5742   4.587   3.185   5.304  0.4312 -0.0591  1.0314
    1PA    H15S 5743   4.664   3.122   5.453 -1.5507  0.2962  0.9425
    1PA    C114 5744   4.664   3.330   5.440  0.4942 -0.3538 -0.2174
    1PA    H14R 5745   4.741   3.341   5.516 -0.4013  0.7833  0.5583
    1PA    H14S 5746   4.670   3.408   5.364  0.7581  1.2988  1.4253
    1PA    C113 5747   4.528   3.355   5.506 -0.5449  0.0257  0.5462
    1PA    H13R 5748   4.510   3.463   5.516 -2.0767 -0.3263  2.1194
    1PA    H13S 5749   4.466   3.319   5.423 -1.3117  0.6000  0.8495
    1PA    C112 5750   4.503   3.266   5.631 -0.0012  0.5983 -0.3254
    1PA    H12R 5751   4.403   3.281   5.672 -0.5489  0.2509 -1.4877
    1PA    H12S 5752   4.493   3.166   5.589  1.5211  0.4787 -0.4789
    1PA    C111 5753   4.600   3.271   5.755 -0.1482 -0.0769  0.2705
    1PA    H11R 5754   4.705   3.257   5.726  0.3532  1.7536  1.0343
    1PA    H11S 5755   4.574   3.363   5.808  0.8266 -0.0529  0.7192
    1PA    C110 5756   4.551   3.150   5.836  0.3500  0.2997  0.5596
    1PA    H10R 5757   4.442   3.140   5.838 -0.0700  1.7882 -3.7428
    1PA    H10S 5758   4.585   3.059   5.785 -0.4534 -1.1926  2.5822
    1PA     C19 5759   4.607   3.157   5.978  0.4729  0.7186  0.3154
    1PA     H9R 5760   4.712   3.185   5.972  0.5779  0.7670  1.8865
    1PA     H9S 5761   4.544   3.228   6.032  1.0687  2.1010 -0.7478
    1PA     C18 5762   4.600   3.017   6.047  1.1343  0.2138  0.5297
    1PA     H8R 5763   4.655   2.953   5.979  0.8185 -0.1606  0.6210
    1PA     H8S 5764   4.657   3.028   6.140  0.8159 -0.6497  0.8356
    1PA     C17 5765   4.454   2.966   6.072  0.2321  0.6832 -0.2724
    1PA     H7R 5766   4.396   3.036   6.132 -2.9235 -1.6415 -0.3587
    1PA     H7S 5767   4.406   2.972   5.974 -1.8055 -1.9251  0.4423
    1PA     C16 5768   4.443   2.824   6.124  0.0244  0.1196  0.2953
    1PA     H6R 5769   4.343   2.786   6.100  0.4373 -1.5487  1.0434
    1PA     H6S 5770   4.525   2.763   6.086  0.5639  1.5395 -0.9166
    1PA     C15 5771   4.439   2.807   6.277  0.1040 -0.4166  0.0485
    1PA     H5R 5772   4.433   2.699   6.293  0.2599 -0.2757  1.1385
    1PA     H5S 5773   4.533   2.837   6.323  0.1481  0.0638 -0.3456
    1PA     C14 5774   4.332   2.891   6.361  0.2064  0.0652 -0.5899
    1PA     H4R 5775   4.346   2.999   6.356 -0.1042  0.2784  1.8080
    1PA     H4S 5776   4.232   2.878   6.318  0.1195 -1.4274 -0.0220
    1PA     C13 5777   4.329   2.846   6.512  0.1478  0.3700 -0.4429
    1PA     H3R 5778   4.252   2.913   6.550 -1.0363 -1.0626 -0.1894
    1PA     H3S 5779   4.296   2.744   6.537 -1.6173  1.0465  0.1443
    1PA     C12 5780   4.463   2.883   6.584  1.2129  1.1701 -0.8269
    1PA     H2R 5781   4.459   2.851   6.689 -0.0661  1.4634 -0.7689
    1PA     H2S 5782   4.547   2.836   6.532 -0.0308 -0.1165 -1.7676
    1PC     C11 5783   4.486   3.030   6.574  0.2843  0.1952 -0.0804
    1PC     O12 5784   4.579   3.076   6.514  0.6780  0.0680 -0.6446
    1PC     O11 5785   4.392   3.103   6.633 -0.2365 -0.4337 -0.0033
    1PC      C1 5786   4.376   3.242   6.588 -0.3360  0.0917 -0.0065
    1PC      HR 5787   4.474   3.291   6.585 -0.6348  0.7177  0.1477
    1PC      HS 5788   4.328   3.239   6.489 -1.4529 -2.8958  0.5277
    1PC      C2 5789   4.292   3.317   6.688 -0.5767 -0.2534 -0.6327
    1PC      HX 5790   4.284   3.424   6.668 -1.1546  0.4020  2.5386
    1PC      C3 5791   4.341   3.303   6.835 -0.2412  0.5036 -0.2493
    1PC      HA 5792   4.325   3.198   6.861 -2.0172  0.5983 -0.8247
    1PC      HB 5793   4.441   3.344   6.852 -0.0004 -0.6045  1.1897
    1PC     O31 5794   4.249   3.356   6.935  0.1602 -0.2227  0.8951
    1PC     P31 5795   4.232   3.508   6.968 -0.0580 -0.0585  0.2743
    1PC     O32 5796   4.137   3.559   6.856  0.6931  0.0600 -0.6006
    1PC     C31 5797   3.995   3.588   6.886  0.0911  0.1086  0.3954
    1PC     H1A 5798   3.948   3.587   6.787  1.6285  0.4603 -0.3915
    1PC     H1B 5799   3.945   3.507   6.938 -1.9080  0.2619 -1.1723
    1PC     C32 5800   3.983   3.718   6.966  0.0557 -0.0626  0.4363
    1PC     H2A 5801   4.011   3.709   7.071 -1.7389  0.6528  1.0317
    1PC     H2B 5802   4.053   3.790   6.924 -1.2965  0.9367 -0.2156
    1PC     N31 5803   3.850   3.783   6.966  0.5808 -1.1946  0.0838
    1PC     C33 5804   3.829   3.848   6.835 -0.0834 -0.7270 -0.1548
    1PC     H3A 5805   3.888   3.940   6.834  1.2365 -1.5282  0.8221
    1PC     H3B 5806   3.866   3.789   6.751  1.2356  3.8430 -3.2028
    1PC     H3C 5807   3.722   3.861   6.823 -0.0149  2.1894  1.4640
    1PC     C34 5808   3.742   3.684   6.989 -0.4001  0.2865  0.9764
    1PC     H4A 5809   3.731   3.660   7.094  1.6225 -1.4233  0.8620
    1PC     H4B 5810   3.650   3.736   6.961 -0.7792 -0.7104  0.2950
    1PC     H4C 5811   3.754   3.596   6.925 -0.3451  0.1886  1.1222
    1PC     C35 5812   3.838   3.878   7.076  0.0174  0.5407 -0.0251
    1PC     H5A 5813   3.864   3.823   7.167 -1.8372 -0.3982 -0.0046
    1PC     H5B 5814   3.731   3.896   7.087 -0.2802 -1.6765  1.6032
    1PC     H5C 5815   3.906   3.960   7.058  3.3734 -2.2005 -0.8470
    1PC     O33 5816   4.178   3.527   7.104  0.2943  0.0111 -0.1536
    1PC     O34 5817   4.358   3.574   6.934 -0.2020  0.3985 -0.3073
    1PC     O21 5818   4.155   3.267   6.688 -0.4723 -0.0539  0.0933
    1PC     C21 5819   4.078   3.300   6.577  0.3343 -0.2487  0.5461
    1PC     O22 5820   4.106   3.372   6.485  0.6941 -0.7081 -0.1944
    1OL     C12 5821   3.950   3.219   6.587  0.5245  0.2298 -0.0618
    1OL     H2R 5822   3.868   3.284   6.554  1.1584  1.8294  1.3289
    1OL     H2S 5823   3.937   3.199   6.694 -1.0160  0.8021 -0.1182
    1OL     C13 5824   3.941   3.090   6.511  0.1628 -0.4423 -0.2567
    1OL     H3R 5825   3.867   3.029   6.563  0.6357  1.3368  2.7216
    1OL     H3S 5826   4.038   3.043   6.529  0.8037 -0.2733 -2.9095
    1OL     C14 5827   3.914   3.109   6.363  0.2974  0.5074  0.5919
    1OL     H4R 5828   3.986   3.185   6.331  0.3555  0.1950 -0.0516
    1OL     H4S 5829   3.813   3.148   6.351 -0.0730 -0.5967 -0.1237
    1OL     C15 5830   3.920   2.985   6.286 -0.2602  0.6918  0.4755
    1OL     H5R 5831   3.831   2.927   6.311 -0.2907  0.4251 -0.2144
    1OL     H5S 5832   4.005   2.923   6.314  1.1584  2.0076 -0.7686
    1OL     C16 5833   3.923   3.009   6.134  0.0910  0.6212  0.0956
    1OL     H6R 5834   3.981   2.928   6.090  0.8758  1.6923 -0.8891
    1OL     H6S 5835   3.973   3.104   6.112  0.5812  0.2766 -0.2871
    1OL     C17 5836   3.784   3.016   6.058  0.5716  0.5698  0.4672
    1OL     H7R 5837   3.719   3.097   6.090 -0.5467  0.4096 -1.2630
    1OL     H7S 5838   3.736   2.918   6.065 -1.7491  1.6086  0.1394
    1OL     C18 5839   3.814   3.041   5.909  0.0171 -0.0730  0.3495
    1OL     H8R 5840   3.725   3.029   5.846  0.8765 -0.4065 -0.8446
    1OL     H8S 5841   3.884   2.967   5.869 -2.0099 -1.0275 -1.6915
    1OL     C19 5842   3.869   3.175   5.880  0.1152  0.4992 -0.3256
    1OL     H9R 5843   3.837   3.258   5.943  0.8070 -0.5478  1.4693
    1OL    C110 5844   3.957   3.195   5.784 -0.0485  0.3072  0.4011
    1OL    H10R 5845   3.995   3.294   5.758 -2.1560  0.3147 -3.1600
    1OL    C111 5846   4.016   3.083   5.695  0.1233  0.7243  0.1979
    1OL    H11R 5847   4.027   3.135   5.599 -2.2499 -1.0324 -1.1271
    1OL    H11S 5848   3.943   3.003   5.678  2.1816 -0.8819 -1.5529
    1OL    C112 5849   4.151   3.028   5.744  0.4317  0.3129  0.4116
    1OL    H12R 5850   4.136   2.971   5.836 -0.5707 -1.3181 -0.7237
    1OL    H12S 5851   4.212   3.115   5.770 -0.5161  1.6173 -1.4836
    1OL    C113 5852   4.222   2.945   5.636  0.6783  0.5384 -0.4358
    1OL    H13R 5853   4.252   3.005   5.550 -2.3788 -0.3344 -2.2801
    1OL    H13S 5854   4.164   2.865   5.591  1.8917 -0.3200 -0.5244
    1OL    C114 5855   4.345   2.878   5.697  1.1559  0.0161 -1.3687
    1OL    H14R 5856   4.316   2.832   5.791  1.4108  2.2167 -0.1411
    1OL    H14S 5857   4.407   2.966   5.718 -0.1299  0.5498  0.4121
    1OL    C115 5858   4.409   2.772   5.599  0.0359 -0.7432  0.9135
    1OL    H15R 5859   4.442   2.824   5.509  2.0436  1.0398  2.5612
    1OL    H15S 5860   4.333   2.700   5.568 -1.2229  1.2262 -0.8614
    1OL    C116 5861   4.526   2.688   5.653  0.1260 -0.1254 -0.0088
    1OL    H16R 5862   4.563   2.619   5.577  1.8036 -0.9847  1.5218
    1OL    H16S 5863   4.482   2.634   5.737 -1.7135  1.1715 -0.0752
    1OL    C117 5864   4.655   2.771   5.695 -0.2735  0.1009 -0.2501
    1OL    H17R 5865   4.734   2.702   5.725  0.5006  1.5048  1.1197
    1OL    H17S 5866   4.637   2.831   5.785 -0.1891  0.6606 -0.5997
    1OL    C118 5867   4.720   2.861   5.581  0.0877 -0.2347  0.3067
    1OL    H18R 5868   4.758   2.803   5.497  1.7784  1.0991  0.0712
    1OL    H18S 5869   4.807   2.918   5.615 -0.3205 -1.3247  3.6033
    1OL    H18T 5870   4.643   2.930   5.546  2.1384  1.7517 -0.5944
    1PA    C116 5871   3.282   1.868   5.235 -0.2556 -1.0486 -0.7468
    1PA    H16R 5872   3.197   1.800   5.227 -2.0082  0.6392  1.7996
    1PA    H16S 5873   3.352   1.835   5.312  0.7188  0.2291 -1.0397
    1PA    H16T 5874   3.331   1.879   5.138 -0.0134  2.0278 -0.3861
    1PA    C115 5875   3.217   2.007   5.272 -0.2601 -0.0279  0.0922
    1PA    H15R 5876   3.296   2.081   5.284  1.1916 -1.7199  1.6849
    1PA    H15S 5877   3.147   2.029   5.191 -2.0976 -2.1379  1.0172
    1PA    C114 5878   3.139   1.995   5.398 -0.4566  0.3613 -0.1253
    1PA    H14R 5879   3.058   1.922   5.395 -1.8253  1.6556  2.0810
    1PA    H14S 5880   3.204   1.975   5.483  2.0075 -0.0298 -1.9910
    1PA    C113 5881   3.072   2.130   5.415  0.4131 -0.2314  0.0975
    1PA    H13R 5882   3.146   2.211   5.414 -0.4588  0.5854 -0.9233
    1PA    H13S 5883   3.001   2.138   5.332 -1.6022 -2.4855  1.4782
    1PA    C112 5884   2.996   2.135   5.549 -0.1509 -0.1134  0.2107
    1PA    H12R 5885   2.910   2.201   5.532 -1.1326 -1.8013 -1.8417
    1PA    H12S 5886   2.951   2.038   5.572 -0.7361 -0.0486 -0.6073
    1PA    C111 5887   3.071   2.192   5.668 -0.6453 -0.0933  0.1139
    1PA    H11R 5888   3.162   2.133   5.679  1.6025  3.2956  0.8356
    1PA    H11S 5889   3.102   2.292   5.638  0.5341 -0.2693  0.7218
    1PA    C110 5890   2.981   2.195   5.792 -0.3987  0.0342  0.2680
    1PA    H10R 5891   2.900   2.264   5.767 -1.0698 -0.0368  2.1085
    1PA    H10S 5892   2.938   2.098   5.817 -0.9847 -0.2715 -1.7282
    1PA     C19 5893   3.051   2.243   5.919 -0.5217  0.5164  0.2871
    1PA     H9R 5894   3.079   2.348   5.903 -0.4763  0.0693 -3.6028
    1PA     H9S 5895   2.976   2.244   5.997  1.1687 -1.9335  2.0873
    1PA     C18 5896   3.169   2.146   5.957  0.2583  0.0964 -0.2453
    1PA     H8R 5897   3.128   2.045   5.955 -2.7474  1.0995  1.8898
    1PA     H8S 5898   3.258   2.160   5.896  0.5243 -0.0173  0.1097
    1PA     C17 5899   3.218   2.172   6.103 -0.2498  0.2502  0.2622
    1PA     H7R 5900   3.256   2.274   6.101 -1.9394  0.9704  1.8888
    1PA     H7S 5901   3.132   2.160   6.169 -0.9964 -1.1054 -0.8827
    1PA     C16 5902   3.332   2.078   6.147 -0.3462 -0.2860 -0.3504
    1PA     H6R 5903   3.284   1.983   6.173 -0.4142 -0.2808 -0.4585
    1PA     H6S 5904   3.401   2.052   6.067 -0.0558 -0.2637 -0.1109
    1PA     C15 5905   3.406   2.135   6.267 -0.6552  0.2874 -0.1393
    1PA     H5R 5906   3.434   2.236   6.236 -0.7506  0.5261  0.5399
    1PA     H5S 5907   3.349   2.127   6.360  0.7431  2.6115  1.0318
    1PA     C14 5908   3.545   2.062   6.282  0.2804 -0.6308  0.1078
    1PA     H4R 5909   3.520   1.958   6.304  0.3811 -0.2270  2.3940
    1PA     H4S 5910   3.607   2.077   6.194 -0.5726 -0.2817 -0.4428
    1PA     C13 5911   3.622   2.111   6.405 -0.4975 -0.0607 -0.6413
    1PA     H3R 5912   3.631   2.220   6.413  0.9036 -0.2280  0.6048
    1PA     H3S 5913   3.566   2.069   6.489  0.5528 -1.2988 -0.5140
    1PA     C12 5914   3.766   2.048   6.406  0.6976 -0.0394 -0.4312
    1PA     H2R 5915   3.746   1.941   6.401  0.8269 -0.0712 -0.2484
    1PA     H2S 5916   3.829   2.073   6.321  2.2851 -0.5597  0.5593
    1PC     C11 5917   3.844   2.096   6.525 -0.0404  0.7895  0.0548
    1PC     O12 5918   3.812   2.083   6.639  0.6187  0.1143  0.6523
    1PC     O11 5919   3.956   2.161   6.484  1.0533  0.2366 -0.1774
    1PC      C1 5920   4.024   2.238   6.591  0.3528  0.2125 -0.8718
    1PC      HR 5921   4.083   2.323   6.556  2.0929 -0.8453 -0.6554
    1PC      HS 5922   3.951   2.274   6.664  1.5867 -0.5435  0.7931
    1PC      C2 5923   4.127   2.162   6.677 -0.0163  0.3701 -0.0791
    1PC      HX 5924   4.070   2.097   6.745  1.8459  0.3894  1.5955
    1PC      C3 5925   4.211   2.246   6.769  0.5425 -0.2366  0.1464
    1PC      HA 5926   4.279   2.179   6.823  1.1446  0.4192  0.2199
    1PC      HB 5927   4.273   2.315   6.711  0.7242 -0.3575  0.1960
    1PC     O31 5928   4.127   2.320   6.854 -0.3135  0.0553  0.4772
    1PC     P31 5929   4.104   2.282   7.010  0.0281  0.1076  0.3526
    1PC     O32 5930   4.002   2.156   7.003 -0.1640  0.3866  0.4636
    1PC     C31 5931   3.872   2.178   6.963  0.0827 -0.8607 -0.1511
    1PC     H1A 5932   3.874   2.261   6.892  3.4717 -0.5217  0.2148
    1PC     H1B 5933   3.828   2.097   6.905 -0.6253  0.4370 -1.5060
    1PC     C32 5934   3.780   2.204   7.095 -0.1007  0.7757 -0.1187
    1PC     H2A 5935   3.820   2.290   7.148 -2.5632  3.1911 -1.9067
    1PC     H2B 5936   3.677   2.221   7.065 -0.1670 -0.2406 -0.5143
    1PC     N31 5937   3.775   2.098   7.199  0.9074  0.7619 -0.4832
    1PC     C33 5938   3.887   2.109   7.291  0.2550  0.8244  0.5718
    1PC     H3A 5939   3.883   2.040   7.376  2.0844  0.5454  0.4816
    1PC     H3B 5940   3.972   2.084   7.228  0.1206  0.0001  0.7014
    1PC     H3C 5941   3.889   2.213   7.324 -2.5341  0.9081  0.6708
    1PC     C34 5942   3.659   2.126   7.283  0.6333  0.2254  0.8147
    1PC     H4A 5943   3.576   2.113   7.213  2.1221  0.4162 -1.0580
    1PC     H4B 5944   3.650   2.057   7.367 -0.5986  1.3336  1.6343
    1PC     H4C 5945   3.671   2.231   7.310  1.5720  0.5330 -0.6662
    1PC     C35 5946   3.757   1.964   7.145  0.2724 -0.1057 -0.1284
    1PC     H5A 5947   3.764   1.888   7.223 -0.4755  0.0831  0.1239
    1PC     H5B 5948   3.838   1.955   7.072  1.8797  0.8836  1.4529
    1PC     H5C 5949   3.660   1.965   7.095  0.0124 -0.0233  0.3722
    1PC     O33 5950   4.235   2.236   7.062  0.4860 -0.3422 -0.3464
    1PC     O34 5951   4.043   2.400   7.070  0.1350  0.8594 -0.5903
    1PC     O21 5952   4.221   2.082   6.597 -0.2840 -1.1124 -0.7466
    1PC     C21 5953   4.188   1.958   6.562 -0.2905 -0.1518 -0.6240
    1PC     O22 5954   4.085   1.907   6.597 -0.0438 -0.8179 -0.2690
    1OL     C12 5955   4.282   1.881   6.476  0.1510 -0.5900  1.2598
    1OL     H2R 5956   4.280   1.773   6.490 -1.2712 -1.0193 -1.6178
    1OL     H2S 5957   4.385   1.918   6.486 -0.0939  0.5408  0.0066
    1OL     C13 5958   4.235   1.901   6.328 -0.1421  0.1119 -0.5594
    1OL     H3R 5959   4.242   2.007   6.305 -2.8683  0.4663 -0.1087
    1OL     H3S 5960   4.128   1.877   6.320  0.0155 -1.8649  1.8616
    1OL     C14 5961   4.313   1.814   6.226 -0.4127 -0.3303 -0.4062
    1OL     H4R 5962   4.281   1.845   6.126  0.1814 -1.5545 -1.0043
    1OL     H4S 5963   4.268   1.715   6.239 -2.3195  0.2291 -2.1185
    1OL     C15 5964   4.468   1.811   6.239  0.0106  0.1357 -0.2493
    1OL     H5R 5965   4.483   1.726   6.305 -1.7401  1.0602  1.4326
    1OL     H5S 5966   4.500   1.908   6.279  2.1769 -0.1899 -1.0654
    1OL     C16 5967   4.530   1.786   6.104 -0.1066 -0.4401 -0.0870
    1OL     H6R 5968   4.487   1.696   6.062 -0.8782  0.7512 -1.9606
    1OL     H6S 5969   4.636   1.762   6.116 -0.0733  0.0740  0.8377
    1OL     C17 5970   4.529   1.904   6.003  0.1487 -0.6427  0.6840
    1OL     H7R 5971   4.623   1.956   6.019 -0.1529  0.3412 -0.5767
    1OL     H7S 5972   4.445   1.968   6.029  0.1274 -0.5650  0.4344
    1OL     C18 5973   4.520   1.875   5.852  0.0500 -0.0335 -0.0478
    1OL     H8R 5974   4.574   1.784   5.822 -2.2206 -1.0434 -1.3545
    1OL     H8S 5975   4.562   1.958   5.796 -0.8639  2.0740  2.2291
    1OL     C19 5976   4.381   1.850   5.820 -0.1938  0.1695 -0.0499
    1OL     H9R 5977   4.336   1.770   5.880  0.1208 -0.7689 -1.0379
    1OL    C110 5978   4.317   1.897   5.722  0.1712 -0.2183  0.3792
    1OL    H10R 5979   4.217   1.859   5.704  0.3495 -0.1884 -0.7880
    1OL    C111 5980   4.362   2.007   5.618 -0.2523  0.3056  0.3543
    1OL    H11R 5981   4.408   2.088   5.676 -1.3462  0.1779  1.4391
    1OL    H11S 5982   4.284   2.065   5.568 -0.5737 -0.3171  0.1269
    1OL    C112 5983   4.431   1.946   5.503 -0.0545 -0.0055  0.3789
    1OL    H12R 5984   4.525   1.892   5.520  0.1645  0.2087 -0.1238
    1OL    H12S 5985   4.456   2.038   5.450 -0.5834 -0.0288  0.0895
    1OL    C113 5986   4.346   1.851   5.413  0.1745  0.7344 -0.1914
    1OL    H13R 5987   4.256   1.901   5.375 -0.3219 -0.1777 -0.2439
    1OL    H13S 5988   4.320   1.764   5.474  0.3595 -0.3177 -1.5588
    1OL    C114 5989   4.426   1.806   5.290  0.8477  0.0195 -0.3679
    1OL    H14R 5990   4.518   1.757   5.323 -0.3076 -1.7767  0.3485
    1OL    H14S 5991   4.442   1.894   5.227 -2.2632  1.9057  1.2381
    1OL    C115 5992   4.347   1.694   5.223 -0.4552 -0.0955  0.0889
    1OL    H15R 5993   4.245   1.719   5.194 -0.2694  0.9759  0.3065
    1OL    H15S 5994   4.340   1.618   5.301  0.4278 -1.6561 -1.2933
    1OL    C116 5995   4.407   1.633   5.095 -0.0592 -1.3280 -0.4164
    1OL    H16R 5996   4.352   1.552   5.047 -0.5310  0.7748 -3.7471
    1OL    H16S 5997   4.512   1.604   5.110  0.1653  0.3345  1.6393
    1OL    C117 5998   4.403   1.747   4.991 -0.0717 -0.1367  0.3743
    1OL    H17R 5999   4.490   1.812   5.001 -1.3665  1.5486  1.4387
    1OL    H17S 6000   4.319   1.812   5.019  0.2919 -0.3012  1.9262
    1OL    C118 6001   4.392   1.683   4.850  0.4258 -0.0949 -0.9357
    1OL    H18R 6002   4.484   1.631   4.823 -0.7012 -1.7910 -1.6902
    1OL    H18S 6003   4.364   1.767   4.785  1.6865  0.1196 -1.2303
    1OL    H18T 6004   4.315   1.606   4.848  0.1101  0.0116  2.3182
    1PA    C116 6005   3.847   1.172   5.447 -0.3675 -0.2167  0.1793
    1PA    H16R 6006   3.845   1.275   5.410 -2.7881  0.4089  1.7846
    1PA    H16S 6007   3.801   1.178   5.546  0.4556 -1.4094  0.6588
    1PA    H16T 6008   3.775   1.114   5.389 -0.2760 -0.6025  0.4480
    1PA    C115 6009   3.988   1.094   5.435 -0.1490 -0.2669 -0.5159
    1PA    H15R 6010   4.047   1.114   5.345  0.5676  0.9479  0.2016
    1PA    H15S 6011   4.061   1.139   5.501  2.1197 -3.2969 -0.7700
    1PA    C114 6012   3.974   0.942   5.469 -1.0001 -0.3851  0.0518
    1PA    H14R 6013   3.894   0.895   5.413 -0.2854 -0.0753 -1.2689
    1PA    H14S 6014   4.063   0.887   5.436 -1.9623 -1.6381 -0.5336
    1PA    C113 6015   3.962   0.908   5.621  0.2520  0.6091 -0.4000
    1PA    H13R 6016   3.862   0.925   5.660 -0.7596  0.2156 -2.6396
    1PA    H13S 6017   3.977   0.800   5.633 -1.2566  0.2714 -1.2076
    1PA    C112 6018   4.067   0.966   5.721  0.4246  0.4129  0.2281
    1PA    H12R 6019   4.167   0.933   5.693  0.6567 -0.9018  2.3539
    1PA    H12S 6020   4.068   1.075   5.718  1.7162  0.3844 -0.8749
    1PA    C111 6021   4.053   0.936   5.873 -0.3811  0.2522 -0.0995
    1PA    H11R 6022   4.091   1.019   5.933  1.0931  0.1143 -0.7794
    1PA    H11S 6023   3.948   0.912   5.888 -0.6081  0.8065 -0.7736
    1PA    C110 6024   4.136   0.816   5.907 -0.4931 -0.0017  0.3395
    1PA    H10R 6025   4.105   0.717   5.873 -0.8253  0.5099 -0.8974
    1PA    H10S 6026   4.234   0.832   5.862 -1.4151 -0.7355 -2.0729
    1PA     C19 6027   4.170   0.799   6.057 -0.2044 -0.5133  0.1224
    1PA     H9R 6028   4.266   0.747   6.057  0.4124  0.5876  0.9038
    1PA     H9S 6029   4.186   0.902   6.090 -2.7536 -0.1746  0.4971
    1PA     C18 6030   4.087   0.713   6.150  0.4031  0.0401  0.3519
    1PA     H8R 6031   4.103   0.608   6.124 -1.7860 -0.1666 -0.3380
    1PA     H8S 6032   4.117   0.720   6.254  1.1735  3.5054  0.0235
    1PA     C17 6033   3.946   0.745   6.132 -0.5378  0.0530  0.4430
    1PA     H7R 6034   3.919   0.769   6.029  1.1434  1.9082  0.3607
    1PA     H7S 6035   3.879   0.664   6.160 -1.6777  0.2797 -1.4773
    1PA     C16 6036   3.916   0.875   6.203 -0.1050 -0.0757 -0.2460
    1PA     H6R 6037   3.985   0.956   6.177  1.1867 -1.0157  0.1586
    1PA     H6S 6038   3.823   0.907   6.155  0.6304  0.5197 -1.2832
    1PA     C15 6039   3.907   0.875   6.354  0.1201 -0.8003  0.2720
    1PA     H5R 6040   4.010   0.885   6.390 -0.0943  1.0645  0.4961
    1PA     H5S 6041   3.854   0.967   6.380  0.3892 -0.2991 -0.8512
    1PA     C14 6042   3.841   0.749   6.419  0.2996 -0.8095 -0.0117
    1PA     H4R 6043   3.734   0.760   6.400  0.3173  2.5602  1.1958
    1PA     H4S 6044   3.891   0.658   6.386  2.3648  0.2424  0.0141
    1PA     C13 6045   3.862   0.759   6.570  0.3364  0.1897 -0.0783
    1PA     H3R 6046   3.965   0.793   6.583 -0.3247  1.6753  1.7204
    1PA     H3S 6047   3.796   0.842   6.597 -0.0288 -0.3070  0.5889
    1PA     C12 6048   3.836   0.632   6.644  0.3448 -0.2773 -0.2888
    1PA     H2R 6049   3.728   0.616   6.648  0.1516  0.7164 -1.1223
    1PA     H2S 6050   3.886   0.543   6.604  0.3866  0.5197 -2.1207
    1PC     C11 6051   3.885   0.648   6.787 -0.0441  0.1920  0.4953
    1PC     O12 6052   3.817   0.636   6.891  0.0938 -0.8966 -0.0187
    1PC     O11 6053   4.026   0.663   6.781  0.6119 -0.1483 -0.4214
    1PC      C1 6054   4.115   0.645   6.896  0.3048 -0.0541  0.5222
    1PC      HR 6055   4.070   0.605   6.987  0.1229 -1.1654 -0.0317
    1PC      HS 6056   4.196   0.579   6.862  0.0404 -0.3995  0.5558
    1PC      C2 6057   4.193   0.779   6.921 -0.2750  0.9721 -0.2295
    1PC      HX 6058   4.290   0.745   6.959 -1.0902  1.8590  2.9406
    1PC      C3 6059   4.130   0.869   7.025  0.2803 -0.6303  0.6323
    1PC      HA 6060   4.204   0.949   7.032  1.4383 -1.6975  1.0357
    1PC      HB 6061   4.031   0.903   6.992  0.2757 -0.7629  0.5076
    1PC     O31 6062   4.125   0.802   7.153  0.0795 -0.2576  0.3536
    1PC     P31 6063   4.109   0.878   7.288  0.2019 -0.6873  0.2752
    1PC     O32 6064   4.254   0.918   7.324 -0.9765  0.0044  0.1570
    1PC     C31 6065   4.341   0.837   7.407  0.3069  0.3994  0.4213
    1PC     H1A 6066   4.318   0.836   7.514  0.4292  0.3208  0.4469
    1PC     H1B 6067   4.329   0.736   7.367  0.7085  1.0809 -1.5336
    1PC     C32 6068   4.483   0.896   7.401  0.6528 -0.0445 -0.5608
    1PC     H2A 6069   4.496   0.993   7.449 -0.6919  0.1560 -0.5432
    1PC     H2B 6070   4.541   0.829   7.464  0.8554 -0.4506 -1.1674
    1PC     N31 6071   4.549   0.898   7.268 -0.7949 -0.0971  0.5384
    1PC     C33 6072   4.500   1.021   7.189 -1.0824 -0.0102  0.6012
    1PC     H3A 6073   4.548   1.106   7.237  3.3216 -0.0911 -2.9906
    1PC     H3B 6074   4.534   1.023   7.086 -3.9862 -1.6442 -0.5173
    1PC     H3C 6075   4.391   1.021   7.187 -1.1227  2.0490 -1.3037
    1PC     C34 6076   4.694   0.910   7.278  0.1354  0.1353 -0.1215
    1PC     H4A 6077   4.726   0.823   7.335  2.1500  0.9435  0.0937
    1PC     H4B 6078   4.724   0.897   7.174 -0.4798 -1.9983 -0.0811
    1PC     H4C 6079   4.724   1.000   7.333  0.8142 -0.2477  0.1548
    1PC     C35 6080   4.523   0.781   7.185 -0.1533  0.4311 -0.2958
    1PC     H5A 6081   4.551   0.799   7.081 -1.6550 -2.7534 -1.3976
    1PC     H5B 6082   4.414   0.779   7.185 -0.1573 -0.3582  0.6808
    1PC     H5C 6083   4.570   0.692   7.228 -2.2823 -0.2975  0.6699
    1PC     O33 6084   4.017   0.993   7.252 -0.0473  0.0977  0.4427
    1PC     O34 6085   4.059   0.782   7.393  0.2530  0.1553  0.1107
    1PC     O21 6086   4.204   0.853   6.792 -0.0609  0.4291  0.4831
    1PC     C21 6087   4.311   0.839   6.708  0.1826  0.1083  0.3212
    1PC     O22 6088   4.400   0.761   6.742 -0.1091 -0.1660  0.1041
    1OL     C12 6089   4.300   0.894   6.575  0.0451 -0.0156  0.3346
    1OL     H2R 6090   4.307   1.003   6.570 -0.3774 -0.0469 -1.6374
    1OL     H2S 6091   4.204   0.867   6.530  0.0801 -0.1127  0.3198
    1OL     C13 6092   4.405   0.834   6.483  0.0340 -0.1282  0.5488
    1OL     H3R 6093   4.376   0.731   6.462 -2.9409  0.2678  2.1917
    1OL     H3S 6094   4.504   0.846   6.527 -1.3341  1.3119  3.4606
    1OL     C14 6095   4.409   0.905   6.347 -0.0082  0.2318  0.8912
    1OL     H4R 6096   4.427   1.009   6.373  2.1113  0.6413 -1.8650
    1OL     H4S 6097   4.318   0.894   6.288  0.6710  0.2439 -0.1881
    1OL     C15 6098   4.524   0.837   6.271 -0.4071  0.2232 -0.6867
    1OL     H5R 6099   4.510   0.730   6.258 -1.0031  0.4938 -2.6285
    1OL     H5S 6100   4.618   0.860   6.322 -0.2648  1.0341 -1.2968
    1OL     C16 6101   4.542   0.892   6.131  0.4770  0.7871  0.4712
    1OL     H6R 6102   4.547   1.001   6.133  0.2789  0.8788 -1.5253
    1OL     H6S 6103   4.462   0.861   6.064  0.5114 -0.9599  1.1852
    1OL     C17 6104   4.685   0.848   6.089 -0.2988 -0.0576 -0.5544
    1OL     H7R 6105   4.696   0.739   6.092  1.4156  0.0585 -1.3308
    1OL     H7S 6106   4.754   0.884   6.165 -0.6558  1.9967 -1.1430
    1OL     C18 6107   4.722   0.912   5.954  0.3715 -0.0454 -0.3933
    1OL     H8R 6108   4.718   1.016   5.987  0.6859 -0.4671  1.0555
    1OL     H8S 6109   4.647   0.885   5.879 -0.8677 -2.6796  1.6136
    1OL     C19 6110   4.861   0.881   5.904 -0.3370  0.4271 -0.2681
    1OL     H9R 6111   4.940   0.944   5.943 -1.7185  3.8046 -2.3982
    1OL    C110 6112   4.892   0.804   5.802 -0.2065  0.4840 -0.2285
    1OL    H10R 6113   4.994   0.796   5.765 -0.3524  1.3707 -0.8537
    1OL    C111 6114   4.798   0.719   5.719  0.1613 -0.7881  0.8465
    1OL    H11R 6115   4.714   0.684   5.779 -0.5668  1.0428  0.9485
    1OL    H11S 6116   4.847   0.627   5.687 -0.9240 -0.6014 -1.5373
    1OL    C112 6117   4.741   0.811   5.609 -0.0605  0.3554  0.8990
    1OL    H12R 6118   4.693   0.895   5.659  2.1191  1.5618  1.0877
    1OL    H12S 6119   4.665   0.754   5.555  0.3038  0.9490 -0.2469
    1OL    C113 6120   4.853   0.857   5.514  0.2026 -0.3092 -0.1641
    1OL    H13R 6121   4.929   0.780   5.496  0.5695 -0.7925  2.8283
    1OL    H13S 6122   4.908   0.938   5.563 -1.4678  0.6466  0.2215
    1OL    C114 6123   4.793   0.906   5.378  0.6397  0.3854 -0.1364
    1OL    H14R 6124   4.718   0.982   5.401 -2.3065 -2.1557 -0.5681
    1OL    H14S 6125   4.739   0.825   5.327  0.4181  1.8366 -2.3530
    1OL    C115 6126   4.889   0.974   5.280 -0.1018  0.4480 -0.8205
    1OL    H15R 6127   4.942   1.053   5.334 -1.3246 -0.4368  1.8324
    1OL    H15S 6128   4.829   1.021   5.202 -0.8952  0.1393 -0.4049
    1OL    C116 6129   4.971   0.865   5.210  0.3278  0.3672  0.3511
    1OL    H16R 6130   4.911   0.781   5.173 -0.5671  1.6216 -1.1852
    1OL    H16S 6131   5.040   0.822   5.283  1.5810 -0.7271 -1.4114
    1OL    C117 6132   5.052   0.923   5.084  0.2360 -0.1915 -0.0173
    1OL    H17R 6133   5.123   0.999   5.120 -0.4911  0.0667  0.9038
    1OL    H17S 6134   4.978   0.964   5.015  0.7868 -0.7212 -0.9330
    1OL    C118 6135   5.129   0.829   4.995  0.5327 -0.6030  0.2559
    1OL    H18R 6136   5.191   0.771   5.064 -0.6074  0.7402  2.5469
    1OL    H18S 6137   5.185   0.883   4.919  0.5409 -3.2304 -1.7274
    1OL    H18T 6138   5.063   0.764   4.938 -1.1707  2.7612 -1.9473
    1PA    C116 6139   2.262   2.579   4.863 -0.1618 -0.0906  0.9632
    1PA    H16R 6140   2.258   2.498   4.936  2.6939 -1.1036  0.1283
    1PA    H16S 6141   2.211   2.539   4.774 -0.1793 -0.3065  1.0677
    1PA    H16T 6142   2.213   2.673   4.889  1.6825  1.8604 -1.9774
    1PA    C115 6143   2.413   2.604   4.827 -0.3386 -0.4477 -0.1083
    1PA    H15R 6144   2.427   2.696   4.770  0.1034 -0.3485  0.1603
    1PA    H15S 6145   2.448   2.617   4.930 -1.5500 -1.7955  0.5208
    1PA    C114 6146   2.486   2.480   4.764  0.2522  0.5666  0.5575
    1PA    H14R 6147   2.463   2.391   4.823 -1.6320 -0.8426 -2.1185
    1PA    H14S 6148   2.440   2.468   4.666  0.4751  0.7005  0.4370
    1PA    C113 6149   2.633   2.514   4.754 -0.7690  0.2850 -0.0653
    1PA    H13R 6150   2.677   2.521   4.854  1.7088  1.5346 -1.1762
    1PA    H13S 6151   2.687   2.435   4.701 -1.8563  1.3741 -2.9438
    1PA    C112 6152   2.664   2.648   4.694 -1.0428  0.1515 -0.1901
    1PA    H12R 6153   2.636   2.725   4.766  1.1909 -0.0893  1.0498
    1PA    H12S 6154   2.771   2.653   4.671 -0.9412 -1.4885 -0.2116
    1PA    C111 6155   2.592   2.682   4.556 -0.7627  0.0136 -0.1106
    1PA    H11R 6156   2.606   2.608   4.476 -0.7824 -2.0025  1.6630
    1PA    H11S 6157   2.485   2.674   4.577 -0.3049 -0.5276  2.2127
    1PA    C110 6158   2.630   2.822   4.505  0.4307  0.0509  0.0059
    1PA    H10R 6159   2.565   2.840   4.420 -0.4006  0.0524  0.6278
    1PA    H10S 6160   2.610   2.905   4.572 -0.6785  0.6797 -1.0825
    1PA     C19 6161   2.769   2.850   4.456  0.1436 -0.3423  0.3083
    1PA     H9R 6162   2.777   2.959   4.448 -1.2151 -0.1822  0.7925
    1PA     H9S 6163   2.848   2.823   4.526  0.9687 -0.4322 -0.6364
    1PA     C18 6164   2.803   2.777   4.320  0.4984  0.7551  0.0602
    1PA     H8R 6165   2.906   2.800   4.291  0.7025 -0.2027  0.0015
    1PA     H8S 6166   2.792   2.668   4.322 -0.1044  0.8179  0.3017
    1PA     C17 6167   2.721   2.806   4.193  0.3750  0.3034  0.2318
    1PA     H7R 6168   2.766   2.769   4.100  0.0748  0.7332 -0.0931
    1PA     H7S 6169   2.626   2.752   4.196  1.1455 -1.0571  1.2820
    1PA     C16 6170   2.702   2.955   4.169  0.8244 -0.3442 -0.2173
    1PA     H6R 6171   2.623   2.973   4.097  0.3446 -0.5503  0.2530
    1PA     H6S 6172   2.676   3.003   4.264 -1.4036 -1.4271 -0.2160
    1PA     C15 6173   2.833   3.019   4.126  0.0279  0.0174  0.2492
    1PA     H5R 6174   2.838   3.127   4.141 -1.6241 -0.1254  2.2515
    1PA     H5S 6175   2.914   2.981   4.187  0.2509  1.4136  0.8579
    1PA     C14 6176   2.855   2.996   3.977 -0.4306  0.0883  0.2528
    1PA     H4R 6177   2.838   2.890   3.957 -0.8158  0.1370  0.3219
    1PA     H4S 6178   2.773   3.053   3.934 -0.4070 -0.4134 -0.4632
    1PA     C13 6179   2.992   3.039   3.930  0.1699 -1.1185 -0.5148
    1PA     H3R 6180   2.997   3.146   3.911  3.5233 -1.4812 -2.5691
    1PA     H3S 6181   3.067   3.013   4.005 -0.9231 -0.2840  0.8965
    1PA     C12 6182   3.027   2.966   3.795  0.0766 -0.1933  0.1188
    1PA     H2R 6183   3.046   2.859   3.813 -0.3005  0.0660  2.3455
    1PA     H2S 6184   2.938   2.969   3.731 -0.0261 -0.6713  0.2329
    1PC     C11 6185   3.155   3.010   3.734  0.0274  0.3664  0.0399
    1PC     O12 6186   3.197   3.124   3.721 -0.6687  0.3027 -0.0456
    1PC     O11 6187   3.225   2.909   3.684 -0.5654  0.5496  0.2002
    1PC      C1 6188   3.357   2.924   3.620 -0.0592  0.0765 -0.8323
    1PC      HR 6189   3.336   2.938   3.514 -1.1646  1.8909 -0.4139
    1PC      HS 6190   3.415   3.003   3.668 -1.6566  0.2367  0.9990
    1PC      C2 6191   3.435   2.791   3.650  0.0944 -0.4453 -0.4445
    1PC      HX 6192   3.534   2.802   3.606  0.1130  1.0414 -0.1004
    1PC      C3 6193   3.365   2.684   3.565 -0.4996  0.6027 -0.2008
    1PC      HA 6194   3.307   2.620   3.632 -2.9030  1.9733 -0.8142
    1PC      HB 6195   3.287   2.723   3.498 -0.4016 -1.0373 -1.3310
    1PC     O31 6196   3.464   2.615   3.481 -0.5533 -0.1008  0.4117
    1PC     P31 6197   3.464   2.631   3.323 -0.1319  0.4109  0.0622
    1PC     O32 6198   3.368   2.525   3.275  0.0231  0.3705 -0.0135
    1PC     C31 6199   3.371   2.387   3.324 -0.4190  0.5128 -0.5981
    1PC     H1A 6200   3.434   2.379   3.413 -0.6222  0.6636 -0.4390
    1PC     H1B 6201   3.270   2.360   3.357 -0.8210  0.0159 -2.1420
    1PC     C32 6202   3.433   2.284   3.225 -0.3638 -0.5952  0.0037
    1PC     H2A 6203   3.511   2.331   3.166 -1.7502 -1.4288 -2.6746
    1PC     H2B 6204   3.453   2.191   3.278 -1.5520 -1.0006 -0.2158
    1PC     N31 6205   3.337   2.242   3.117 -0.3616  1.1458  0.6392
    1PC     C33 6206   3.404   2.158   3.007 -0.3985 -0.6757 -0.1593
    1PC     H3A 6207   3.450   2.074   3.060  1.3853  0.2226 -0.1951
    1PC     H3B 6208   3.331   2.134   2.930 -0.0505  0.1555 -0.7625
    1PC     H3C 6209   3.481   2.222   2.964 -0.1667 -0.7186  0.1830
    1PC     C34 6210   3.225   2.156   3.165  0.0314  0.2026 -0.0183
    1PC     H4A 6211   3.166   2.190   3.249  1.4357 -0.9103  1.4938
    1PC     H4B 6212   3.162   2.132   3.079 -0.2624 -0.8166  0.4616
    1PC     H4C 6213   3.263   2.055   3.185  1.0246  0.7853  1.2046
    1PC     C35 6214   3.275   2.353   3.044  0.3049  0.0607  0.3266
    1PC     H5A 6215   3.229   2.419   3.117  0.5197  0.6281 -0.0439
    1PC     H5B 6216   3.212   2.326   2.959  0.6758 -1.1602  0.4211
    1PC     H5C 6217   3.355   2.414   3.003  1.3834 -0.9599  0.8744
    1PC     O33 6218   3.416   2.768   3.300 -0.2221 -0.1394  0.1083
    1PC     O34 6219   3.590   2.582   3.273 -0.7217  0.1360  0.3566
    1PC     O21 6220   3.449   2.741   3.788 -0.6797  0.2443 -0.7955
    1PC     C21 6221   3.510   2.813   3.876 -0.1104 -0.6395  0.3127
    1PC     O22 6222   3.563   2.917   3.851 -0.2894  0.1843  0.2948
    1OL     C12 6223   3.504   2.747   4.004  0.0581 -0.0897  0.4024
    1OL     H2R 6224   3.407   2.697   4.013  0.1599 -0.1215  1.4898
    1OL     H2S 6225   3.507   2.825   4.080 -2.0438  0.1128  0.3384
    1OL     C13 6226   3.618   2.650   4.022 -0.4078  0.0691 -0.2345
    1OL     H3R 6227   3.616   2.579   3.939 -1.3965 -2.8313  2.0821
    1OL     H3S 6228   3.612   2.595   4.116  3.7085  1.3323  0.9824
    1OL     C14 6229   3.758   2.709   4.008 -0.7635 -0.2725  0.4060
    1OL     H4R 6230   3.767   2.753   3.909 -0.9428  0.5472  0.7399
    1OL     H4S 6231   3.840   2.637   4.013  0.9730  1.6456  2.5101
    1OL     C15 6232   3.782   2.818   4.120  0.2593  0.5336 -0.7712
    1OL     H5R 6233   3.707   2.897   4.110  0.3992  0.6430 -0.9680
    1OL     H5S 6234   3.884   2.856   4.110  0.3903  0.9514  1.5100
    1OL     C16 6235   3.766   2.765   4.266 -0.4754 -0.5841 -0.6333
    1OL     H6R 6236   3.803   2.663   4.280 -1.4435 -0.5649  3.1199
    1OL     H6S 6237   3.658   2.770   4.284 -0.4922 -2.5916  0.1397
    1OL     C17 6238   3.848   2.860   4.354 -0.4238  0.5965 -0.4641
    1OL     H7R 6239   3.838   2.966   4.331 -0.4569  0.1324 -2.8164
    1OL     H7S 6240   3.952   2.837   4.330 -0.2502  2.7029 -2.0648
    1OL     C18 6241   3.837   2.824   4.505  0.6152 -0.0211  0.0099
    1OL     H8R 6242   3.910   2.877   4.567 -1.1415  0.7868  1.4830
    1OL     H8S 6243   3.852   2.716   4.512  0.3703  0.0159  1.3856
    1OL     C19 6244   3.693   2.844   4.553 -0.0997 -0.0607  0.5173
    1OL     H9R 6245   3.618   2.779   4.510  0.0748 -1.0013  1.5854
    1OL    C110 6246   3.647   2.944   4.627 -0.2637  0.0305 -0.5202
    1OL    H10R 6247   3.540   2.942   4.646 -0.2429 -1.1587 -0.4500
    1OL    C111 6248   3.729   3.061   4.681 -0.3451  0.3657 -0.0092
    1OL    H11R 6249   3.833   3.054   4.648  0.5677  0.4398  2.6252
    1OL    H11S 6250   3.736   3.057   4.790 -2.5655  2.6006  0.3249
    1OL    C112 6251   3.668   3.195   4.634  0.1633 -0.0918 -0.4657
    1OL    H12R 6252   3.576   3.210   4.691 -0.6524 -3.4656 -0.6537
    1OL    H12S 6253   3.635   3.186   4.530 -3.4577  1.5637  0.4156
    1OL    C113 6254   3.772   3.306   4.664 -0.2287 -0.2262 -0.5759
    1OL    H13R 6255   3.871   3.288   4.621 -1.1512 -1.0235 -2.4695
    1OL    H13S 6256   3.773   3.322   4.772  0.7158 -1.4385 -0.3815
    1OL    C114 6257   3.716   3.443   4.606 -0.1604 -0.2827  0.1997
    1OL    H14R 6258   3.694   3.416   4.503 -0.5902  3.5208 -0.8511
    1OL    H14S 6259   3.798   3.514   4.609  0.9856 -1.4936 -1.0185
    1OL    C115 6260   3.595   3.514   4.676 -0.0041  0.9043  0.3878
    1OL    H15R 6261   3.618   3.520   4.783 -0.3364  0.7650  0.4674
    1OL    H15S 6262   3.507   3.452   4.660 -0.6587  1.7875  0.4466
    1OL    C116 6263   3.568   3.667   4.643 -0.3409 -0.4390  0.7834
    1OL    H16R 6264   3.630   3.734   4.704 -1.7220  2.1632 -0.4807
    1OL    H16S 6265   3.464   3.680   4.673 -0.7831  2.0855 -1.3843
    1OL    C117 6266   3.578   3.701   4.490  0.7514 -0.2290 -0.1135
    1OL    H17R 6267   3.683   3.700   4.461  1.4526  2.1727  1.9315
    1OL    H17S 6268   3.543   3.804   4.486  2.0139  0.1786 -2.7691
    1OL    C118 6269   3.475   3.629   4.402 -0.1170  0.5638 -0.4979
    1OL    H18R 6270   3.491   3.648   4.296  1.3281  0.9362 -0.2331
    1OL    H18S 6271   3.373   3.647   4.437  0.4108 -0.9267  2.0449
    1OL    H18T 6272   3.497   3.522   4.403 -0.3479  0.5131 -0.7950
    1PA    C116 6273   4.277   0.117   4.957 -0.3082  0.2597  0.1958
    1PA    H16R 6274   4.255   0.062   5.049 -0.9787  1.4809  0.7921
    1PA    H16S 6275   4.264   0.222   4.982  2.1216  0.6712 -0.1030
    1PA    H16T 6276   4.383   0.133   4.938 -0.2916  3.9744  2.4991
    1PA    C115 6277   4.201   0.053   4.840 -0.2956 -0.1125  1.1697
    1PA    H15R 6278   4.230  -0.050   4.817  1.9791  0.8329 -0.5879
    1PA    H15S 6279   4.092   0.054   4.849 -0.5529  0.6765 -1.2613
    1PA    C114 6280   4.232   0.124   4.703  0.2232 -0.4853  0.4247
    1PA    H14R 6281   4.185   0.067   4.623  0.6974  2.7476 -2.3910
    1PA    H14S 6282   4.180   0.220   4.691  1.4862  0.0181 -1.5448
    1PA    C113 6283   4.377   0.149   4.672 -0.8537  0.6611  0.7165
    1PA    H13R 6284   4.428   0.238   4.710  0.2614  0.4101 -0.1343
    1PA    H13S 6285   4.432   0.060   4.703 -1.9845  0.3914  2.0387
    1PA    C112 6286   4.412   0.144   4.519  0.0753 -0.3469  0.1498
    1PA    H12R 6287   4.371   0.236   4.476  1.6274 -0.9427 -2.9300
    1PA    H12S 6288   4.520   0.159   4.510  0.1863 -0.4687  1.1937
    1PA    C111 6289   4.371   0.016   4.447  0.4010 -0.7550  0.7715
    1PA    H11R 6290   4.445  -0.065   4.449  1.5469  0.2769  1.5361
    1PA    H11S 6291   4.272  -0.020   4.475 -1.1581  1.5648 -1.3427
    1PA    C110 6292   4.347   0.056   4.299  0.1485 -0.1011  0.8822
    1PA    H10R 6293   4.252   0.107   4.285 -0.2704 -0.7628  1.2952
    1PA    H10S 6294   4.434   0.113   4.265 -0.0407 -0.5646 -0.4515
    1PA     C19 6295   4.345  -0.066   4.207 -0.4161  0.1365  0.2369
    1PA     H9R 6296   4.436  -0.122   4.226 -2.1929 -3.0059  0.2203
    1PA     H9S 6297   4.260  -0.126   4.242 -0.2788  0.8134  1.8285
    1PA     C18 6298   4.326  -0.046   4.058 -0.1118  0.4849  0.0778
    1PA     H8R 6299   4.223  -0.011   4.059  0.4354  2.2024  0.2327
    1PA     H8S 6300   4.397   0.024   4.013  0.1367 -0.8501 -1.7231
    1PA     C17 6301   4.339  -0.173   3.966 -0.0176 -0.0770 -0.3318
    1PA     H7R 6302   4.426  -0.232   3.996  0.6239  0.9122 -0.1872
    1PA     H7S 6303   4.251  -0.233   3.989  0.3938 -1.1763 -1.5090
    1PA     C16 6304   4.329  -0.145   3.815 -0.4833  0.3505  0.5768
    1PA     H6R 6305   4.407  -0.082   3.771 -0.4263 -0.0171  0.1401
    1PA     H6S 6306   4.346  -0.243   3.769  1.5485  0.3224  1.3022
    1PA     C15 6307   4.184  -0.092   3.782 -0.2171  0.5516  0.0482
    1PA     H5R 6308   4.121  -0.180   3.788  0.6910 -0.1136 -0.0228
    1PA     H5S 6309   4.155  -0.006   3.844  0.1775  0.9952 -0.3692
    1PA     C14 6310   4.166  -0.040   3.641  0.8464 -0.5021 -0.2507
    1PA     H4R 6311   4.225  -0.104   3.576  1.6412  0.3662 -0.4235
    1PA     H4S 6312   4.059  -0.055   3.634  0.9584 -1.5556  0.1545
    1PA     C13 6313   4.211   0.108   3.619  0.4228 -0.2394  1.3595
    1PA     H3R 6314   4.187   0.168   3.707 -0.7725  0.7847  0.3783
    1PA     H3S 6315   4.318   0.098   3.602  0.1595 -1.4796  0.1963
    1PA     C12 6316   4.144   0.157   3.491  0.3163 -0.2484  0.7439
    1PA     H2R 6317   4.155   0.070   3.425 -0.2434 -0.8400  1.4087
    1PA     H2S 6318   4.040   0.181   3.515 -1.1187 -1.9618 -3.0279
    1PC     C11 6319   4.203   0.285   3.436 -0.2743  0.5070  0.6621
    1PC     O12 6320   4.256   0.291   3.329 -0.6278 -0.0178 -0.5278
    1PC     O11 6321   4.196   0.400   3.510 -0.4996 -0.2269 -0.1283
    1PC      C1 6322   4.230   0.525   3.442  0.7797 -0.2890  0.0866
    1PC      HR 6323   4.282   0.599   3.504 -1.8100 -0.0033  2.0832
    1PC      HS 6324   4.281   0.522   3.345  0.0634  2.2452 -0.4526
    1PC      C2 6325   4.086   0.586   3.407 -0.7236  0.2803 -0.1271
    1PC      HX 6326   4.044   0.525   3.327  1.0396 -0.6158 -0.4163
    1PC      C3 6327   4.103   0.727   3.351  0.0248 -0.4696 -0.0520
    1PC      HA 6328   4.004   0.773   3.359  0.4093  0.2603  0.6051
    1PC      HB 6329   4.176   0.785   3.408 -1.7926  3.6614 -1.4701
    1PC     O31 6330   4.132   0.715   3.209  0.1502  0.7923  0.4037
    1PC     P31 6331   4.013   0.718   3.098 -0.5515 -0.1434 -0.4319
    1PC     O32 6332   3.991   0.562   3.084 -0.2547 -0.3107 -0.3739
    1PC     C31 6333   4.082   0.478   3.011  0.0939 -0.7584  0.2941
    1PC     H1A 6334   4.062   0.482   2.904 -1.7235 -1.1756  0.5761
    1PC     H1B 6335   4.187   0.506   3.022 -0.0957 -0.4500  1.4440
    1PC     C32 6336   4.067   0.340   3.069 -0.3699  1.4735 -0.6330
    1PC     H2A 6337   4.143   0.273   3.028 -0.3236  0.1325  1.4559
    1PC     H2B 6338   4.075   0.341   3.178 -0.7834 -1.4570 -0.4938
    1PC     N31 6339   3.939   0.270   3.059  0.1590  0.1699  0.5441
    1PC     C33 6340   3.832   0.329   3.144  0.2765  0.0208 -0.5696
    1PC     H3A 6341   3.849   0.318   3.251  0.4672  2.0541 -0.3532
    1PC     H3B 6342   3.827   0.436   3.122 -0.0675  0.0954 -0.1332
    1PC     H3C 6343   3.740   0.280   3.112  0.5404 -1.3354  0.6376
    1PC     C34 6344   3.902   0.265   2.906 -0.1011 -0.7023  0.3814
    1PC     H4A 6345   3.883   0.367   2.874 -0.9579 -1.2408 -0.9447
    1PC     H4B 6346   3.982   0.214   2.852 -0.7982 -1.6526  0.2140
    1PC     H4C 6347   3.808   0.210   2.908 -0.9499  0.6897  0.0278
    1PC     C35 6348   3.952   0.135   3.103 -0.3211  0.5670  0.5227
    1PC     H5A 6349   3.860   0.084   3.073 -0.1785  2.5174 -4.1277
    1PC     H5B 6350   3.966   0.113   3.209 -2.6944  0.5114  0.8840
    1PC     H5C 6351   4.043   0.099   3.054 -0.0290  2.5465 -0.5059
    1PC     O33 6352   3.891   0.797   3.141 -0.3044  0.0221 -0.0973
    1PC     O34 6353   4.073   0.756   2.975  0.1088  0.3097 -0.0464
    1PC     O21 6354   4.000   0.594   3.525  0.5996  0.9128 -0.2108
    1PC     C21 6355   3.891   0.507   3.533 -0.1169 -0.1507 -0.5618
    1PC     O22 6356   3.883   0.413   3.460 -0.1837 -0.0652  0.2568
    1OL     C12 6357   3.804   0.529   3.652 -0.1249  0.5324 -0.9648
    1OL     H2R 6358   3.717   0.463   3.645  0.4585 -0.4071  0.1479
    1OL     H2S 6359   3.772   0.632   3.664 -1.3214  0.0887 -0.2263
    1OL     C13 6360   3.880   0.492   3.784 -0.1282  0.3887  0.4159
    1OL     H3R 6361   3.810   0.503   3.867  0.2976  0.8282  0.7177
    1OL     H3S 6362   3.971   0.550   3.801  0.0928  0.4218 -0.7679
    1OL     C14 6363   3.928   0.341   3.776 -0.6706 -0.1605  0.2578
    1OL     H4R 6364   4.007   0.331   3.703 -0.2043  0.2639  0.6931
    1OL     H4S 6365   3.844   0.274   3.755 -0.0744 -1.1822  1.0251
    1OL     C15 6366   3.985   0.286   3.906  0.3907  0.6538  0.1215
    1OL     H5R 6367   4.014   0.183   3.885 -1.2010  0.1746  0.1239
    1OL     H5S 6368   3.904   0.289   3.979  0.6277  1.1500  0.3730
    1OL     C16 6369   4.108   0.356   3.961 -0.7016  0.7393  0.2372
    1OL     H6R 6370   4.101   0.465   3.959  3.2091  1.1805  1.4872
    1OL     H6S 6371   4.198   0.344   3.901 -0.6520 -1.7960  0.7048
    1OL     C17 6372   4.134   0.310   4.108 -0.4313 -0.4125 -0.1514
    1OL     H7R 6373   4.242   0.321   4.123 -0.6850  0.0397  1.5171
    1OL     H7S 6374   4.122   0.203   4.129 -1.4809 -0.6176 -1.6548
    1OL     C18 6375   4.058   0.405   4.207 -0.3122 -0.4226 -0.3837
    1OL     H8R 6376   3.950   0.391   4.207 -0.2961 -0.6753  0.9372
    1OL     H8S 6377   4.080   0.506   4.172 -2.3358  0.7165  1.3786
    1OL     C19 6378   4.108   0.406   4.348  0.5200  0.1778  0.6329
    1OL     H9R 6379   4.204   0.457   4.355  0.3217  0.6521 -0.0124
    1OL    C110 6380   4.049   0.369   4.456  0.2199  0.1104 -0.4195
    1OL    H10R 6381   4.104   0.386   4.548 -0.3219  1.8852 -0.3837
    1OL    C111 6382   3.917   0.287   4.465  0.2530 -0.5237  0.5444
    1OL    H11R 6383   3.923   0.180   4.484 -1.1727 -0.6596  0.3097
    1OL    H11S 6384   3.873   0.262   4.368  0.5221 -2.0401  0.7837
    1OL    C112 6385   3.818   0.356   4.560  0.1331  0.6120 -0.1476
    1OL    H12R 6386   3.730   0.292   4.553  2.1039 -2.3989  0.5063
    1OL    H12S 6387   3.797   0.455   4.521  0.5453  1.4417  1.6756
    1OL    C113 6388   3.857   0.357   4.704  0.3395 -0.1557  0.0953
    1OL    H13R 6389   3.951   0.411   4.720  0.5413 -1.1887  2.8052
    1OL    H13S 6390   3.886   0.258   4.737 -1.5402 -1.0676 -0.8223
    1OL    C114 6391   3.758   0.419   4.794  1.3910 -0.0090 -0.0524
    1OL    H14R 6392   3.660   0.372   4.788  1.0083  0.7215  0.4206
    1OL    H14S 6393   3.747   0.520   4.755 -0.8532 -0.9690 -2.1258
    1OL    C115 6394   3.820   0.422   4.941 -0.6138 -0.4756  0.1285
    1OL    H15R 6395   3.926   0.449   4.936 -1.0686  1.3087 -0.7055
    1OL    H15S 6396   3.823   0.318   4.974 -0.7366 -0.5664 -0.1460
    1OL    C116 6397   3.743   0.508   5.042  0.2027 -0.2294 -0.2365
    1OL    H16R 6398   3.713   0.601   4.992  1.0459 -0.0855 -0.4963
    1OL    H16S 6399   3.792   0.534   5.136 -1.0890 -1.2242  0.7451
    1OL    C117 6400   3.622   0.433   5.085 -0.5142 -0.5447  0.3767
    1OL    H17R 6401   3.655   0.336   5.126  1.1746 -0.4731 -0.7157
    1OL    H17S 6402   3.568   0.406   4.994 -1.1061  0.0505  0.5450
    1OL    C118 6403   3.533   0.505   5.188 -0.3523 -0.4514  0.2664
    1OL    H18R 6404   3.511   0.607   5.156  0.0177 -1.0026 -1.8997
    1OL    H18S 6405   3.572   0.519   5.289 -3.3033 -2.3618  1.8177
    1OL    H18T 6406   3.438   0.454   5.204 -0.4825  0.2000  1.7059
    1PA    C116 6407   1.237   2.644   4.437 -0.4637  0.3970 -1.1368
    1PA    H16R 6408   1.146   2.647   4.378 -1.4182 -1.4892  0.1540
    1PA    H16S 6409   1.254   2.728   4.504  2.0081 -1.1085  0.2860
    1PA    H16T 6410   1.229   2.558   4.504  1.7043  1.2983  0.4123
    1PA    C115 6411   1.356   2.632   4.339  0.0556  0.5720 -0.0259
    1PA    H15R 6412   1.337   2.557   4.263  0.6495  0.4482 -0.0619
    1PA    H15S 6413   1.364   2.725   4.283  1.3425  0.7996  0.4891
    1PA    C114 6414   1.489   2.602   4.403 -0.0987  0.7139  0.2913
    1PA    H14R 6415   1.504   2.682   4.476  0.3091  0.6683  0.2607
    1PA    H14S 6416   1.483   2.511   4.464 -1.9343  1.1549  0.8423
    1PA    C113 6417   1.608   2.590   4.316  0.2771  0.8094  0.0216
    1PA    H13R 6418   1.691   2.552   4.376  0.7640 -0.1727 -1.2259
    1PA    H13S 6419   1.580   2.520   4.237 -1.6664  2.0841 -0.4734
    1PA    C112 6420   1.644   2.722   4.247 -0.0611 -0.2480 -0.0500
    1PA    H12R 6421   1.574   2.739   4.165 -0.9802 -1.7891  0.3908
    1PA    H12S 6422   1.640   2.805   4.318 -0.3460 -0.6859  0.4495
    1PA    C111 6423   1.783   2.733   4.185 -0.0958  0.1102 -0.1621
    1PA    H11R 6424   1.787   2.835   4.146 -2.0941 -0.1550 -1.2097
    1PA    H11S 6425   1.856   2.714   4.264  1.0284 -0.7663 -1.3498
    1PA    C110 6426   1.819   2.630   4.083  0.4119  0.0255  0.0781
    1PA    H10R 6427   1.922   2.643   4.049 -0.8545 -1.0575 -5.0340
    1PA    H10S 6428   1.813   2.528   4.123  0.4044 -1.7359 -3.9018
    1PA     C19 6429   1.738   2.628   3.948  0.0136  0.3579 -0.1347
    1PA     H9R 6430   1.633   2.612   3.976  0.4601 -1.1132  0.8083
    1PA     H9S 6431   1.744   2.724   3.897  0.6359  0.0973 -0.5607
    1PA     C18 6432   1.789   2.523   3.852 -0.5125  0.3587 -0.0936
    1PA     H8R 6433   1.793   2.427   3.904 -0.2049  0.8396  0.8061
    1PA     H8S 6434   1.714   2.512   3.773  0.3666 -1.9066 -0.6744
    1PA     C17 6435   1.916   2.553   3.770 -0.5513  0.3622  0.6259
    1PA     H7R 6436   2.000   2.591   3.829 -0.0974 -0.9126  0.8385
    1PA     H7S 6437   1.959   2.462   3.728  0.1080  0.8014  0.3272
    1PA     C16 6438   1.893   2.654   3.653  0.2597 -0.6494 -0.1918
    1PA     H6R 6439   1.819   2.612   3.586  0.0561 -0.5140 -0.0534
    1PA     H6S 6440   1.849   2.749   3.685  1.8855 -0.1443  0.6738
    1PA     C15 6441   2.025   2.675   3.582  0.4212  0.1690 -0.5876
    1PA     H5R 6442   2.023   2.767   3.523  2.6250  0.2992 -0.5531
    1PA     H5S 6443   2.103   2.699   3.654 -1.0442  0.1203  1.0693
    1PA     C14 6444   2.072   2.574   3.481  0.2248 -0.5004  0.5363
    1PA     H4R 6445   2.033   2.472   3.496  1.2173 -1.3744 -2.2748
    1PA     H4S 6446   2.034   2.594   3.381 -0.6851 -1.1568  0.7361
    1PA     C13 6447   2.223   2.565   3.472 -0.3863  0.2232  0.2126
    1PA     H3R 6448   2.260   2.559   3.574 -1.3316  0.4709  0.5855
    1PA     H3S 6449   2.249   2.476   3.414  1.2078 -0.8132  2.3736
    1PA     C12 6450   2.286   2.684   3.396 -0.1348 -0.3974 -0.0938
    1PA     H2R 6451   2.243   2.696   3.296 -0.3040  1.0215  0.1274
    1PA     H2S 6452   2.265   2.779   3.447 -1.0938 -0.6261 -0.0456
    1PC     C11 6453   2.430   2.651   3.392 -0.4610 -0.0421 -0.4332
    1PC     O12 6454   2.495   2.628   3.492 -0.1715  0.0082  0.1983
    1PC     O11 6455   2.482   2.626   3.271  0.1342 -0.2076 -0.0652
    1PC      C1 6456   2.601   2.544   3.255 -0.0416 -0.3634 -0.6059
    1PC      HR 6457   2.622   2.558   3.149 -2.1697  1.0362 -0.9120
    1PC      HS 6458   2.681   2.572   3.324 -0.7098  0.1002 -0.0006
    1PC      C2 6459   2.566   2.392   3.268 -0.0517  0.2091 -0.0736
    1PC      HX 6460   2.655   2.328   3.267  0.9252  1.4177  2.0895
    1PC      C3 6461   2.488   2.341   3.160 -0.2716  0.0148  0.6554
    1PC      HA 6462   2.424   2.253   3.174  0.1729 -1.0925 -3.0155
    1PC      HB 6463   2.415   2.417   3.133 -0.7186 -1.1615 -1.7155
    1PC     O31 6464   2.565   2.316   3.034  0.4118  0.7033  0.0908
    1PC     P31 6465   2.490   2.264   2.894 -0.2683 -0.1342 -0.1488
    1PC     O32 6466   2.540   2.117   2.876 -0.8013 -0.5984  0.0918
    1PC     C31 6467   2.638   2.093   2.777 -0.0729 -0.0755  0.1502
    1PC     H1A 6468   2.611   2.140   2.681 -0.5510  0.5404  0.5744
    1PC     H1B 6469   2.735   2.127   2.813 -0.6394  0.8864  0.8257
    1PC     C32 6470   2.642   1.945   2.762  0.1158  0.1234  0.7660
    1PC     H2A 6471   2.728   1.910   2.705 -2.2972 -0.5152 -2.8566
    1PC     H2B 6472   2.626   1.887   2.853 -3.0725  0.2447  0.3840
    1PC     N31 6473   2.532   1.885   2.671  0.1950  1.0912  0.2721
    1PC     C33 6474   2.547   1.926   2.536 -0.7301 -0.1326 -0.5594
    1PC     H3A 6475   2.477   1.869   2.475 -0.2604 -2.0589  0.6400
    1PC     H3B 6476   2.537   2.035   2.537  1.8776  0.1820 -1.2757
    1PC     H3C 6477   2.647   1.904   2.497  0.0252  0.1190  1.1627
    1PC     C34 6478   2.567   1.735   2.664 -0.0635  0.3429 -0.1969
    1PC     H4A 6479   2.520   1.666   2.734  0.7718 -1.1249 -1.0372
    1PC     H4B 6480   2.539   1.700   2.565 -0.4113 -1.7686  0.6050
    1PC     H4C 6481   2.675   1.735   2.678 -0.0502  1.1878 -0.2219
    1PC     C35 6482   2.391   1.902   2.718  0.3275  0.8278 -0.0070
    1PC     H5A 6483   2.395   1.867   2.821  0.2701  0.0949 -0.2533
    1PC     H5B 6484   2.323   1.855   2.647 -2.0953  1.6574  1.6299
    1PC     H5C 6485   2.370   2.007   2.742 -0.0268  0.4113  1.6309
    1PC     O33 6486   2.343   2.246   2.923 -0.1870  0.1172 -0.3720
    1PC     O34 6487   2.531   2.363   2.794 -0.1598  0.5774 -0.1182
    1PC     O21 6488   2.502   2.360   3.387  0.5846 -0.2968  0.1725
    1PC     C21 6489   2.581   2.370   3.498 -0.0420  0.1304  0.0648
    1PC     O22 6490   2.698   2.393   3.494  0.0721  0.3269  0.2651
    1OL     C12 6491   2.500   2.348   3.623  1.0030  0.4927 -0.1738
    1OL     H2R 6492   2.459   2.249   3.601  2.9796 -0.6244  0.8992
    1OL     H2S 6493   2.415   2.416   3.618  0.8561  0.4218  1.0549
    1OL     C13 6494   2.574   2.357   3.758 -0.2876  0.4486  0.8819
    1OL     H3R 6495   2.640   2.443   3.755  0.3030 -0.0002 -2.0649
    1OL     H3S 6496   2.632   2.264   3.766 -3.3484 -1.6674  0.2584
    1OL     C14 6497   2.488   2.347   3.882  0.6592  0.3072  0.0950
    1OL     H4R 6498   2.436   2.251   3.879  2.7513 -0.8752 -0.1688
    1OL     H4S 6499   2.417   2.430   3.877 -1.7311 -1.2403  3.8308
    1OL     C15 6500   2.565   2.379   4.012  0.6774 -1.0366  0.1627
    1OL     H5R 6501   2.585   2.486   4.010  1.0197 -1.0118  2.2323
    1OL     H5S 6502   2.664   2.332   4.005  2.2667  2.2479 -1.8352
    1OL     C16 6503   2.491   2.338   4.141 -0.7519  0.6964  0.1231
    1OL     H6R 6504   2.458   2.235   4.128  0.4196  0.6014 -2.8301
    1OL     H6S 6505   2.400   2.398   4.137 -0.9804  0.2906 -1.6487
    1OL     C17 6506   2.579   2.357   4.268  0.3763 -1.0611 -0.7968
    1OL     H7R 6507   2.608   2.462   4.269 -1.7477 -0.4230 -1.1336
    1OL     H7S 6508   2.677   2.310   4.259  0.5170 -1.3505  1.5226
    1OL     C18 6509   2.511   2.310   4.399  0.2709  0.7153  0.4731
    1OL     H8R 6510   2.427   2.243   4.377  1.3888 -0.8686  0.8736
    1OL     H8S 6511   2.472   2.406   4.434 -1.4031  0.4329 -0.5129
    1OL     C19 6512   2.612   2.253   4.495  0.1311 -0.6214 -0.2418
    1OL     H9R 6513   2.703   2.309   4.512  0.3426 -1.2368  0.6961
    1OL    C110 6514   2.602   2.135   4.547  0.4578 -0.5295  0.0313
    1OL    H10R 6515   2.687   2.100   4.606  0.2793  1.0248  1.2587
    1OL    C111 6516   2.490   2.037   4.540  0.4758 -0.0468 -0.3477
    1OL    H11R 6517   2.508   1.951   4.476 -3.0885 -2.2790  1.3237
    1OL    H11S 6518   2.400   2.091   4.510  1.7017  3.2038  1.3338
    1OL    C112 6519   2.464   1.996   4.685  0.4408 -0.4067  0.4474
    1OL    H12R 6520   2.355   1.993   4.694  0.3528  1.8380  0.6717
    1OL    H12S 6521   2.484   2.074   4.759 -1.6134 -1.5596  2.3139
    1OL    C113 6522   2.525   1.858   4.723 -0.2212  0.0917 -0.2115
    1OL    H13R 6523   2.631   1.868   4.703 -0.5602 -0.2516 -2.4385
    1OL    H13S 6524   2.488   1.788   4.648 -0.1564  0.8706 -0.9782
    1OL    C114 6525   2.500   1.795   4.871  0.0207 -0.5269  0.3290
    1OL    H14R 6526   2.528   1.868   4.947  1.1492 -0.4182 -0.1717
    1OL    H14S 6527   2.560   1.704   4.878 -0.3510 -0.9335 -1.3080
    1OL    C115 6528   2.353   1.752   4.895  0.0615  0.9349 -0.7187
    1OL    H15R 6529   2.319   1.695   4.808  0.7512  0.5643 -0.7507
    1OL    H15S 6530   2.293   1.843   4.908 -0.1674  0.6436  0.3753
    1OL    C116 6531   2.347   1.662   5.020 -0.8424  0.7858 -0.9179
    1OL    H16R 6532   2.434   1.597   5.014  0.0619  1.5805  2.1180
    1OL    H16S 6533   2.253   1.607   5.006  0.5133 -1.2753 -2.5910
    1OL    C117 6534   2.357   1.738   5.156  0.4581  0.4193 -0.1326
    1OL    H17R 6535   2.270   1.803   5.151  0.0626 -0.1917 -2.7315
    1OL    H17S 6536   2.452   1.788   5.176 -1.0505  2.3844  2.8220
    1OL    C118 6537   2.342   1.652   5.282  0.3154  0.2377  0.1707
    1OL    H18R 6538   2.423   1.578   5.286  0.7435  0.7342  0.8272
    1OL    H18S 6539   2.245   1.604   5.296  1.5550 -2.1754  0.9189
    1OL    H18T 6540   2.344   1.719   5.368 -1.3878  1.1777 -0.4839
    1PA    C116 6541   1.826   0.325   4.693  0.8874 -0.6452 -0.3372
    1PA    H16R 6542   1.810   0.258   4.609  1.9680 -2.1061  0.5742
    1PA    H16S 6543   1.765   0.415   4.690  1.5497 -0.2096 -0.8411
    1PA    H16T 6544   1.808   0.279   4.791  3.1143 -1.5792 -0.3232
    1PA    C115 6545   1.972   0.380   4.692 -0.1055  0.4022 -0.1512
    1PA    H15R 6546   1.977   0.460   4.767  1.0631  1.0493 -0.8896
    1PA    H15S 6547   2.036   0.299   4.727  0.7939 -0.0564 -2.6924
    1PA    C114 6548   2.013   0.451   4.563  0.1024 -0.0047  0.3502
    1PA    H14R 6549   1.933   0.518   4.529  0.2695 -0.7924 -1.7146
    1PA    H14S 6550   2.093   0.522   4.583  1.6346 -1.3497 -0.7941
    1PA    C113 6551   2.049   0.360   4.445 -0.2263  0.0705 -0.2566
    1PA    H13R 6552   2.124   0.283   4.465 -0.3187 -0.4085 -1.6502
    1PA    H13S 6553   1.966   0.294   4.420 -1.2913  1.8986 -1.8455
    1PA    C112 6554   2.101   0.424   4.311  0.2171 -0.0036 -0.5298
    1PA    H12R 6555   2.038   0.510   4.286  2.4846  2.1598  0.7536
    1PA    H12S 6556   2.197   0.471   4.328  1.3160 -2.3743  0.3124
    1PA    C111 6557   2.119   0.331   4.188  0.3092  0.5727 -0.4704
    1PA    H11R 6558   2.153   0.389   4.102  0.9630 -1.1008 -1.3760
    1PA    H11S 6559   2.206   0.271   4.213 -0.8358 -0.5540  1.0136
    1PA    C110 6560   2.001   0.243   4.144  0.6097 -0.0353 -0.1678
    1PA    H10R 6561   2.026   0.202   4.045 -0.4897 -1.1074 -0.0279
    1PA    H10S 6562   1.987   0.151   4.201 -1.0344  0.3979  0.1861
    1PA     C19 6563   1.876   0.327   4.114 -0.3618 -0.2023  0.2299
    1PA     H9R 6564   1.826   0.354   4.208  1.7718  2.7965  0.6434
    1PA     H9S 6565   1.905   0.417   4.058  0.5190 -0.6267 -0.0128
    1PA     C18 6566   1.765   0.260   4.032 -0.1235 -0.6002  0.4626
    1PA     H8R 6567   1.809   0.216   3.942 -1.6507  2.6258 -2.1035
    1PA     H8S 6568   1.718   0.187   4.098 -0.4106 -0.2996  0.5973
    1PA     C17 6569   1.658   0.352   3.968  0.1371  0.1129 -0.3455
    1PA     H7R 6570   1.599   0.394   4.050  0.4685  0.3894 -0.2442
    1PA     H7S 6571   1.718   0.430   3.920  0.1359 -1.0058 -2.3015
    1PA     C16 6572   1.566   0.273   3.877  0.1931  0.0894  0.5697
    1PA     H6R 6573   1.503   0.358   3.849  0.5099  0.3644  0.6741
    1PA     H6S 6574   1.623   0.242   3.790 -1.1272  0.4334 -0.4577
    1PA     C15 6575   1.486   0.156   3.937 -0.4349  0.4880  0.3847
    1PA     H5R 6576   1.551   0.085   3.987  1.4982  0.7059 -1.6719
    1PA     H5S 6577   1.419   0.195   4.014  0.4614 -1.4377  2.2261
    1PA     C14 6578   1.405   0.090   3.824  0.2609  0.7168 -0.4516
    1PA     H4R 6579   1.370   0.000   3.876 -0.3057  2.0508  1.5685
    1PA     H4S 6580   1.321   0.148   3.787 -0.2461 -0.6155 -1.4968
    1PA     C13 6581   1.480   0.031   3.704  0.1350 -0.9099  0.4504
    1PA     H3R 6582   1.543   0.110   3.661  0.7010  0.9940  4.2393
    1PA     H3S 6583   1.550  -0.049   3.729  3.2733  0.5988 -2.6950
    1PA     C12 6584   1.388  -0.026   3.590  0.4010  0.2310 -0.1796
    1PA     H2R 6585   1.360  -0.125   3.624  0.5694  1.0999  2.7631
    1PA     H2S 6586   1.305   0.045   3.581 -0.7646 -1.1168 -0.2671
    1PC     C11 6587   1.462  -0.047   3.458 -0.0893  0.1900  0.3316
    1PC     O12 6588   1.435  -0.004   3.347 -0.5020  0.1025  0.4663
    1PC     O11 6589   1.568  -0.131   3.488  0.2313  0.6626  0.0276
    1PC      C1 6590   1.644  -0.184   3.371 -0.1256  0.1193  0.1354
    1PC      HR 6591   1.699  -0.270   3.410 -0.4177 -0.0661  0.1400
    1PC      HS 6592   1.582  -0.231   3.295  2.6024 -0.5949 -1.8125
    1PC      C2 6593   1.741  -0.082   3.314  0.1740 -0.5279  0.4414
    1PC      HX 6594   1.692   0.011   3.283 -0.5835 -0.7217  1.0208
    1PC      C3 6595   1.824  -0.135   3.194  0.1083  0.8500 -1.1175
    1PC      HA 6596   1.903  -0.067   3.161 -1.2427  1.5027 -3.1788
    1PC      HB 6597   1.855  -0.237   3.215 -0.2563  1.0907  0.7918
    1PC     O31 6598   1.732  -0.137   3.085 -0.6797  0.6032 -0.1030
    1PC     P31 6599   1.709  -0.012   2.993  0.2092 -0.1381  0.1018
    1PC     O32 6600   1.581   0.072   3.044 -0.8240 -0.4162  0.6363
    1PC     C31 6601   1.447   0.033   3.025  0.2744  0.3767  0.7109
    1PC     H1A 6602   1.429   0.017   2.918  0.8956 -2.9195  0.9870
    1PC     H1B 6603   1.431  -0.065   3.070 -1.8254 -0.0130 -0.7143
    1PC     C32 6604   1.357   0.137   3.092  0.2296  0.2827 -0.1222
    1PC     H2A 6605   1.374   0.130   3.200 -1.4083  2.1780  0.3157
    1PC     H2B 6606   1.392   0.232   3.053  0.4495  1.5820  2.9049
    1PC     N31 6607   1.212   0.127   3.060 -0.5667 -0.5740  0.3707
    1PC     C33 6608   1.152   0.000   3.121  0.1132 -0.1541 -0.1661
    1PC     H3A 6609   1.046  -0.005   3.098  0.0736 -0.5954  0.1062
    1PC     H3B 6610   1.207  -0.084   3.079 -0.0289  0.3656 -1.4316
    1PC     H3C 6611   1.175   0.013   3.227  1.1916 -2.8334  0.0006
    1PC     C34 6612   1.143   0.242   3.122 -0.1384 -0.2453 -0.2147
    1PC     H4A 6613   1.129   0.212   3.226  2.6028 -0.5252  0.1237
    1PC     H4B 6614   1.211   0.325   3.104  0.1183 -0.5211 -0.5097
    1PC     H4C 6615   1.043   0.262   3.081 -1.0117 -0.9206  1.4652
    1PC     C35 6616   1.181   0.131   2.918  0.2018  0.0025 -0.4574
    1PC     H5A 6617   1.201   0.037   2.867 -1.4442 -0.5191 -0.1908
    1PC     H5B 6618   1.247   0.208   2.876  0.2500 -0.5481 -1.4081
    1PC     H5C 6619   1.074   0.154   2.915 -0.4990 -2.6194  1.3247
    1PC     O33 6620   1.835   0.072   2.994  0.2258 -0.0451 -0.0818
    1PC     O34 6621   1.657  -0.071   2.868 -0.1714 -0.3135 -0.2679
    1PC     O21 6622   1.832  -0.043   3.418  1.1934 -0.4209  0.1307
    1PC     C21 6623   1.808   0.071   3.486 -0.3275  0.9347  0.0820
    1PC     O22 6624   1.718   0.151   3.463  0.2238 -0.2258 -0.3359
    1OL     C12 6625   1.911   0.096   3.594  0.4068  0.1453  0.3359
    1OL     H2R 6626   2.001   0.043   3.565 -1.3617 -1.8170 -1.8816
    1OL     H2S 6627   1.869   0.057   3.687  2.2059 -2.4230  0.1549
    1OL     C13 6628   1.931   0.252   3.611  0.0157  0.2232  0.1021
    1OL     H3R 6629   1.832   0.295   3.628  0.1847  0.2758  1.0410
    1OL     H3S 6630   1.968   0.289   3.516 -1.4677  0.7803 -0.2694
    1OL     C14 6631   2.021   0.283   3.734 -0.8647  0.1135  0.0224
    1OL     H4R 6632   2.121   0.254   3.701  0.2367 -0.1446  3.2315
    1OL     H4S 6633   1.993   0.212   3.812  1.9990 -0.1155  0.9409
    1OL     C15 6634   2.029   0.426   3.797  0.0636 -0.3658  0.8710
    1OL     H5R 6635   2.103   0.426   3.877  0.7726 -1.8957  0.2515
    1OL     H5S 6636   1.934   0.442   3.848  0.9783  0.2951  2.4484
    1OL     C16 6637   2.064   0.531   3.691  0.5880 -0.1670 -0.1093
    1OL     H6R 6638   2.004   0.517   3.601  1.2481  3.3565 -1.2705
    1OL     H6S 6639   2.168   0.514   3.660  0.2104 -0.3346 -1.3204
    1OL     C17 6640   2.035   0.668   3.735 -0.2949  0.7971 -0.2030
    1OL     H7R 6641   1.932   0.693   3.762  0.9554  4.2231  2.1099
    1OL     H7S 6642   2.048   0.724   3.642 -1.1850 -2.4149 -2.4533
    1OL     C18 6643   2.147   0.699   3.835 -0.1086 -0.1982  0.5827
    1OL     H8R 6644   2.237   0.670   3.779 -0.6876 -1.4122  0.2528
    1OL     H8S 6645   2.145   0.635   3.923  1.1864  0.2642  0.9740
    1OL     C19 6646   2.144   0.848   3.867  0.4675  0.9276  0.2503
    1OL     H9R 6647   2.075   0.865   3.949  0.1124  0.9060 -0.0411
    1OL    C110 6648   2.211   0.948   3.809  0.5178 -0.0586 -0.3626
    1OL    H10R 6649   2.185   1.048   3.841 -1.7476 -1.4081  2.4865
    1OL    C111 6650   2.322   0.935   3.699  0.2781 -0.8130 -0.4970
    1OL    H11R 6651   2.290   0.960   3.598  0.0520  0.2317 -0.1849
    1OL    H11S 6652   2.342   0.830   3.680 -1.7018 -0.9813 -2.0241
    1OL    C112 6653   2.442   1.028   3.730 -0.3595 -0.3161 -0.0717
    1OL    H12R 6654   2.524   1.002   3.663  1.6425  0.2101  2.0426
    1OL    H12S 6655   2.484   1.011   3.829  3.4672  0.4557 -1.3716
    1OL    C113 6656   2.410   1.180   3.713 -0.4124 -0.5502  0.4894
    1OL    H13R 6657   2.336   1.216   3.784  0.7138  3.4266 -0.1234
    1OL    H13S 6658   2.383   1.206   3.611  0.2405  2.1416  0.9310
    1OL    C114 6659   2.545   1.252   3.745 -0.3497 -0.5724  0.0878
    1OL    H14R 6660   2.619   1.239   3.666  0.5373 -0.6922  0.9203
    1OL    H14S 6661   2.596   1.213   3.833 -1.0025  3.1281  2.3278
    1OL    C115 6662   2.527   1.400   3.768 -0.2172  0.1281 -0.0742
    1OL    H15R 6663   2.458   1.417   3.852  0.3487 -0.7306  0.5800
    1OL    H15S 6664   2.486   1.448   3.679 -0.8286 -0.8176 -0.3183
    1OL    C116 6665   2.658   1.470   3.796  0.7716 -0.6326  0.4610
    1OL    H16R 6666   2.634   1.577   3.798 -0.6730 -0.8675 -1.3997
    1OL    H16S 6667   2.723   1.468   3.708  1.2987  2.1830  0.6871
    1OL    C117 6668   2.735   1.426   3.913 -0.1558  0.1010 -0.0431
    1OL    H17R 6669   2.778   1.327   3.895 -0.5033 -0.2017  0.7158
    1OL    H17S 6670   2.669   1.404   3.998 -0.6177 -0.8212 -0.6191
    1OL    C118 6671   2.848   1.520   3.972  0.2415 -0.1219  0.8124
    1OL    H18R 6672   2.811   1.623   3.977  0.3091 -0.0358 -0.1657
    1OL    H18S 6673   2.940   1.513   3.914 -0.1255 -0.3583  0.2512
    1OL    H18T 6674   2.862   1.483   4.073  0.9974  1.1054  1.1833
    1PA    C116 6675   0.859   3.688   4.943  0.7294 -0.5479  0.1547
    1PA    H16R 6676   0.893   3.763   4.871  1.0580  0.4844  1.3380
    1PA    H16S 6677   0.817   3.751   5.022 -2.1012 -0.4762 -1.2892
    1PA    H16T 6678   0.776   3.640   4.892  0.1932 -0.7923  1.2203
    1PA    C115 6679   0.973   3.596   4.997  0.8865 -0.2240  1.0473
    1PA    H15R 6680   1.038   3.660   5.057  1.6525  0.8699 -0.8535
    1PA    H15S 6681   0.914   3.524   5.055 -0.1225 -0.9263 -0.7705
    1PA    C114 6682   1.058   3.524   4.884  0.3570 -0.1506 -0.0664
    1PA    H14R 6683   1.096   3.608   4.826  0.6375  0.1871  0.5879
    1PA    H14S 6684   1.135   3.466   4.936 -0.1941  0.0851  1.0382
    1PA    C113 6685   0.973   3.429   4.798  0.4263  0.1700  0.1303
    1PA    H13R 6686   0.930   3.346   4.855  1.2015  0.5036  1.2239
    1PA    H13S 6687   0.895   3.496   4.762  0.6574  0.4280  0.1086
    1PA    C112 6688   1.034   3.364   4.678 -0.4160 -0.1278  0.5779
    1PA    H12R 6689   1.135   3.327   4.699  1.2182  2.9826 -1.1030
    1PA    H12S 6690   0.972   3.276   4.658 -0.0210 -0.0717 -1.0029
    1PA    C111 6691   1.048   3.472   4.569  0.2283 -0.1615 -0.2424
    1PA    H11R 6692   1.100   3.564   4.594 -1.5499  1.4171 -2.0415
    1PA    H11S 6693   1.104   3.413   4.496 -0.7336  0.0145 -1.1375
    1PA    C110 6694   0.927   3.511   4.488 -0.4552 -0.0848 -0.5097
    1PA    H10R 6695   0.872   3.421   4.459  0.6736 -0.6178 -1.0531
    1PA    H10S 6696   0.853   3.571   4.540 -0.4970  0.6920 -1.4255
    1PA     C19 6697   0.956   3.584   4.350 -0.2515 -0.3778 -0.8739
    1PA     H9R 6698   0.862   3.606   4.301 -0.3986  0.4210 -0.2686
    1PA     H9S 6699   0.995   3.685   4.370 -1.9838  0.2553 -0.5424
    1PA     C18 6700   1.039   3.510   4.251  0.2720 -0.4603 -0.6323
    1PA     H8R 6701   1.138   3.494   4.294  0.4551  0.3593 -0.7415
    1PA     H8S 6702   0.990   3.416   4.223 -2.9417  1.1245 -0.7747
    1PA     C17 6703   1.059   3.585   4.123 -0.0783  0.1384  0.4282
    1PA     H7R 6704   0.964   3.627   4.090 -1.2682 -0.5944  2.6671
    1PA     H7S 6705   1.119   3.671   4.152 -2.8052  2.2468  0.2079
    1PA     C16 6706   1.137   3.496   4.021 -0.0644  0.1356 -0.0287
    1PA     H6R 6707   1.204   3.555   3.957  0.1748 -0.5403 -0.4128
    1PA     H6S 6708   1.214   3.442   4.076 -1.3756  1.1390  2.9764
    1PA     C15 6709   1.046   3.401   3.942  0.3125  1.0101  0.9434
    1PA     H5R 6710   0.991   3.338   4.012  1.2569 -2.4327 -1.1506
    1PA     H5S 6711   0.967   3.453   3.888 -1.8579 -2.1637  0.7802
    1PA     C14 6712   1.130   3.314   3.849  0.3159 -0.1894  0.1682
    1PA     H4R 6713   1.187   3.373   3.777  2.5025 -2.8249 -0.4301
    1PA     H4S 6714   1.200   3.247   3.899 -0.0571 -1.1757 -0.5973
    1PA     C13 6715   1.025   3.227   3.774 -0.4720 -0.7004 -0.3518
    1PA     H3R 6716   0.950   3.185   3.841 -0.7512 -0.0124 -0.2155
    1PA     H3S 6717   0.976   3.294   3.703 -0.6684 -0.8088 -0.3194
    1PA     C12 6718   1.096   3.115   3.689  0.4411  0.1615  0.5329
    1PA     H2R 6719   1.181   3.154   3.633  0.1635  2.0326  1.3576
    1PA     H2S 6720   1.135   3.039   3.757 -1.7341 -0.2953  1.3448
    1PC     C11 6721   1.005   3.046   3.591 -0.5136  0.3104 -0.5445
    1PC     O12 6722   1.010   3.070   3.471  0.6994 -0.1885  0.3965
    1PC     O11 6723   0.914   2.955   3.645  0.2110  0.0535 -0.2317
    1PC      C1 6724   0.821   2.895   3.554  0.4732 -0.7333 -0.2236
    1PC      HR 6725   0.760   2.970   3.504  0.3425 -0.2754  0.6011
    1PC      HS 6726   0.876   2.844   3.474  1.0517 -0.4111 -0.0354
    1PC      C2 6727   0.721   2.806   3.633  0.0144 -0.4628  0.4102
    1PC      HX 6728   0.772   2.716   3.665  1.5375 -0.1245 -0.9294
    1PC      C3 6729   0.611   2.763   3.539  0.0866 -0.2910 -0.3982
    1PC      HA 6730   0.543   2.692   3.586 -2.2037  2.4516  0.7854
    1PC      HB 6731   0.549   2.851   3.521 -0.4465 -0.5365  0.1983
    1PC     O31 6732   0.661   2.716   3.411 -0.8926 -0.6017  0.1924
    1PC     P31 6733   0.571   2.714   3.286 -0.0750  0.0516 -0.1254
    1PC     O32 6734   0.556   2.864   3.262 -0.0594  0.1560 -0.1060
    1PC     C31 6735   0.648   2.941   3.182 -0.2066  0.4305  0.3765
    1PC     H1A 6736   0.644   3.041   3.224 -2.2322  1.1109 -1.2529
    1PC     H1B 6737   0.751   2.906   3.190 -0.6926 -1.2588 -0.2701
    1PC     C32 6738   0.590   2.955   3.030 -0.6795  0.6935 -0.6715
    1PC     H2A 6739   0.599   2.862   2.975 -1.1814  0.2116  0.0475
    1PC     H2B 6740   0.487   2.990   3.039 -0.0473  2.3607  0.6370
    1PC     N31 6741   0.667   3.061   2.961 -0.6328  0.0756  0.5084
    1PC     C33 6742   0.666   3.201   3.028 -0.1373  0.3773  0.2658
    1PC     H3A 6743   0.712   3.271   2.958  2.2894 -0.6455  0.7414
    1PC     H3B 6744   0.561   3.224   3.045 -1.0718 -2.9766 -0.1884
    1PC     H3C 6745   0.731   3.209   3.116  1.1603 -0.4059 -0.5924
    1PC     C34 6746   0.809   3.026   2.943 -0.1700 -0.5687 -0.2655
    1PC     H4A 6747   0.815   2.927   2.899 -0.8259 -0.5485 -0.4074
    1PC     H4B 6748   0.857   3.104   2.884  0.3514 -0.4093  0.3575
    1PC     H4C 6749   0.855   3.021   3.042  0.3070 -4.1783 -0.5653
    1PC     C35 6750   0.611   3.069   2.820 -0.3011  0.1352 -0.2434
    1PC     H5A 6751   0.668   3.132   2.752  1.3877 -0.7567  0.2945
    1PC     H5B 6752   0.504   3.087   2.832 -0.9261 -3.5232  0.9234
    1PC     H5C 6753   0.614   2.969   2.776 -1.0334  0.6422 -1.5002
    1PC     O33 6754   0.636   2.638   3.182 -1.2198  0.2249 -0.3763
    1PC     O34 6755   0.433   2.667   3.334  0.2547  0.4910 -0.0952
    1PC     O21 6756   0.660   2.874   3.745 -0.2617  0.6683 -0.3451
    1PC     C21 6757   0.597   2.794   3.838 -1.0174 -0.0799 -0.1711
    1PC     O22 6758   0.589   2.676   3.843 -0.2974 -0.4733 -0.6945
    1OL     C12 6759   0.551   2.898   3.940 -0.5238  0.1620 -0.3497
    1OL     H2R 6760   0.452   2.934   3.912 -0.0717 -0.2741 -2.7779
    1OL     H2S 6761   0.626   2.978   3.936  0.0804 -0.4236 -1.1530
    1OL     C13 6762   0.554   2.840   4.084  0.5151  0.1887 -0.2229
    1OL     H3R 6763   0.654   2.818   4.121  1.7457  0.9355 -2.8554
    1OL     H3S 6764   0.493   2.750   4.077  1.2709 -0.2629 -1.2068
    1OL     C14 6765   0.483   2.935   4.185 -0.1953  0.0651  0.1159
    1OL     H4R 6766   0.375   2.925   4.179 -0.0862 -0.5386 -1.4447
    1OL     H4S 6767   0.517   3.039   4.181  1.3764 -0.3691  1.2892
    1OL     C15 6768   0.497   2.881   4.336 -0.2836 -0.3152  0.3272
    1OL     H5R 6769   0.428   2.939   4.397 -0.1339  0.4355 -0.2041
    1OL     H5S 6770   0.597   2.911   4.370  0.0754  2.0299 -2.4106
    1OL     C16 6771   0.481   2.735   4.357 -0.6389 -1.1753  0.0069
    1OL     H6R 6772   0.527   2.705   4.451 -2.5868  0.6215  1.6191
    1OL     H6S 6773   0.536   2.688   4.275  1.9242 -0.1652  1.0444
    1OL     C17 6774   0.334   2.679   4.338  0.3114  0.4075  0.5629
    1OL     H7R 6775   0.319   2.672   4.230 -0.0477 -1.4836  0.7027
    1OL     H7S 6776   0.262   2.741   4.391  0.6633  0.4653  0.9805
    1OL     C18 6777   0.323   2.536   4.387  0.2598 -0.1676  0.5218
    1OL     H8R 6778   0.348   2.529   4.493 -0.9902  1.4819  0.9669
    1OL     H8S 6779   0.397   2.476   4.334  0.4064  0.4834 -0.0257
    1OL     C19 6780   0.182   2.490   4.351 -0.2963 -0.0879 -0.7185
    1OL     H9R 6781   0.144   2.496   4.249 -1.7578 -0.7593 -0.2530
    1OL    C110 6782   0.093   2.436   4.432 -0.7011  0.5190 -1.0105
    1OL    H10R 6783   0.001   2.395   4.390  0.5685 -0.6646 -2.7264
    1OL    C111 6784   0.109   2.405   4.584  0.0355 -0.7058 -0.3710
    1OL    H11R 6785   0.207   2.430   4.627 -1.1700 -1.1654  2.9704
    1OL    H11S 6786   0.095   2.298   4.594 -2.1850 -0.4739 -0.5760
    1OL    C112 6787  -0.002   2.472   4.670  0.2220 -0.0456 -0.2217
    1OL    H12R 6788  -0.095   2.429   4.631  0.6156 -0.5398 -0.6348
    1OL    H12S 6789  -0.007   2.581   4.665 -4.8717 -0.0057 -0.0482
    1OL    C113 6790   0.023   2.449   4.822 -0.6719  0.5482  0.0732
    1OL    H13R 6791  -0.044   2.506   4.887 -1.0413  0.8954 -0.6042
    1OL    H13S 6792   0.124   2.485   4.842  0.2123 -1.7319 -0.0336
    1OL    C114 6793   0.033   2.303   4.875  0.4011  0.0884 -1.0237
    1OL    H14R 6794   0.114   2.257   4.819  2.8443 -1.5430  3.3890
    1OL    H14S 6795  -0.063   2.256   4.852  0.5155 -0.0833 -1.1565
    1OL    C115 6796   0.074   2.280   5.022  0.8293 -0.2589  0.5365
    1OL    H15R 6797   0.167   2.336   5.030  1.1125 -0.5647 -0.4746
    1OL    H15S 6798   0.112   2.178   5.037 -3.0205 -1.8022  1.0068
    1OL    C116 6799  -0.033   2.308   5.131 -0.3329  0.2169 -0.9106
    1OL    H16R 6800  -0.051   2.415   5.143  0.6322  0.4332 -1.3161
    1OL    H16S 6801   0.011   2.289   5.229 -3.9678  0.0780  0.8552
    1OL    C117 6802  -0.161   2.226   5.111  0.2757  0.2198 -0.1178
    1OL    H17R 6803  -0.145   2.122   5.082  0.3295 -0.4317  2.0655
    1OL    H17S 6804  -0.207   2.276   5.025  0.4964 -2.3304 -1.8187
    1OL    C118 6805  -0.249   2.224   5.236 -0.2846  0.0258  0.1919
    1OL    H18R 6806  -0.278   2.325   5.262 -0.7071  0.1519 -0.7080
    1OL    H18S 6807  -0.192   2.186   5.321 -2.0823 -0.2486  1.3334
    1OL    H18T 6808  -0.339   2.164   5.219 -0.4529 -0.3913  2.3639
    1PA    C116 6809   1.968   3.207   5.260 -0.2166 -0.2525 -0.3129
    1PA    H16R 6810   2.001   3.144   5.177 -0.7967 -0.8748 -0.0863
    1PA    H16S 6811   1.940   3.148   5.347  0.2157  0.5505  0.3843
    1PA    H16T 6812   2.045   3.275   5.296  1.4189 -1.7814 -0.7763
    1PA    C115 6813   1.841   3.283   5.209  0.2112  0.1689 -0.1467
    1PA    H15R 6814   1.774   3.211   5.162  3.1168 -1.4334 -2.1229
    1PA    H15S 6815   1.791   3.329   5.295  1.7513 -0.1200  0.9530
    1PA    C114 6816   1.884   3.399   5.115  0.1730  0.3852  0.4306
    1PA    H14R 6817   1.822   3.487   5.134 -2.2849 -0.8797 -1.2904
    1PA    H14S 6818   1.980   3.440   5.147 -0.0002  0.7221  0.5204
    1PA    C113 6819   1.891   3.345   4.969  0.4816  0.2308 -0.0219
    1PA    H13R 6820   1.930   3.243   4.968 -1.5751 -0.7956  4.1444
    1PA    H13S 6821   1.787   3.332   4.941  0.0450  0.2647  1.5113
    1PA    C112 6822   1.969   3.427   4.870  0.4137  0.4786  0.4134
    1PA    H12R 6823   1.930   3.529   4.869  0.1101  0.3638  0.4975
    1PA    H12S 6824   2.074   3.431   4.899  0.3661 -0.4888  0.7548
    1PA    C111 6825   1.988   3.376   4.728 -0.2312  0.1818 -0.3851
    1PA    H11R 6826   2.074   3.424   4.680 -0.2555  0.0667 -0.5438
    1PA    H11S 6827   2.003   3.267   4.729  1.0356  0.3397 -0.4974
    1PA    C110 6828   1.877   3.397   4.627  0.5227  0.1006  0.2300
    1PA    H10R 6829   1.788   3.387   4.689 -0.6090  1.9150 -0.9996
    1PA    H10S 6830   1.890   3.495   4.580  0.4195  0.5892  1.2028
    1PA     C19 6831   1.903   3.288   4.522  0.8977  0.6696 -0.4071
    1PA     H9R 6832   2.007   3.281   4.488  0.8028  1.6619 -0.9331
    1PA     H9S 6833   1.881   3.199   4.581 -0.1634  0.4712 -1.0674
    1PA     C18 6834   1.803   3.285   4.409  0.9305  0.1121 -0.4472
    1PA     H8R 6835   1.706   3.265   4.454  2.4205 -1.8805  2.2101
    1PA     H8S 6836   1.790   3.382   4.361  0.4597  0.9963  1.3867
    1PA     C17 6837   1.835   3.174   4.304  0.3283 -0.1380  0.5043
    1PA     H7R 6838   1.847   3.083   4.363  0.4671 -1.5497 -1.6112
    1PA     H7S 6839   1.751   3.144   4.241  1.6607  0.2573 -1.5541
    1PA     C16 6840   1.950   3.199   4.205  0.0052  0.2537  0.1042
    1PA     H6R 6841   1.942   3.300   4.164 -0.4825 -0.3626 -1.3704
    1PA     H6S 6842   2.047   3.193   4.255 -0.2998  2.0790  1.0209
    1PA     C15 6843   1.950   3.104   4.082  0.4757 -0.0785 -0.0357
    1PA     H5R 6844   1.953   3.000   4.117  2.5374 -0.6050 -1.6351
    1PA     H5S 6845   1.858   3.120   4.026  1.7473  1.7805 -1.6967
    1PA     C14 6846   2.076   3.124   3.990  0.1519  0.8321  0.5527
    1PA     H4R 6847   2.116   3.225   3.986  3.9366 -0.5302  0.3826
    1PA     H4S 6848   2.161   3.070   4.032 -0.2912  1.1039  1.8507
    1PA     C13 6849   2.036   3.082   3.846  0.2837 -0.5217  0.2812
    1PA     H3R 6850   2.009   2.976   3.844  0.8306 -0.6570 -0.4411
    1PA     H3S 6851   1.950   3.136   3.805 -0.4893 -0.0748  2.4080
    1PA     C12 6852   2.154   3.110   3.753 -0.9130  0.2051  0.3761
    1PA     H2R 6853   2.178   3.215   3.773 -1.4503  0.4034 -0.0078
    1PA     H2S 6854   2.240   3.048   3.782 -1.1182 -0.5606 -0.6004
    1PC     C11 6855   2.120   3.094   3.606  0.0367 -0.5319 -0.7640
    1PC     O12 6856   2.138   2.991   3.548 -0.0791 -0.5272  0.0956
    1PC     O11 6857   2.062   3.203   3.550 -0.2707 -0.5599 -0.6073
    1PC      C1 6858   2.019   3.205   3.412  0.3198  0.2318  0.4442
    1PC      HR 6859   1.992   3.303   3.371 -0.0986  0.2424  0.7329
    1PC      HS 6860   2.090   3.154   3.347  0.5698 -1.3514  1.8941
    1PC      C2 6861   1.888   3.119   3.393  0.3722  1.0722 -0.3453
    1PC      HX 6862   1.907   3.018   3.429 -0.4011  0.1108 -2.4328
    1PC      C3 6863   1.858   3.108   3.242  0.7139  0.4668  0.9062
    1PC      HA 6864   1.949   3.077   3.189  2.8416  2.0052  3.4559
    1PC      HB 6865   1.768   3.047   3.229 -0.3231  1.7375  1.8290
    1PC     O31 6866   1.812   3.231   3.183 -0.4895  0.0598 -0.2430
    1PC     P31 6867   1.889   3.281   3.053 -0.3336  0.1866 -0.1626
    1PC     O32 6868   1.867   3.168   2.953  0.1908 -0.2757 -0.3922
    1PC     C31 6869   1.743   3.165   2.873  0.4810 -0.2399  0.0754
    1PC     H1A 6870   1.660   3.149   2.942 -0.2519  3.2297  0.2035
    1PC     H1B 6871   1.725   3.263   2.828 -0.9626  0.3610  1.8539
    1PC     C32 6872   1.752   3.051   2.776  0.1558  0.5549 -0.7224
    1PC     H2A 6873   1.652   3.057   2.731 -0.0342  0.3559 -0.3344
    1PC     H2B 6874   1.825   3.071   2.698 -0.5984  2.5502 -0.9835
    1PC     N31 6875   1.773   2.910   2.830 -0.2311  0.4667  0.6300
    1PC     C33 6876   1.692   2.878   2.956  0.3819  0.0443  0.3488
    1PC     H3A 6877   1.702   2.771   2.974 -0.5579 -1.0010 -4.1216
    1PC     H3B 6878   1.746   2.918   3.042 -0.3037 -1.6007  1.5928
    1PC     H3C 6879   1.588   2.913   2.950  0.7331  1.1744  0.4950
    1PC     C34 6880   1.736   2.817   2.716 -1.1010 -0.5626  0.0325
    1PC     H4A 6881   1.799   2.842   2.630 -0.1756 -2.1090  0.2281
    1PC     H4B 6882   1.766   2.720   2.754  2.5383  0.5364  0.4050
    1PC     H4C 6883   1.635   2.837   2.678  0.3486  3.9823 -2.2096
    1PC     C35 6884   1.919   2.891   2.870 -0.2042  0.5709  0.6655
    1PC     H5A 6885   1.918   2.784   2.893 -1.2764  0.1985 -0.9557
    1PC     H5B 6886   1.949   2.963   2.946  0.4116  0.8958  0.1168
    1PC     H5C 6887   1.972   2.900   2.776  0.8781 -0.1871  1.1845
    1PC     O33 6888   1.833   3.401   3.001  0.1269  0.0829 -0.0142
    1PC     O34 6889   2.030   3.292   3.082  0.1024  0.1982  0.1837
    1PC     O21 6890   1.781   3.189   3.464 -0.2536 -0.4140 -0.7974
    1PC     C21 6891   1.727   3.130   3.572  0.3752 -0.7286 -0.0216
    1PC     O22 6892   1.740   3.010   3.609 -0.2026 -0.0739 -0.0399
    1OL     C12 6893   1.633   3.227   3.645  0.1028  0.0055  0.5700
    1OL     H2R 6894   1.570   3.264   3.564 -0.8254 -1.9978  0.3112
    1OL     H2S 6895   1.691   3.314   3.675  0.9020  1.1548 -3.7088
    1OL     C13 6896   1.539   3.167   3.751  0.3498 -0.4265  1.0149
    1OL     H3R 6897   1.490   3.078   3.711  2.6225 -1.4150  0.2957
    1OL     H3S 6898   1.467   3.242   3.783  0.3346  0.2305 -0.5170
    1OL     C14 6899   1.616   3.134   3.879  0.7292 -0.0479 -0.0658
    1OL     H4R 6900   1.662   3.226   3.914 -1.4242  1.9440 -2.1557
    1OL     H4S 6901   1.699   3.064   3.869  0.3924 -0.5684  0.6924
    1OL     C15 6902   1.526   3.073   3.988  0.4717 -0.2638  0.2271
    1OL     H5R 6903   1.593   3.020   4.056 -1.6794 -0.8032  2.0583
    1OL     H5S 6904   1.464   2.998   3.939  0.4586 -0.2823  0.2713
    1OL     C16 6905   1.450   3.183   4.070 -0.7465  0.1069  0.8276
    1OL     H6R 6906   1.416   3.254   3.994  0.1180 -1.3862 -1.0234
    1OL     H6S 6907   1.523   3.239   4.129  0.5334 -1.3276  0.6686
    1OL     C17 6908   1.328   3.144   4.147  0.0119  0.2041 -0.7267
    1OL     H7R 6909   1.260   3.105   4.071  0.2936  0.0229 -0.8850
    1OL     H7S 6910   1.288   3.231   4.200 -1.7369 -1.4404  0.8140
    1OL     C18 6911   1.344   3.027   4.237  0.3910 -0.8112 -0.3427
    1OL     H8R 6912   1.358   2.941   4.171  0.5678  1.3703 -3.3377
    1OL     H8S 6913   1.247   3.008   4.285  0.3450 -0.9011 -0.4693
    1OL     C19 6914   1.460   3.029   4.338  0.1290 -0.2258  0.3584
    1OL     H9R 6915   1.558   3.020   4.292  0.3814  2.9938  0.0930
    1OL    C110 6916   1.447   3.008   4.468 -0.4715  0.4130 -0.0976
    1OL    H10R 6917   1.534   2.996   4.531 -0.2774 -1.3066 -0.6482
    1OL    C111 6918   1.314   3.034   4.539  0.0006 -0.1430  0.7766
    1OL    H11R 6919   1.256   2.942   4.544  1.3214 -1.3340 -2.6158
    1OL    H11S 6920   1.262   3.102   4.472 -0.1713  1.3883  2.4091
    1OL    C112 6921   1.332   3.098   4.673 -0.1532  0.3235 -0.1396
    1OL    H12R 6922   1.229   3.121   4.704 -0.0065  2.6619 -1.1310
    1OL    H12S 6923   1.379   3.197   4.671 -0.2826  0.3962  0.2636
    1OL    C113 6924   1.391   3.001   4.786  0.1193  0.5945  0.0020
    1OL    H13R 6925   1.495   2.981   4.757 -0.1334 -1.4545  0.3944
    1OL    H13S 6926   1.333   2.909   4.780  1.5132 -0.2203 -3.5919
    1OL    C114 6927   1.385   3.079   4.918  0.3206 -0.4401  0.3677
    1OL    H14R 6928   1.281   3.110   4.925  0.5658  0.6057 -0.3298
    1OL    H14S 6929   1.437   3.175   4.918 -1.0751  0.3577  1.2455
    1OL    C115 6930   1.430   3.003   5.042  0.1656 -0.6516 -0.9389
    1OL    H15R 6931   1.539   2.998   5.036  0.2096 -0.7275 -0.2030
    1OL    H15S 6932   1.384   2.906   5.057 -1.9933  0.4751  0.1019
    1OL    C116 6933   1.406   3.076   5.180  0.6517  0.1182  1.3657
    1OL    H16R 6934   1.298   3.095   5.182 -0.0256 -1.9493 -3.0363
    1OL    H16S 6935   1.456   3.172   5.191 -0.6613  0.8701  1.1053
    1OL    C117 6936   1.435   2.988   5.305 -0.0657 -0.7526  0.2855
    1OL    H17R 6937   1.399   2.886   5.293 -0.5302 -1.0763  3.5807
    1OL    H17S 6938   1.384   3.032   5.391 -1.3205  3.5560 -2.3193
    1OL    C118 6939   1.585   2.982   5.325  0.1273  0.5170  0.4308
    1OL    H18R 6940   1.624   2.919   5.244  2.1318  2.5029 -0.2506
    1OL    H18S 6941   1.602   2.919   5.412  1.4513  1.3296  0.7862
    1OL    H18T 6942   1.637   3.078   5.326  0.2645  0.4717 -0.6329
    1PA    C116 6943   1.579   4.338   4.861  0.5587  0.7026 -0.6748
    1PA    H16R 6944   1.646   4.378   4.785 -1.4416  1.6039 -2.0413
    1PA    H16S 6945   1.616   4.251   4.917 -0.5994  0.1379 -0.7625
    1PA    H16T 6946   1.551   4.413   4.935  1.3475  0.2951  0.0541
    1PA    C115 6947   1.451   4.279   4.800 -0.0076 -0.1551  0.0414
    1PA    H15R 6948   1.387   4.247   4.883 -1.0526  0.3896 -0.5418
    1PA    H15S 6949   1.412   4.360   4.738  2.5844 -0.0428 -1.5774
    1PA    C114 6950   1.483   4.152   4.716  0.0764  0.4976  0.7702
    1PA    H14R 6951   1.545   4.074   4.761  0.9698 -0.7471 -2.3437
    1PA    H14S 6952   1.384   4.107   4.704 -1.3627  3.5346  0.1689
    1PA    C113 6953   1.553   4.187   4.580  0.3247 -0.5165 -0.8237
    1PA    H13R 6954   1.497   4.264   4.526  1.5558 -0.2761 -1.7767
    1PA    H13S 6955   1.652   4.223   4.606 -0.9974  1.4652  2.0192
    1PA    C112 6956   1.567   4.069   4.486 -0.7087 -0.0944  0.3570
    1PA    H12R 6957   1.616   3.981   4.530 -2.6963 -1.8043 -0.6769
    1PA    H12S 6958   1.466   4.044   4.452  0.0427 -2.3459 -0.3838
    1PA    C111 6959   1.649   4.092   4.352  0.8530 -0.3021 -0.9071
    1PA    H11R 6960   1.597   4.167   4.292 -1.4357 -0.8822  0.2472
    1PA    H11S 6961   1.745   4.132   4.382  0.5655 -1.3802  1.6819
    1PA    C110 6962   1.669   3.961   4.273 -0.4857  0.3316  0.3731
    1PA    H10R 6963   1.724   3.888   4.332 -1.4781 -0.3753  0.4447
    1PA    H10S 6964   1.572   3.911   4.262  0.4520 -1.2231 -1.3988
    1PA     C19 6965   1.719   3.980   4.134 -0.3249 -0.3002  0.0328
    1PA     H9R 6966   1.710   3.884   4.082  0.2630 -0.9268  1.0508
    1PA     H9S 6967   1.664   4.055   4.078  0.4496  0.6394  0.4968
    1PA     C18 6968   1.868   4.016   4.117  0.0676 -0.3520 -0.2669
    1PA     H8R 6969   1.885   4.102   4.181 -1.4845 -1.4305  1.7283
    1PA     H8S 6970   1.929   3.928   4.140 -0.4196 -0.8332 -0.7642
    1PA     C17 6971   1.892   4.052   3.969  0.0555 -0.4302  0.2719
    1PA     H7R 6972   1.867   3.968   3.904  3.8640 -1.9816  0.6008
    1PA     H7S 6973   1.824   4.136   3.952 -0.6726 -0.9975  0.3165
    1PA     C16 6974   2.032   4.086   3.925 -0.4126 -0.0489 -0.0245
    1PA     H6R 6975   2.052   4.183   3.970  2.1506  0.0508 -1.2167
    1PA     H6S 6976   2.099   4.006   3.958 -1.0142 -1.4124 -1.9367
    1PA     C15 6977   2.053   4.104   3.774 -0.1039  0.3865 -0.2707
    1PA     H5R 6978   1.956   4.122   3.727 -1.1189 -0.4489  1.3848
    1PA     H5S 6979   2.125   4.184   3.756  1.7172 -1.1433 -0.0957
    1PA     C14 6980   2.111   3.976   3.707  0.0111 -0.1003 -0.4037
    1PA     H4R 6981   2.219   3.971   3.721 -0.2849  0.0416  2.9616
    1PA     H4S 6982   2.074   3.886   3.756 -0.9523  1.1465  1.3164
    1PA     C13 6983   2.071   3.969   3.564 -0.2388  0.0421  0.2593
    1PA     H3R 6984   2.128   3.880   3.535  0.9452  0.5250  1.0523
    1PA     H3S 6985   1.963   3.957   3.557 -0.1812  0.5605 -2.3229
    1PA     C12 6986   2.113   4.094   3.489  0.0550  0.2903  0.0388
    1PA     H2R 6987   2.054   4.183   3.509  1.2110  0.8256  1.1882
    1PA     H2S 6988   2.210   4.122   3.531  0.8498 -0.5401 -1.1770
    1PC     C11 6989   2.131   4.082   3.338  0.9745 -0.1906  0.0818
    1PC     O12 6990   2.114   3.982   3.269 -0.2258  0.2292  1.6331
    1PC     O11 6991   2.172   4.202   3.288  0.1899  0.1299 -0.1318
    1PC      C1 6992   2.195   4.209   3.141 -0.5535 -0.2116 -0.0570
    1PC      HR 6993   2.279   4.276   3.118  1.9583 -3.0107  0.4452
    1PC      HS 6994   2.229   4.110   3.111  1.7107  0.2702  0.7129
    1PC      C2 6995   2.072   4.249   3.049  0.4398 -0.2270 -0.6268
    1PC      HX 6996   2.011   4.160   3.029 -0.0837 -0.0285  0.0606
    1PC      C3 6997   2.124   4.305   2.918 -0.3925  0.0786  1.1895
    1PC      HA 6998   2.037   4.330   2.857  0.1247  0.3909  0.5749
    1PC      HB 6999   2.179   4.399   2.931 -1.2168  0.5067  1.6730
    1PC     O31 7000   2.208   4.192   2.855  0.1658  0.2731 -0.7642
    1PC     P31 7001   2.136   4.072   2.773  0.2266 -0.0537  0.8258
    1PC     O32 7002   2.079   3.992   2.887  0.2693 -0.0582 -0.1926
    1PC     C31 7003   2.146   3.875   2.940  0.2711  0.1663 -0.1223
    1PC     H1A 7004   2.255   3.888   2.943  0.3789  0.2707 -2.5309
    1PC     H1B 7005   2.125   3.860   3.046  1.4178 -2.2433 -0.1560
    1PC     C32 7006   2.100   3.753   2.852  0.2850 -0.0291 -0.2300
    1PC     H2A 7007   1.992   3.740   2.865  0.2097  1.0648  0.4570
    1PC     H2B 7008   2.108   3.777   2.746 -0.1968  0.3620 -0.1845
    1PC     N31 7009   2.164   3.619   2.879 -0.1548 -1.0074  0.0866
    1PC     C33 7010   2.308   3.629   2.849 -0.0143  0.1168  0.4257
    1PC     H3A 7011   2.359   3.545   2.898 -1.3529  0.4067  2.4636
    1PC     H3B 7012   2.332   3.634   2.743  0.8951  2.8699  0.6817
    1PC     H3C 7013   2.334   3.721   2.902 -1.6451 -0.8814  3.2307
    1PC     C34 7014   2.166   3.563   3.022  0.3034 -0.3843  0.3407
    1PC     H4A 7015   2.203   3.461   3.023 -0.1821 -0.5916  2.9964
    1PC     H4B 7016   2.223   3.630   3.085  1.3215  0.1955 -1.1392
    1PC     H4C 7017   2.062   3.572   3.054 -0.4661  0.8297 -2.1767
    1PC     C35 7018   2.088   3.529   2.789  0.1911  0.3623 -0.9612
    1PC     H5A 7019   2.081   3.568   2.687 -2.4302 -2.0152 -1.8187
    1PC     H5B 7020   1.987   3.520   2.829 -0.0634  1.2864 -1.3697
    1PC     H5C 7021   2.143   3.435   2.799 -1.7396 -0.7088  0.3137
    1PC     O33 7022   2.026   4.122   2.695 -0.3425  0.2095 -0.0347
    1PC     O34 7023   2.239   3.996   2.705  0.0966  0.2698 -0.2217
    1PC     O21 7024   1.984   4.347   3.112 -0.2337 -0.8718 -0.9736
    1PC     C21 7025   1.861   4.320   3.160 -1.1120  0.0113 -0.1987
    1PC     O22 7026   1.811   4.212   3.142  0.0016  0.3665 -0.1497
    1OL     C12 7027   1.786   4.427   3.235  0.0025 -0.1304 -0.0184
    1OL     H2R 7028   1.690   4.446   3.188  1.0753 -0.5646 -2.5347
    1OL     H2S 7029   1.839   4.522   3.228 -3.1403  1.7134 -0.5649
    1OL     C13 7030   1.771   4.399   3.387  0.3713  0.3862  0.3219
    1OL     H3R 7031   1.745   4.495   3.431  0.0362  0.8200 -0.7947
    1OL     H3S 7032   1.868   4.375   3.432  0.0557 -2.9068 -0.4855
    1OL     C14 7033   1.656   4.303   3.427  0.2710  1.3516 -0.9710
    1OL     H4R 7034   1.667   4.205   3.381 -1.3012  1.1275 -0.9082
    1OL     H4S 7035   1.560   4.336   3.385 -0.8465 -0.3908  0.0821
    1OL     C15 7036   1.642   4.267   3.581 -0.7075  0.1057  0.8679
    1OL     H5R 7037   1.739   4.244   3.625 -0.2082  1.0174  0.2792
    1OL     H5S 7038   1.588   4.172   3.579  0.7118 -0.7319 -0.6532
    1OL     C16 7039   1.574   4.379   3.658  0.0168 -0.7038  0.0992
    1OL     H6R 7040   1.478   4.406   3.613  0.9106  0.0601 -1.4525
    1OL     H6S 7041   1.630   4.473   3.651  0.7307 -0.9123  2.4211
    1OL     C17 7042   1.553   4.341   3.804  0.3945  0.3111 -0.0991
    1OL     H7R 7043   1.649   4.303   3.838 -0.4158 -0.1959  1.7783
    1OL     H7S 7044   1.474   4.265   3.811  0.1587 -0.0870 -4.3499
    1OL     C18 7045   1.515   4.460   3.891  0.2221  0.2488  1.0274
    1OL     H8R 7046   1.586   4.541   3.874 -0.6034  0.9139  0.6825
    1OL     H8S 7047   1.529   4.426   3.994 -0.4861  0.1925  1.1131
    1OL     C19 7048   1.374   4.505   3.867  0.2836 -0.5333  0.6856
    1OL     H9R 7049   1.344   4.501   3.762  0.1174 -0.7383  0.7404
    1OL    C110 7050   1.285   4.538   3.959  0.4082  0.4347 -0.0813
    1OL    H10R 7051   1.184   4.560   3.923  0.7910 -0.6480 -1.9444
    1OL    C111 7052   1.299   4.563   4.102  0.1328 -0.7245  0.2198
    1OL    H11R 7053   1.236   4.650   4.123  2.0741  0.3352  2.0449
    1OL    H11S 7054   1.400   4.596   4.128  0.8540 -1.1276 -1.8684
    1OL    C112 7055   1.252   4.444   4.193 -1.4147  1.0026 -0.2695
    1OL    H12R 7056   1.303   4.357   4.151  1.2135  2.3590 -0.0893
    1OL    H12S 7057   1.145   4.425   4.187 -1.5176  1.5121 -0.0918
    1OL    C113 7058   1.283   4.444   4.342  0.2253  0.4083 -0.1079
    1OL    H13R 7059   1.392   4.436   4.345  0.1020 -1.3046  0.8798
    1OL    H13S 7060   1.240   4.354   4.386 -0.3507  0.0152 -1.4178
    1OL    C114 7061   1.234   4.572   4.416  0.5330  0.3496 -0.6478
    1OL    H14R 7062   1.127   4.586   4.397  0.1659  1.8162  1.9989
    1OL    H14S 7063   1.283   4.664   4.384  1.4263 -0.3902 -1.4523
    1OL    C115 7064   1.245   4.555   4.570  0.0605 -0.6007  0.1861
    1OL    H15R 7065   1.351   4.548   4.595  0.1176  0.2891  0.2388
    1OL    H15S 7066   1.198   4.464   4.607 -1.3009  0.8075  2.1432
    1OL    C116 7067   1.177   4.672   4.634 -0.5960 -0.1825 -0.3346
    1OL    H16R 7068   1.070   4.669   4.613 -1.2821  0.5528  2.5706
    1OL    H16S 7069   1.216   4.766   4.595 -1.5476  0.9038  1.1880
    1OL    C117 7070   1.191   4.652   4.784  0.1744  0.0975 -0.1507
    1OL    H17R 7071   1.296   4.640   4.809  0.2207 -0.4087 -0.5589
    1OL    H17S 7072   1.137   4.560   4.808  1.9247 -1.2369 -1.0535
    1OL    C118 7073   1.130   4.778   4.845 -0.4684  0.1982 -0.3028
    1OL    H18R 7074   1.026   4.780   4.815 -0.6837  0.1731  0.4179
    1OL    H18S 7075   1.176   4.872   4.814  1.6385 -0.3379  0.9860
    1OL    H18T 7076   1.129   4.775   4.954 -2.1675  1.1073 -0.2762
    1PA    C116 7077   2.888   0.372   4.912  0.7922 -0.4140 -0.7350
    1PA    H16R 7078   2.779   0.369   4.920  0.9213 -2.2243  1.3701
    1PA    H16S 7079   2.898   0.469   4.960 -0.6133 -0.7077  0.2274
    1PA    H16T 7080   2.945   0.297   4.968 -0.5206 -0.6485  0.3376
    1PA    C115 7081   2.946   0.384   4.769 -0.3211  0.2181 -0.1416
    1PA    H15R 7082   3.043   0.431   4.781 -0.8444  1.4687 -0.7198
    1PA    H15S 7083   2.962   0.281   4.735 -1.7635 -0.1232  0.1311
    1PA    C114 7084   2.851   0.455   4.678  0.7228 -0.3038 -1.1813
    1PA    H14R 7085   2.751   0.413   4.682  0.3354  0.6585 -0.3859
    1PA    H14S 7086   2.841   0.554   4.723 -1.0394  0.0632 -2.2667
    1PA    C113 7087   2.895   0.477   4.523  1.1021 -0.5282 -0.7114
    1PA    H13R 7088   2.814   0.529   4.471  0.4335 -1.6807 -0.8590
    1PA    H13S 7089   2.990   0.529   4.511  1.3358 -0.8994 -0.4904
    1PA    C112 7090   2.903   0.339   4.452 -0.2609 -1.1687  0.2784
    1PA    H12R 7091   2.977   0.277   4.503 -0.0285 -0.8460  0.3420
    1PA    H12S 7092   2.808   0.287   4.463 -0.1003 -1.2861  1.1829
    1PA    C111 7093   2.919   0.354   4.296 -0.2320 -0.4444  0.5475
    1PA    H11R 7094   2.843   0.427   4.267  0.9934  0.9520  0.7440
    1PA    H11S 7095   3.018   0.390   4.268 -0.3629 -1.6784 -1.7091
    1PA    C110 7096   2.888   0.227   4.218  0.2643 -0.5305  0.4079
    1PA    H10R 7097   2.801   0.185   4.268 -0.6852  1.9693  1.0281
    1PA    H10S 7098   2.867   0.260   4.116 -0.2758  1.9327  1.2481
    1PA     C19 7099   3.007   0.122   4.218  0.0594 -0.8720  0.0083
    1PA     H9R 7100   3.099   0.167   4.180 -0.9237  0.9194 -0.3527
    1PA     H9S 7101   3.023   0.083   4.319  0.9583 -1.4580 -0.3545
    1PA     C18 7102   2.963   0.020   4.115 -0.1153  0.0397  0.7358
    1PA     H8R 7103   2.872  -0.025   4.157 -0.4035  0.5917  0.7289
    1PA     H8S 7104   2.937   0.067   4.020 -0.1249  1.1563  1.2770
    1PA     C17 7105   3.069  -0.095   4.097  0.0279 -0.7812  0.0664
    1PA     H7R 7106   3.172  -0.061   4.093 -1.1090  3.3295  0.7607
    1PA     H7S 7107   3.056  -0.163   4.182 -0.8077  0.6860  1.1596
    1PA     C16 7108   3.053  -0.178   3.970 -0.5991 -0.5658 -0.4626
    1PA     H6R 7109   3.090  -0.112   3.891 -1.2864 -0.1307 -0.4273
    1PA     H6S 7110   3.126  -0.258   3.977  1.2167  0.6520 -3.3319
    1PA     C15 7111   2.908  -0.223   3.944  0.2940 -0.5111  0.0809
    1PA     H5R 7112   2.891  -0.285   4.032  0.4206  0.2956  0.6839
    1PA     H5S 7113   2.836  -0.140   3.944  2.2129  1.3024 -2.3024
    1PA     C14 7114   2.894  -0.310   3.822 -0.5997  0.4059  0.4715
    1PA     H4R 7115   2.958  -0.398   3.814 -0.0063  0.9106 -0.5532
    1PA     H4S 7116   2.795  -0.355   3.820 -0.5536  0.3154  0.0728
    1PA     C13 7117   2.924  -0.224   3.692 -0.3114 -0.0020  0.6641
    1PA     H3R 7118   3.032  -0.211   3.683 -0.3556 -0.5918 -1.0499
    1PA     H3S 7119   2.894  -0.282   3.604  0.3745 -0.7103  0.8780
    1PA     C12 7120   2.857  -0.079   3.685  0.1597  0.3828  0.0940
    1PA     H2R 7121   2.757  -0.082   3.729 -0.1586 -3.0969 -0.5897
    1PA     H2S 7122   2.903  -0.011   3.757 -1.6180  0.9040  0.8111
    1PC     C11 7123   2.858   0.018   3.557  0.3515 -0.1590 -0.2702
    1PC     O12 7124   2.924  -0.010   3.465  0.0292 -0.5893 -0.1502
    1PC     O11 7125   2.789   0.132   3.568 -0.3261 -0.9021 -0.1397
    1PC      C1 7126   2.783   0.229   3.451 -0.0394 -1.4690  0.5563
    1PC      HR 7127   2.789   0.330   3.494  1.6059 -1.1921 -0.2344
    1PC      HS 7128   2.869   0.217   3.384  0.6202 -0.4062  1.1688
    1PC      C2 7129   2.658   0.207   3.367 -0.0271 -0.1115 -0.3006
    1PC      HX 7130   2.669   0.106   3.328  0.0497 -0.1952 -0.0669
    1PC      C3 7131   2.638   0.319   3.259 -0.4420  0.1797 -0.4102
    1PC      HA 7132   2.567   0.285   3.183 -0.3825 -1.3736  0.1964
    1PC      HB 7133   2.600   0.408   3.310 -1.8078 -1.0631  0.8357
    1PC     O31 7134   2.763   0.341   3.193 -0.5912  0.0840 -0.1257
    1PC     P31 7135   2.823   0.245   3.076 -0.4065  0.4691  0.3508
    1PC     O32 7136   2.719   0.257   2.963  0.0039 -0.3674  0.2637
    1PC     C31 7137   2.657   0.151   2.894  0.3206 -0.2471 -0.0454
    1PC     H1A 7138   2.629   0.076   2.969  0.4581 -0.7099 -0.4527
    1PC     H1B 7139   2.564   0.191   2.853  0.3397  1.4244  1.4192
    1PC     C32 7140   2.748   0.115   2.772  0.9597  0.0171 -0.7576
    1PC     H2A 7141   2.669   0.093   2.700 -0.3136 -1.0653  0.8957
    1PC     H2B 7142   2.805   0.204   2.743  0.5684  1.3798  2.2109
    1PC     N31 7143   2.848  -0.000   2.777  0.0715  0.4789  0.1323
    1PC     C33 7144   2.805  -0.118   2.848  0.0932 -0.0341 -0.5688
    1PC     H3A 7145   2.865  -0.205   2.824 -1.1332 -1.0553 -0.0424
    1PC     H3B 7146   2.791  -0.095   2.954 -2.1987  1.5125 -1.1125
    1PC     H3C 7147   2.709  -0.140   2.800  0.4453 -1.2861 -0.7092
    1PC     C34 7148   2.889  -0.034   2.639 -0.0602  0.1086 -0.1277
    1PC     H4A 7149   2.974  -0.103   2.638  0.4784  0.7543  0.0651
    1PC     H4B 7150   2.802  -0.066   2.583 -0.8500 -0.9971  1.6558
    1PC     H4C 7151   2.929   0.061   2.602  0.8137 -0.0383  0.4042
    1PC     C35 7152   2.974   0.045   2.845 -0.7243  0.0586  0.5461
    1PC     H5A 7153   2.978   0.041   2.954  1.2787  0.4310  0.5156
    1PC     H5B 7154   2.981   0.151   2.824 -1.0692  0.3724  1.8765
    1PC     H5C 7155   3.063  -0.004   2.807  0.6528  1.1085  2.2760
    1PC     O33 7156   2.942   0.314   3.011  0.7087 -0.2343 -0.3266
    1PC     O34 7157   2.838   0.107   3.121  0.2462 -0.1683 -0.0453
    1PC     O21 7158   2.552   0.213   3.460 -0.1257  0.1706 -0.1344
    1PC     C21 7159   2.498   0.102   3.510 -0.1525 -0.2524 -0.7954
    1PC     O22 7160   2.538  -0.007   3.491 -0.0805  0.2950  0.0470
    1OL     C12 7161   2.403   0.129   3.629  0.0882 -0.1393  0.3949
    1OL     H2R 7162   2.306   0.083   3.609  0.3449 -0.1034 -1.0910
    1OL     H2S 7163   2.384   0.236   3.641 -0.2560 -0.1516 -0.0199
    1OL     C13 7164   2.454   0.078   3.765  0.6029  0.6628 -0.2922
    1OL     H3R 7165   2.552   0.123   3.782  1.2131 -0.7605  0.0772
    1OL     H3S 7166   2.457  -0.031   3.757 -2.4187  0.4577  0.2242
    1OL     C14 7167   2.352   0.097   3.875  0.2803 -0.7889  0.7126
    1OL     H4R 7168   2.255   0.066   3.837  0.5759  0.0630 -0.8070
    1OL     H4S 7169   2.352   0.205   3.891  0.8955 -0.3030 -2.0391
    1OL     C15 7170   2.373   0.017   4.003 -0.2154 -0.5299 -0.2905
    1OL     H5R 7171   2.370  -0.087   3.969 -2.2631 -0.3688 -0.7380
    1OL     H5S 7172   2.289   0.022   4.073 -1.0805  0.7603 -1.3843
    1OL     C16 7173   2.497   0.058   4.081  0.3803  0.1081  0.6809
    1OL     H6R 7174   2.487   0.164   4.102  0.6663  0.3270 -0.2448
    1OL     H6S 7175   2.590   0.044   4.025  0.9026  3.2154  0.6236
    1OL     C17 7176   2.519  -0.025   4.209 -0.0283  0.2848 -0.0103
    1OL     H7R 7177   2.433  -0.046   4.273  0.0800  1.8210  0.6888
    1OL     H7S 7178   2.580   0.032   4.279 -1.4417  3.3212 -1.1060
    1OL     C18 7179   2.593  -0.154   4.178 -0.7070 -0.1173  0.0704
    1OL     H8R 7180   2.688  -0.122   4.133  0.0069 -5.0741 -2.6616
    1OL     H8S 7181   2.549  -0.208   4.094 -2.4426  1.5582 -0.1619
    1OL     C19 7182   2.618  -0.231   4.307 -0.0721 -0.7532  0.0679
    1OL     H9R 7183   2.639  -0.176   4.398 -0.0349  1.3468 -1.1440
    1OL    C110 7184   2.603  -0.359   4.313  0.6227 -0.5190 -0.1199
    1OL    H10R 7185   2.622  -0.416   4.403 -0.6803 -2.2005 -0.8499
    1OL    C111 7186   2.583  -0.447   4.191 -1.0657  0.1463 -0.4429
    1OL    H11R 7187   2.558  -0.398   4.097 -2.3623  0.2305 -0.0644
    1OL    H11S 7188   2.500  -0.515   4.210 -1.2016  0.1207 -1.1025
    1OL    C112 7189   2.709  -0.531   4.177  0.1421 -0.2482 -0.4912
    1OL    H12R 7190   2.731  -0.591   4.265  0.8259 -1.2803 -1.3327
    1OL    H12S 7191   2.797  -0.469   4.161 -0.1257  0.1788 -0.3222
    1OL    C113 7192   2.712  -0.614   4.045 -0.2520  1.2507 -0.1304
    1OL    H13R 7193   2.713  -0.546   3.960 -1.1991  0.8724 -0.4512
    1OL    H13S 7194   2.620  -0.673   4.037  0.0464  0.2618  2.4213
    1OL    C114 7195   2.835  -0.709   4.024 -0.1480 -0.3206 -0.4447
    1OL    H14R 7196   2.830  -0.760   3.928 -3.4582 -1.2587  0.0912
    1OL    H14S 7197   2.826  -0.794   4.093  2.8851 -0.1238  0.3600
    1OL    C115 7198   2.974  -0.648   4.037 -0.0634 -0.2649 -0.3741
    1OL    H15R 7199   2.973  -0.600   4.135 -0.3816  2.1325 -1.4690
    1OL    H15S 7200   2.980  -0.566   3.965 -4.5943 -0.8738 -1.7530
    1OL    C116 7201   3.093  -0.746   4.040 -0.0620  0.4076  0.3668
    1OL    H16R 7202   3.183  -0.686   4.045 -0.3044  0.7266  0.9924
    1OL    H16S 7203   3.084  -0.807   3.950  0.1430  2.6347 -1.2355
    1OL    C117 7204   3.088  -0.829   4.168  0.8179 -0.2521  0.2869
    1OL    H17R 7205   3.007  -0.902   4.159 -0.4459  0.9546  1.2946
    1OL    H17S 7206   3.076  -0.773   4.261  0.6560  0.5801 -0.2228
    1OL    C118 7207   3.215  -0.910   4.177 -0.5172  0.1914 -0.2252
    1OL    H18R 7208   3.211  -0.978   4.263  5.0912  0.6023  0.7829
    1OL    H18S 7209   3.304  -0.848   4.193 -0.5572  0.2555 -0.2527
    1OL    H18T 7210   3.227  -0.974   4.089  2.5305  3.2071 -2.2664
    1PA    C116 7211   4.228   2.409   5.388 -0.0904  0.2193 -0.4176
    1PA    H16R 7212   4.269   2.315   5.424 -0.4430  0.8842  1.8521
    1PA    H16S 7213   4.218   2.481   5.469 -0.9980 -1.1475  0.7273
    1PA    H16T 7214   4.299   2.450   5.315  1.1036 -0.6974  0.1927
    1PA    C115 7215   4.096   2.374   5.313 -0.2177  0.3661  0.2080
    1PA    H15R 7216   4.071   2.268   5.311 -3.5614  1.0112  1.4352
    1PA    H15S 7217   4.016   2.411   5.377  1.1093  0.9013  1.6100
    1PA    C114 7218   4.072   2.417   5.171 -0.1137 -0.2448  0.3709
    1PA    H14R 7219   4.105   2.520   5.159 -2.9447  0.3782 -5.1877
    1PA    H14S 7220   4.146   2.366   5.109 -0.3068  0.4239 -0.4239
    1PA    C113 7221   3.924   2.400   5.133 -0.2003 -0.2373  0.0750
    1PA    H13R 7222   3.882   2.300   5.149  0.1439 -0.4074 -0.0633
    1PA    H13S 7223   3.871   2.468   5.199  2.9702  1.4178  1.1384
    1PA    C112 7224   3.906   2.429   4.981  0.2623 -0.6544 -0.6484
    1PA    H12R 7225   3.922   2.535   4.962  0.6412 -0.4273  0.8555
    1PA    H12S 7226   3.976   2.367   4.925  0.1761 -0.1056 -1.3702
    1PA    C111 7227   3.770   2.383   4.930 -0.3465  0.1118  0.0506
    1PA    H11R 7228   3.774   2.275   4.921  0.2477  0.1423 -0.0447
    1PA    H11S 7229   3.685   2.406   4.996 -1.1817 -3.0330  0.2058
    1PA    C110 7230   3.761   2.447   4.788  0.1583 -0.2302  0.1866
    1PA    H10R 7231   3.745   2.555   4.791  1.0723 -0.0834  0.0970
    1PA    H10S 7232   3.842   2.416   4.721  2.1937  0.9251  2.0073
    1PA     C19 7233   3.634   2.398   4.718  0.2388 -0.2883 -0.7402
    1PA     H9R 7234   3.647   2.311   4.654  0.6678  0.4919 -1.7470
    1PA     H9S 7235   3.557   2.370   4.791  1.0858  0.5842  0.5399
    1PA     C18 7236   3.586   2.506   4.621 -0.3153  0.3796  0.1589
    1PA     H8R 7237   3.542   2.584   4.683 -0.5212 -0.8422  1.6155
    1PA     H8S 7238   3.668   2.543   4.560  0.9996 -1.3159  0.8296
    1PA     C17 7239   3.466   2.458   4.533 -0.2236 -0.1868  0.2002
    1PA     H7R 7240   3.379   2.435   4.594 -1.7178  1.6255 -1.1143
    1PA     H7S 7241   3.428   2.547   4.481 -0.8611  0.8883  2.4012
    1PA     C16 7242   3.501   2.355   4.422 -0.4186 -0.2436  0.2708
    1PA     H6R 7243   3.535   2.262   4.467 -3.1691 -2.3796 -1.7362
    1PA     H6S 7244   3.404   2.335   4.377 -1.7710 -3.0936  3.8888
    1PA     C15 7245   3.604   2.403   4.324  0.7830  0.2826  0.2163
    1PA     H5R 7246   3.571   2.505   4.302  1.2238  0.6116  1.0064
    1PA     H5S 7247   3.698   2.411   4.380 -0.4276  0.5320  2.3513
    1PA     C14 7248   3.609   2.309   4.200 -0.2292  0.1735 -0.3229
    1PA     H4R 7249   3.514   2.308   4.146 -1.0178  0.7774  0.9866
    1PA     H4S 7250   3.685   2.345   4.132  0.1487 -1.2415 -0.6873
    1PA     C13 7251   3.654   2.169   4.230  0.7069  0.3667  0.0163
    1PA     H3R 7252   3.587   2.127   4.304 -1.2609  1.7371 -0.8966
    1PA     H3S 7253   3.621   2.116   4.141 -0.5413 -0.3573  0.8871
    1PA     C12 7254   3.808   2.164   4.265  0.4405 -0.1196  0.1826
    1PA     H2R 7255   3.842   2.237   4.338  0.6080  1.1641 -1.1254
    1PA     H2S 7256   3.831   2.064   4.303 -2.3177 -0.9232 -0.0808
    1PC     C11 7257   3.895   2.187   4.152 -0.6537 -0.6090 -0.5587
    1PC     O12 7258   3.861   2.193   4.037  0.0973  0.1677 -0.0837
    1PC     O11 7259   4.020   2.206   4.189  0.0842  0.4179 -0.2042
    1PC      C1 7260   4.116   2.254   4.087 -0.5887  0.2634  0.1219
    1PC      HR 7261   4.212   2.207   4.109  0.7566  1.0892 -3.4026
    1PC      HS 7262   4.092   2.218   3.987  1.4872 -0.1242 -0.2756
    1PC      C2 7263   4.135   2.414   4.085 -0.8068 -0.2200 -1.4934
    1PC      HX 7264   4.043   2.468   4.063 -0.4664  0.3439 -1.5407
    1PC      C3 7265   4.246   2.447   3.978 -0.4568 -0.8333  0.0644
    1PC      HA 7266   4.288   2.548   3.983 -1.1118 -0.5721  0.3298
    1PC      HB 7267   4.330   2.377   3.976  0.9285  0.7708 -1.2853
    1PC     O31 7268   4.178   2.427   3.858 -0.5874  0.0754  0.3248
    1PC     P31 7269   4.225   2.497   3.725  0.0010  0.0535 -0.1208
    1PC     O32 7270   4.366   2.431   3.688 -0.0643 -0.1957  0.0304
    1PC     C31 7271   4.366   2.302   3.619  0.1845  0.2358  0.4957
    1PC     H1A 7272   4.462   2.255   3.643 -0.8543 -1.2003  2.0579
    1PC     H1B 7273   4.272   2.251   3.642 -1.1384  2.2011 -0.3591
    1PC     C32 7274   4.371   2.342   3.474 -0.3503  0.1547  1.1621
    1PC     H2A 7275   4.281   2.397   3.449  0.1238 -0.4524 -2.4705
    1PC     H2B 7276   4.452   2.414   3.460  0.1518 -0.9131 -2.2937
    1PC     N31 7277   4.380   2.242   3.363  0.2506 -0.3703 -0.0331
    1PC     C33 7278   4.338   2.310   3.237 -0.3175  0.7573 -0.5857
    1PC     H3A 7279   4.361   2.250   3.149  1.7089  1.5510 -0.6607
    1PC     H3B 7280   4.230   2.325   3.246 -0.1139  1.4673  0.9382
    1PC     H3C 7281   4.391   2.405   3.226  0.0085  0.5877 -0.4880
    1PC     C34 7282   4.516   2.193   3.358 -0.0507 -0.1395 -0.0418
    1PC     H4A 7283   4.522   2.120   3.277  1.8374 -0.3429  0.2216
    1PC     H4B 7284   4.585   2.275   3.334 -0.2666  0.7616  2.1890
    1PC     H4C 7285   4.542   2.147   3.453  0.6770  0.2500 -0.0406
    1PC     C35 7286   4.287   2.129   3.374 -0.4115  0.4660 -0.1659
    1PC     H5A 7287   4.317   2.085   3.469 -2.4593 -0.9651 -0.1120
    1PC     H5B 7288   4.306   2.050   3.302 -0.3958 -0.2636  0.6283
    1PC     H5C 7289   4.185   2.167   3.380 -1.0992 -0.8172 -2.7317
    1PC     O33 7290   4.128   2.467   3.621 -0.7197 -0.1660 -0.3260
    1PC     O34 7291   4.262   2.640   3.760 -0.1248  0.6427 -0.2534
    1PC     O21 7292   4.191   2.449   4.212 -0.3023  0.1179  0.1219
    1PC     C21 7293   4.104   2.452   4.321 -0.3387 -0.2276  0.3614
    1PC     O22 7294   3.987   2.469   4.313  0.3927  0.1308  0.3589
    1OL     C12 7295   4.192   2.440   4.438  0.2251 -0.1142 -0.4071
    1OL     H2R 7296   4.285   2.490   4.412 -0.9361  1.9494 -0.7643
    1OL     H2S 7297   4.214   2.334   4.456 -1.3218  0.0217  3.1224
    1OL     C13 7298   4.142   2.500   4.573 -0.1563  0.1446  0.2124
    1OL     H3R 7299   4.212   2.457   4.645  0.0478 -0.1943 -0.1868
    1OL     H3S 7300   4.046   2.453   4.597 -0.5252 -0.2773 -1.9018
    1OL     C14 7301   4.148   2.651   4.587 -0.7792  0.3595 -0.1212
    1OL     H4R 7302   4.091   2.704   4.510 -1.3332  2.1577  1.4689
    1OL     H4S 7303   4.251   2.681   4.563 -0.9583  0.2268 -1.0892
    1OL     C15 7304   4.097   2.687   4.734  0.1781  0.0174 -0.2840
    1OL     H5R 7305   3.988   2.676   4.728 -0.3864  4.1002 -0.3026
    1OL     H5S 7306   4.107   2.795   4.739 -2.5705  0.5495 -3.0999
    1OL     C16 7307   4.173   2.621   4.852  0.6335  0.0604  0.0128
    1OL     H6R 7308   4.143   2.518   4.873  2.5513  0.0037  3.1961
    1OL     H6S 7309   4.142   2.673   4.943 -0.3053  2.2736 -1.4966
    1OL     C17 7310   4.322   2.657   4.823 -0.4609 -0.0949 -0.2272
    1OL     H7R 7311   4.338   2.764   4.810 -0.3715 -0.0587  0.1478
    1OL     H7S 7312   4.367   2.604   4.739  0.2208  0.1576 -0.0237
    1OL     C18 7313   4.411   2.603   4.941 -0.3672 -0.1129 -0.4196
    1OL     H8R 7314   4.516   2.630   4.928 -0.2608 -0.9373 -1.4310
    1OL     H8S 7315   4.398   2.496   4.962  1.1715  0.0657  1.9113
    1OL     C19 7316   4.373   2.666   5.080 -0.0839  0.5004  0.8710
    1OL     H9R 7317   4.284   2.620   5.121 -0.0478 -0.0046  0.4043
    1OL    C110 7318   4.427   2.770   5.145  0.5003 -0.1815  0.3764
    1OL    H10R 7319   4.377   2.798   5.237 -0.2148 -0.7763  0.1766
    1OL    C111 7320   4.561   2.827   5.106 -0.7258  0.0811  0.4536
    1OL    H11R 7321   4.633   2.752   5.074 -0.9310  0.7248 -1.7064
    1OL    H11S 7322   4.604   2.870   5.197 -0.0302  2.0354 -0.7463
    1OL    C112 7323   4.545   2.932   5.001  0.1270  0.3671 -0.3118
    1OL    H12R 7324   4.484   3.014   5.038  0.4245 -0.0470  1.1979
    1OL    H12S 7325   4.486   2.894   4.918  0.5761  0.7714 -0.8284
    1OL    C113 7326   4.674   2.995   4.957 -0.9568 -0.1984  0.8215
    1OL    H13R 7327   4.747   2.936   4.901 -0.7751  1.6054 -0.9608
    1OL    H13S 7328   4.727   3.042   5.040 -0.3365  3.0402 -1.2267
    1OL    C114 7329   4.663   3.117   4.863 -0.0519 -0.8479 -0.0901
    1OL    H14R 7330   4.577   3.181   4.884 -1.4388 -2.5428 -0.3565
    1OL    H14S 7331   4.637   3.074   4.766 -3.2192 -0.6573  0.5571
    1OL    C115 7332   4.791   3.200   4.839 -0.1291  0.3871 -0.1172
    1OL    H15R 7333   4.875   3.134   4.817 -1.2412 -0.6710 -1.3945
    1OL    H15S 7334   4.812   3.255   4.930  0.6378  1.2130 -0.7749
    1OL    C116 7335   4.774   3.300   4.724 -0.0388  0.1348 -0.0348
    1OL    H16R 7336   4.693   3.373   4.727 -0.6164 -0.5147  0.7477
    1OL    H16S 7337   4.756   3.246   4.630 -1.1070  1.2112 -0.4705
    1OL    C117 7338   4.908   3.377   4.719 -0.9377 -0.4050  0.1990
    1OL    H17R 7339   4.913   3.416   4.617 -0.2743 -0.8443  0.0597
    1OL    H17S 7340   4.988   3.303   4.711  2.7710  2.9889  2.0420
    1OL    C118 7341   4.946   3.477   4.837 -0.2786  0.7357 -0.3971
    1OL    H18R 7342   4.958   3.419   4.928 -0.0221  0.2431 -0.7429
    1OL    H18S 7343   4.859   3.542   4.856 -1.8127 -1.4125  0.3619
    1OL    H18T 7344   5.033   3.534   4.804  0.1619 -0.1529 -0.7974
    1PA    C116 7345   3.431   0.110   5.084  0.1427  0.3692  0.4906
    1PA    H16R 7346   3.472   0.108   5.185 -1.0595 -2.8315  1.0287
    1PA    H16S 7347   3.342   0.174   5.082  1.6002  2.4798 -0.0562
    1PA    H16T 7348   3.508   0.167   5.032  2.1382 -2.4172  0.2322
    1PA    C115 7349   3.403  -0.024   5.022  0.2824 -0.2762  0.8303
    1PA    H15R 7350   3.483  -0.098   5.028 -1.0155 -1.7794  0.1770
    1PA    H15S 7351   3.314  -0.061   5.073 -0.6410  1.2867  0.4249
    1PA    C114 7352   3.365  -0.006   4.870  0.1758 -0.3970 -0.1199
    1PA    H14R 7353   3.324  -0.102   4.838 -3.3485  0.8400  0.3301
    1PA    H14S 7354   3.287   0.069   4.874  0.0651 -0.5369  0.7402
    1PA    C113 7355   3.472   0.052   4.769 -0.0894  0.4199  0.2424
    1PA    H13R 7356   3.419   0.095   4.684  0.3501 -2.4861 -1.6326
    1PA    H13S 7357   3.513   0.132   4.832 -1.0761 -1.5451  3.6337
    1PA    C112 7358   3.583  -0.048   4.725  0.3149 -0.2177  0.8392
    1PA    H12R 7359   3.605  -0.126   4.798  2.2152  0.3952  0.9610
    1PA    H12S 7360   3.547  -0.096   4.634 -0.2191  1.4136  0.1460
    1PA    C111 7361   3.706   0.030   4.677  0.6619  0.3044  0.2592
    1PA    H11R 7362   3.678   0.089   4.590  1.0457  1.4127  0.8605
    1PA    H11S 7363   3.744   0.096   4.756  1.8628  0.7860 -0.6920
    1PA    C110 7364   3.821  -0.064   4.626 -0.2386 -0.0006 -0.1147
    1PA    H10R 7365   3.917  -0.013   4.641  0.7918 -1.3509 -1.6760
    1PA    H10S 7366   3.812  -0.159   4.679 -0.2785 -0.8615 -1.6058
    1PA     C19 7367   3.824  -0.097   4.473  0.3836  0.6948  0.0072
    1PA     H9R 7368   3.729  -0.137   4.436  0.5983  1.7300 -1.7399
    1PA     H9S 7369   3.841  -0.014   4.404  1.3119 -0.0768 -0.7136
    1PA     C18 7370   3.929  -0.206   4.435  0.3018  0.2097  0.0595
    1PA     H8R 7371   4.026  -0.157   4.444  0.7803 -0.8819  1.3261
    1PA     H8S 7372   3.922  -0.296   4.497  0.9807  0.7458  0.9445
    1PA     C17 7373   3.909  -0.253   4.290  0.6722 -0.4019 -0.5135
    1PA     H7R 7374   3.814  -0.305   4.277 -0.7154  1.9484 -0.4247
    1PA     H7S 7375   3.905  -0.162   4.230  1.5431  0.7668  1.1088
    1PA     C16 7376   4.023  -0.350   4.252 -0.6207  0.5279  0.0520
    1PA     H6R 7377   4.123  -0.309   4.269  0.3557 -0.9249 -1.7160
    1PA     H6S 7378   4.017  -0.440   4.313  0.2603  1.7066  1.9572
    1PA     C15 7379   4.005  -0.396   4.104 -0.1836  0.0145 -0.3329
    1PA     H5R 7380   3.905  -0.439   4.103 -0.9589  1.2916  3.7537
    1PA     H5S 7381   4.013  -0.308   4.039 -0.1202 -0.6975 -1.3111
    1PA     C14 7382   4.107  -0.492   4.070 -0.1740  0.1677  0.0268
    1PA     H4R 7383   4.203  -0.446   4.095 -0.1309 -0.4443  1.0602
    1PA     H4S 7384   4.087  -0.582   4.129 -0.7621  0.2471 -0.0485
    1PA     C13 7385   4.115  -0.534   3.921  0.8617 -0.5639 -0.7383
    1PA     H3R 7386   4.024  -0.589   3.894 -1.7066  2.9061  0.1247
    1PA     H3S 7387   4.100  -0.447   3.856 -0.7985 -1.2231 -1.2914
    1PA     C12 7388   4.241  -0.607   3.884  0.0373 -0.0340  0.0453
    1PA     H2R 7389   4.332  -0.547   3.875  1.9625 -3.0340 -2.8322
    1PA     H2S 7390   4.270  -0.693   3.946  2.2521  1.3831  1.0985
    1PC     C11 7391   4.218  -0.652   3.737 -0.4208  0.4179 -0.2791
    1PC     O12 7392   4.246  -0.577   3.648 -0.1244 -0.5032 -0.1964
    1PC     O11 7393   4.162  -0.773   3.727  0.4388  0.3902  0.5947
    1PC      C1 7394   4.154  -0.830   3.589  0.3098 -0.4533  0.4928
    1PC      HR 7395   4.079  -0.768   3.540 -3.6421 -2.4887  3.4348
    1PC      HS 7396   4.253  -0.823   3.543  0.3639  2.7999  0.8795
    1PC      C2 7397   4.101  -0.974   3.588 -0.2335  0.0729 -0.3339
    1PC      HX 7398   4.161  -1.037   3.654 -1.8187  0.5752  1.7082
    1PC      C3 7399   4.109  -1.026   3.439 -0.1863 -0.3199  0.0813
    1PC      HA 7400   4.068  -0.954   3.367 -1.5683 -1.6770 -0.5436
    1PC      HB 7401   4.215  -1.042   3.419  0.1730  0.8866  0.8503
    1PC     O31 7402   4.029  -1.143   3.416  0.0262 -0.3308  0.5086
    1PC     P31 7403   4.087  -1.285   3.410  0.3340  0.1471 -0.3996
    1PC     O32 7404   4.165  -1.309   3.280  0.0479  0.0921 -0.2997
    1PC     C31 7405   4.097  -1.323   3.156  0.2259 -0.0854 -0.0784
    1PC     H1A 7406   4.008  -1.383   3.178  0.0320 -0.5835 -2.0384
    1PC     H1B 7407   4.064  -1.224   3.121 -2.8590 -0.6569  0.8882
    1PC     C32 7408   4.185  -1.402   3.058  0.0519  0.0983  0.2173
    1PC     H2A 7409   4.236  -1.474   3.122  0.1791  1.5311  1.8277
    1PC     H2B 7410   4.123  -1.435   2.975 -0.3392  0.9862  0.1393
    1PC     N31 7411   4.292  -1.332   2.985 -0.3363 -0.0285  0.8196
    1PC     C33 7412   4.234  -1.231   2.892 -0.0235  0.4166  0.1344
    1PC     H3A 7413   4.316  -1.179   2.842 -0.2106  0.4464 -0.1437
    1PC     H3B 7414   4.159  -1.273   2.824  0.4384 -1.3536  0.6635
    1PC     H3C 7415   4.184  -1.156   2.953  1.0542  0.3431  1.1553
    1PC     C34 7416   4.383  -1.260   3.075  0.7991  0.7331  1.2170
    1PC     H4A 7417   4.460  -1.210   3.016  2.3565 -2.4469  0.3522
    1PC     H4B 7418   4.312  -1.195   3.127 -1.2411  0.2320 -0.7612
    1PC     H4C 7419   4.427  -1.335   3.140 -0.0812 -4.0457 -3.0799
    1PC     C35 7420   4.367  -1.431   2.895  0.0151  0.2241 -0.9092
    1PC     H5A 7421   4.297  -1.456   2.816 -0.3091 -0.8566 -0.3026
    1PC     H5B 7422   4.399  -1.516   2.955  1.5089  1.6209  0.4036
    1PC     H5C 7423   4.451  -1.378   2.849  1.5942 -1.2899  0.0902
    1PC     O33 7424   4.183  -1.297   3.519 -0.2591 -0.0618 -0.6338
    1PC     O34 7425   3.967  -1.376   3.418  0.7321 -0.2386 -0.7578
    1PC     O21 7426   3.960  -0.979   3.627 -0.3755 -0.4121 -0.0254
    1PC     C21 7427   3.931  -1.051   3.731  0.5677 -0.3427 -0.0098
    1PC     O22 7428   4.002  -1.121   3.793 -0.8846  0.7568  0.2781
    1OL     C12 7429   3.786  -1.025   3.762 -0.2887  0.1061 -0.3436
    1OL     H2R 7430   3.751  -1.113   3.817 -1.5963 -0.8477 -2.5425
    1OL     H2S 7431   3.729  -1.023   3.669 -0.0426 -0.3374 -0.5096
    1OL     C13 7432   3.753  -0.900   3.851  0.4302 -0.6996  0.2193
    1OL     H3R 7433   3.646  -0.878   3.853  1.0516  2.8789  0.8212
    1OL     H3S 7434   3.799  -0.809   3.813 -1.0943  0.1045  0.2289
    1OL     C14 7435   3.795  -0.925   3.995 -0.3814 -0.5232  0.1529
    1OL     H4R 7436   3.900  -0.952   3.986  0.3907  2.2969 -0.1044
    1OL     H4S 7437   3.732  -1.011   4.021 -1.9555  0.1842 -1.1771
    1OL     C15 7438   3.772  -0.810   4.084  0.6327 -0.9882 -0.8801
    1OL     H5R 7439   3.668  -0.797   4.117  1.3224  0.9851  0.7192
    1OL     H5S 7440   3.818  -0.724   4.035 -0.7189  0.7356  0.7079
    1OL     C16 7441   3.849  -0.826   4.213 -0.3088  0.4448  0.5694
    1OL     H6R 7442   3.954  -0.833   4.183 -0.6545 -3.7295 -0.2343
    1OL     H6S 7443   3.833  -0.921   4.265 -0.1341  0.4855  0.7003
    1OL     C17 7444   3.830  -0.707   4.303  0.1377 -0.1421 -0.8136
    1OL     H7R 7445   3.734  -0.707   4.355  0.5183 -0.6595 -0.0906
    1OL     H7S 7446   3.826  -0.608   4.257  1.9316 -0.0556 -0.8477
    1OL     C18 7447   3.951  -0.709   4.404  0.2983 -0.7532  0.1628
    1OL     H8R 7448   4.041  -0.677   4.352 -0.1126  1.4393  0.7272
    1OL     H8S 7449   3.965  -0.810   4.443  0.1345  0.0271  2.3980
    1OL     C19 7450   3.933  -0.605   4.516 -0.1115 -0.3086  0.2588
    1OL     H9R 7451   3.865  -0.525   4.488 -0.6967 -1.0107 -0.3679
    1OL    C110 7452   3.983  -0.605   4.641 -0.2920 -0.2692 -0.4751
    1OL    H10R 7453   3.950  -0.526   4.708  0.5816  2.0570 -2.6569
    1OL    C111 7454   4.071  -0.710   4.698 -0.4664  0.5337 -0.2816
    1OL    H11R 7455   4.157  -0.663   4.747 -1.9446  1.8716  1.1228
    1OL    H11S 7456   4.112  -0.776   4.620 -0.4925  0.0946  0.0712
    1OL    C112 7457   3.990  -0.801   4.788 -0.3167  0.7496  0.0461
    1OL    H12R 7458   4.056  -0.872   4.838  0.2009 -1.1701 -3.0739
    1OL    H12S 7459   3.932  -0.861   4.718 -0.1164 -0.8492  1.1850
    1OL    C113 7460   3.905  -0.737   4.901 -0.0409 -0.6234 -0.8300
    1OL    H13R 7461   3.812  -0.691   4.867  0.7866 -0.0584 -2.4745
    1OL    H13S 7462   3.954  -0.651   4.948 -2.2989  0.2705  0.0255
    1OL    C114 7463   3.870  -0.829   5.023  0.4138 -0.3897  0.1638
    1OL    H14R 7464   3.962  -0.863   5.071  0.1799  0.1294  0.9864
    1OL    H14S 7465   3.820  -0.919   4.985 -1.8688  1.2860 -1.0544
    1OL    C115 7466   3.785  -0.770   5.134 -0.3452  0.1822 -0.1973
    1OL    H15R 7467   3.770  -0.845   5.212 -0.1970  2.4225  2.0922
    1OL    H15S 7468   3.684  -0.757   5.093  0.1307  0.8674 -1.1934
    1OL    C116 7469   3.833  -0.642   5.203  0.1444  0.3232 -0.4473
    1OL    H16R 7470   3.845  -0.569   5.123  0.6684 -0.6704 -1.2994
    1OL    H16S 7471   3.929  -0.664   5.249 -0.4658  1.1066  1.3189
    1OL    C117 7472   3.742  -0.582   5.315 -0.6555  0.0982 -0.5491
    1OL    H17R 7473   3.769  -0.644   5.400 -1.6032 -0.1574 -0.4258
    1OL    H17S 7474   3.637  -0.589   5.285 -0.1128  0.3768 -2.6867
    1OL    C118 7475   3.770  -0.433   5.343 -0.1034 -0.2879 -0.1238
    1OL    H18R 7476   3.720  -0.373   5.266 -2.6290 -0.7382  1.0851
    1OL    H18S 7477   3.877  -0.407   5.341 -0.4192  1.1063 -0.6556
    1OL    H18T 7478   3.720  -0.407   5.436 -2.1134  0.3148 -1.3229
    1PA    C116 7479   0.847   1.390   4.974 -0.5003 -0.0177  0.1021
    1PA    H16R 7480   0.738   1.375   4.979 -0.3323 -0.9289  3.1292
    1PA    H16S 7481   0.885   1.423   5.071  0.8599 -2.4778  0.4864
    1PA    H16T 7482   0.893   1.293   4.952  0.1870  0.9180 -2.9540
    1PA    C115 7483   0.885   1.482   4.858  0.6099 -0.0306  0.0330
    1PA    H15R 7484   0.993   1.497   4.852  0.4301  1.1776 -0.5784
    1PA    H15S 7485   0.851   1.446   4.761  0.1785  1.8819 -0.5725
    1PA    C114 7486   0.808   1.612   4.897  0.1641  0.1222  0.4076
    1PA    H14R 7487   0.703   1.595   4.919  0.4867 -0.9396  1.2695
    1PA    H14S 7488   0.845   1.657   4.989  0.4245  1.9191 -0.5397
    1PA    C113 7489   0.814   1.725   4.789 -0.4534 -0.1494  0.9660
    1PA    H13R 7490   0.766   1.812   4.835  0.4651  1.3078 -0.6911
    1PA    H13S 7491   0.916   1.753   4.762 -1.0652  0.7521 -0.5831
    1PA    C112 7492   0.724   1.710   4.658  0.2072  0.5306  0.0431
    1PA    H12R 7493   0.734   1.605   4.631  1.3369  0.3048  1.2346
    1PA    H12S 7494   0.621   1.723   4.691 -0.1038 -0.1028 -0.6349
    1PA    C111 7495   0.759   1.807   4.540 -0.2684  0.3192 -0.3289
    1PA    H11R 7496   0.738   1.909   4.570 -0.0209  0.1529  0.4134
    1PA    H11S 7497   0.867   1.804   4.524 -0.2307 -1.3894  0.0632
    1PA    C110 7498   0.688   1.768   4.408 -0.0484 -0.3248 -0.3337
    1PA    H10R 7499   0.738   1.682   4.363 -0.9620 -1.9737  1.6425
    1PA    H10S 7500   0.581   1.746   4.418 -0.4296  0.8559 -1.4478
    1PA     C19 7501   0.697   1.892   4.318  0.2345  0.3193  0.2655
    1PA     H9R 7502   0.648   1.857   4.227 -3.0998  0.1654  1.9997
    1PA     H9S 7503   0.637   1.972   4.362  0.6911  0.0538  1.4183
    1PA     C18 7504   0.839   1.941   4.287 -0.3042 -0.0552 -0.4767
    1PA     H8R 7505   0.884   1.983   4.377 -0.1680  0.9051 -0.9779
    1PA     H8S 7506   0.907   1.862   4.257 -1.2674 -1.4477  0.8634
    1PA     C17 7507   0.846   2.061   4.179 -0.1820  0.5160 -0.1136
    1PA     H7R 7508   0.782   2.146   4.202 -2.6355 -0.8018 -1.6485
    1PA     H7S 7509   0.949   2.095   4.165  0.5979 -0.4950  2.5188
    1PA     C16 7510   0.801   2.015   4.034 -0.2690 -0.0119 -0.4104
    1PA     H6R 7511   0.882   1.951   3.996  0.1216 -0.4025  1.0074
    1PA     H6S 7512   0.704   1.965   4.040 -1.0666  1.5484  0.1307
    1PA     C15 7513   0.786   2.129   3.931 -0.4344  0.4952  0.0110
    1PA     H5R 7514   0.723   2.208   3.971  0.0830  1.3129 -0.7479
    1PA     H5S 7515   0.878   2.184   3.907 -1.3991  1.9948 -0.3528
    1PA     C14 7516   0.720   2.088   3.802 -0.1542 -0.5183 -0.6263
    1PA     H4R 7517   0.767   2.000   3.757  0.8804  0.1871 -0.9624
    1PA     H4S 7518   0.616   2.064   3.821 -0.6317  2.0679  0.3820
    1PA     C13 7519   0.698   2.202   3.693  0.1659  0.1866 -0.5903
    1PA     H3R 7520   0.634   2.164   3.613  0.1381  0.4185 -0.6763
    1PA     H3S 7521   0.649   2.287   3.740 -0.1288 -0.5823  0.5383
    1PA     C12 7522   0.828   2.254   3.623 -0.2889 -0.4935  0.0248
    1PA     H2R 7523   0.891   2.298   3.701 -2.4916 -1.0176  2.2480
    1PA     H2S 7524   0.892   2.177   3.581  1.5571 -0.0540  1.8798
    1PC     C11 7525   0.802   2.359   3.519  0.0517 -0.9682 -0.4487
    1PC     O12 7526   0.704   2.431   3.521 -0.0706  0.2441 -0.2703
    1PC     O11 7527   0.891   2.363   3.421  0.3080 -0.1038 -0.5639
    1PC      C1 7528   0.875   2.461   3.318 -0.1039  0.1190 -0.1944
    1PC      HR 7529   0.791   2.443   3.251  0.5131 -0.0256 -0.9492
    1PC      HS 7530   0.860   2.560   3.361 -1.7033 -1.0582  2.1566
    1PC      C2 7531   1.005   2.464   3.235 -0.3178 -0.1409  0.2645
    1PC      HX 7532   1.014   2.543   3.160  0.5091 -1.6704 -1.3298
    1PC      C3 7533   1.016   2.327   3.159  0.7070 -0.3364 -0.2345
    1PC      HA 7534   1.116   2.317   3.115  1.1115  0.2476  0.5278
    1PC      HB 7535   0.997   2.244   3.227 -0.4280 -1.4102 -1.7827
    1PC     O31 7536   0.915   2.319   3.051  0.0515  0.1675 -0.1236
    1PC     P31 7537   0.939   2.391   2.910 -0.2620  0.2252  0.4800
    1PC     O32 7538   0.981   2.258   2.826 -0.2320  0.0815  0.6386
    1PC     C31 7539   1.116   2.205   2.824  0.5785 -0.6140 -0.4834
    1PC     H1A 7540   1.149   2.241   2.922  1.9171  1.4624 -1.6298
    1PC     H1B 7541   1.109   2.098   2.808  0.0267 -0.3923 -1.8679
    1PC     C32 7542   1.194   2.266   2.707  0.1363  0.3471  0.1980
    1PC     H2A 7543   1.171   2.372   2.706 -3.5771 -0.3415  0.5445
    1PC     H2B 7544   1.302   2.255   2.722  0.3263 -2.2552 -2.1563
    1PC     N31 7545   1.164   2.227   2.564  0.4554  0.1176 -0.0607
    1PC     C33 7546   1.018   2.225   2.537  0.3363  0.0318  0.5159
    1PC     H3A 7547   0.987   2.328   2.553  0.6496  0.0011  1.3258
    1PC     H3B 7548   1.006   2.199   2.431  1.1188  0.9916  0.1710
    1PC     H3C 7549   0.967   2.155   2.604  0.4653 -0.6958 -0.1233
    1PC     C34 7550   1.236   2.324   2.471  0.3539  0.2931  0.5906
    1PC     H4A 7551   1.197   2.425   2.486 -2.2913 -0.7813  1.6115
    1PC     H4B 7552   1.343   2.313   2.488  0.3970 -0.4113 -0.1069
    1PC     H4C 7553   1.213   2.287   2.371  0.7506 -1.5422  1.1306
    1PC     C35 7554   1.214   2.096   2.540 -0.0847  0.5019 -0.2610
    1PC     H5A 7555   1.152   2.023   2.592 -1.3416  0.0156 -2.3452
    1PC     H5B 7556   1.319   2.090   2.568  0.9084  0.3454 -3.6130
    1PC     H5C 7557   1.205   2.070   2.434 -1.4688  2.5675 -0.7122
    1PC     O33 7558   0.810   2.440   2.850  0.1480 -0.4166 -0.1786
    1PC     O34 7559   1.065   2.470   2.898  0.3870 -0.4822  0.4616
    1PC     O21 7560   1.127   2.467   3.321 -0.2204 -0.2645 -1.2278
    1PC     C21 7561   1.143   2.567   3.408  0.2668  0.3915 -0.2627
    1PC     O22 7562   1.069   2.663   3.416  0.3982 -1.2334 -0.3735
    1OL     C12 7563   1.239   2.541   3.521 -0.4335  0.1397  0.1292
    1OL     H2R 7564   1.339   2.565   3.484 -1.5201  0.1183 -3.1808
    1OL     H2S 7565   1.232   2.434   3.545  0.9730 -0.0488 -0.1663
    1OL     C13 7566   1.204   2.624   3.645 -0.0066 -1.0491 -0.5066
    1OL     H3R 7567   1.102   2.596   3.675 -1.6206  3.4991 -1.0277
    1OL     H3S 7568   1.196   2.729   3.618  2.7669 -0.4708  0.6551
    1OL     C14 7569   1.311   2.614   3.759 -0.1966 -0.1494  0.2377
    1OL     H4R 7570   1.403   2.669   3.740 -2.2849  4.0675  0.9115
    1OL     H4S 7571   1.336   2.508   3.759  0.4590 -0.0217 -1.4653
    1OL     C15 7572   1.245   2.665   3.892 -0.1922  1.1610  0.3789
    1OL     H5R 7573   1.323   2.682   3.967  0.5701  1.5404 -0.4882
    1OL     H5S 7574   1.172   2.588   3.920 -1.1776  1.3308 -1.6032
    1OL     C16 7575   1.169   2.796   3.888 -0.3359 -0.3930  0.0594
    1OL     H6R 7576   1.121   2.813   3.791 -1.6078 -0.9010  0.5819
    1OL     H6S 7577   1.234   2.883   3.902 -2.9754  1.7092  0.0651
    1OL     C17 7578   1.049   2.796   3.985 -0.4528 -0.2858 -0.1887
    1OL     H7R 7579   1.082   2.794   4.089 -0.7548 -0.5462 -0.0932
    1OL     H7S 7580   1.001   2.701   3.960  0.9165 -1.4120  1.2774
    1OL     C18 7581   0.936   2.908   3.981 -0.1177 -0.0655  0.3546
    1OL     H8R 7582   0.847   2.867   4.030  0.1715 -1.5989 -0.3685
    1OL     H8S 7583   0.906   2.933   3.879 -0.1211 -1.9317 -0.1275
    1OL     C19 7584   0.986   3.035   4.043 -0.0611  0.3612 -0.3932
    1OL     H9R 7585   1.042   3.098   3.974 -1.4955  1.6090 -0.4534
    1OL    C110 7586   0.964   3.075   4.172  0.2381 -0.0556  0.1541
    1OL    H10R 7587   0.997   3.173   4.204 -0.8056  0.2026  0.4911
    1OL    C111 7588   0.894   2.989   4.274 -0.7283 -0.2043  0.1876
    1OL    H11R 7589   0.916   2.883   4.256 -0.4675 -0.8696  3.5791
    1OL    H11S 7590   0.786   3.006   4.267 -1.0376 -1.4253  1.3816
    1OL    C112 7591   0.942   3.022   4.413  0.6555 -0.1358  0.3914
    1OL    H12R 7592   0.921   3.127   4.437 -0.0119  0.1727 -1.3897
    1OL    H12S 7593   1.050   3.022   4.428  0.6991  1.5520  0.2651
    1OL    C113 7594   0.871   2.933   4.514  0.5833 -0.3307  0.4677
    1OL    H13R 7595   0.897   2.832   4.484 -0.4947 -0.4030 -0.2896
    1OL    H13S 7596   0.763   2.942   4.497  0.8935  1.9977 -0.8294
    1OL    C114 7597   0.881   2.968   4.659 -0.6630 -0.2809 -0.1095
    1OL    H14R 7598   0.841   3.069   4.672  2.5888  1.3606 -1.5878
    1OL    H14S 7599   0.986   2.977   4.689  0.0256  1.0707 -2.6466
    1OL    C115 7600   0.797   2.873   4.749 -0.7215  0.4030 -0.0871
    1OL    H15R 7601   0.712   2.830   4.696 -0.3091  0.4888 -0.8227
    1OL    H15S 7602   0.757   2.919   4.839 -2.7404 -2.0975  0.4097
    1OL    C116 7603   0.885   2.758   4.795 -0.1348  0.6042 -0.8679
    1OL    H16R 7604   0.964   2.784   4.867 -0.5722 -1.1707  0.3102
    1OL    H16S 7605   0.945   2.723   4.711 -0.4140  0.6361 -1.0823
    1OL    C117 7606   0.813   2.634   4.857  0.4490  0.0419 -0.8186
    1OL    H17R 7607   0.728   2.614   4.792 -0.2937 -0.8824  0.3815
    1OL    H17S 7608   0.770   2.657   4.955 -0.2146  0.3275 -1.1732
    1OL    C118 7609   0.908   2.510   4.870  0.3305 -0.6263 -0.4906
    1OL    H18R 7610   0.965   2.493   4.778 -2.5518  3.3651 -3.3779
    1OL    H18S 7611   0.853   2.424   4.909 -0.6891  0.3817  0.3690
    1OL    H18T 7612   0.978   2.533   4.950 -0.8849 -0.8989  0.6990
    1PA    C116 7613   4.042   0.731   5.105  0.2262  0.4482  0.0588
    1PA    H16R 7614   4.070   0.762   5.206 -1.7902  2.3920  0.1022
    1PA    H16S 7615   4.126   0.697   5.045  0.5718  0.7868  0.3422
    1PA    H16T 7616   3.969   0.651   5.106  2.5220 -1.7926 -0.7825
    1PA    C115 7617   3.984   0.862   5.045 -0.0222 -0.1938  0.0819
    1PA    H15R 7618   3.912   0.903   5.117 -0.6161 -1.7461  0.4118
    1PA    H15S 7619   4.065   0.933   5.025 -0.2783  0.0415 -0.1291
    1PA    C114 7620   3.903   0.837   4.914  0.0138 -0.5124  0.4179
    1PA    H14R 7621   3.813   0.780   4.940 -2.7996  3.9604  1.7730
    1PA    H14S 7622   3.865   0.930   4.869 -1.4501 -0.9376  0.7192
    1PA    C113 7623   3.983   0.776   4.802  0.6876  0.6923 -0.4324
    1PA    H13R 7624   4.077   0.831   4.788  0.4479  0.7414 -2.0837
    1PA    H13S 7625   4.011   0.672   4.823 -0.3212  0.8469  2.0863
    1PA    C112 7626   3.913   0.786   4.667 -0.1432  0.1873  0.1590
    1PA    H12R 7627   3.813   0.744   4.673  0.1991 -0.6209  0.2565
    1PA    H12S 7628   3.907   0.893   4.643  3.9587  0.6386  0.3941
    1PA    C111 7629   3.994   0.729   4.550  0.2540 -0.4963 -0.8464
    1PA    H11R 7630   4.101   0.750   4.562  0.0119 -0.0006  0.7126
    1PA    H11S 7631   3.989   0.619   4.552 -0.3739 -0.4689 -0.9325
    1PA    C110 7632   3.942   0.766   4.411 -0.2004 -0.6674 -0.4959
    1PA    H10R 7633   3.944   0.875   4.399  2.8650 -0.6590 -0.7657
    1PA    H10S 7634   4.004   0.707   4.342  2.1600 -0.6677  1.4599
    1PA     C19 7635   3.803   0.719   4.379 -0.6561 -0.1907 -0.5318
    1PA     H9R 7636   3.803   0.616   4.416 -0.0578 -0.0413 -0.1136
    1PA     H9S 7637   3.741   0.785   4.439 -2.4197 -1.7614 -0.5182
    1PA     C18 7638   3.754   0.714   4.231  0.7982 -0.2018  0.2544
    1PA     H8R 7639   3.807   0.633   4.180 -0.1753 -2.6433  2.8088
    1PA     H8S 7640   3.646   0.697   4.232  0.3499  2.3068  1.7040
    1PA     C17 7641   3.778   0.847   4.158  0.0168 -0.0596  0.1574
    1PA     H7R 7642   3.732   0.930   4.212 -0.2399  0.2379 -0.5074
    1PA     H7S 7643   3.885   0.870   4.157 -0.5083  2.8857  1.6448
    1PA     C16 7644   3.745   0.846   4.006  0.3903 -0.3167 -0.2965
    1PA     H6R 7645   3.775   0.946   3.971  0.5415 -0.4240 -0.4744
    1PA     H6S 7646   3.801   0.766   3.958  1.6190  0.0109  0.5217
    1PA     C15 7647   3.598   0.815   3.985  0.2740  0.6727  0.1703
    1PA     H5R 7648   3.584   0.716   4.029  0.1397  0.8379  0.5009
    1PA     H5S 7649   3.545   0.885   4.050  0.5097  0.7154  0.3187
    1PA     C14 7650   3.554   0.816   3.834  0.3771 -0.2179  0.1747
    1PA     H4R 7651   3.569   0.916   3.792 -3.9796  1.1212  1.3058
    1PA     H4S 7652   3.615   0.750   3.772  0.9447  0.2461  0.2236
    1PA     C13 7653   3.410   0.781   3.820 -0.0177 -0.0490 -0.5538
    1PA     H3R 7654   3.400   0.680   3.860  1.4707 -0.5717 -1.4222
    1PA     H3S 7655   3.351   0.849   3.881 -1.3260 -0.6948 -1.0542
    1PA     C12 7656   3.339   0.772   3.686  0.0835  0.5166 -0.4200
    1PA     H2R 7657   3.375   0.685   3.631  1.7094  0.1040  1.2025
    1PA     H2S 7658   3.232   0.763   3.705 -0.3587  1.6953 -2.0924
    1PC     C11 7659   3.353   0.902   3.604  0.2273  0.3464  0.0509
    1PC     O12 7660   3.364   1.013   3.649 -0.1360  0.1378 -0.0599
    1PC     O11 7661   3.329   0.892   3.473  0.0613 -0.0773 -0.1440
    1PC      C1 7662   3.337   1.004   3.379 -0.2965 -0.3821  0.0431
    1PC      HR 7663   3.262   0.977   3.304 -2.5488 -0.6106  2.2393
    1PC      HS 7664   3.310   1.101   3.422 -0.0572 -1.0923  1.8772
    1PC      C2 7665   3.475   1.011   3.308  0.3654 -1.0313  0.5364
    1PC      HX 7666   3.553   1.037   3.380 -0.2921  2.6908  0.1379
    1PC      C3 7667   3.486   1.120   3.199 -1.0642 -0.2655  0.1542
    1PC      HA 7668   3.488   1.208   3.265 -0.3731 -0.3512  0.2497
    1PC      HB 7669   3.577   1.104   3.142 -1.3612  1.8030 -1.0045
    1PC     O31 7670   3.378   1.124   3.110 -0.0253 -0.1774 -0.3362
    1PC     P31 7671   3.383   1.078   2.962  0.3016  0.0225 -0.6016
    1PC     O32 7672   3.392   0.919   2.962 -0.3307 -0.9252 -0.2042
    1PC     C31 7673   3.280   0.845   2.997  0.2380 -0.5859 -0.6489
    1PC     H1A 7674   3.268   0.845   3.105  2.7040  0.9919 -0.3154
    1PC     H1B 7675   3.193   0.901   2.959  0.6868  1.0073  0.5811
    1PC     C32 7676   3.282   0.700   2.944  0.1015 -0.3497  0.0663
    1PC     H2A 7677   3.365   0.644   2.987 -0.6344 -0.3383  1.5537
    1PC     H2B 7678   3.187   0.651   2.965 -0.3746 -0.0363 -1.2454
    1PC     N31 7679   3.306   0.669   2.793 -0.2957 -0.1666 -0.9737
    1PC     C33 7680   3.191   0.725   2.711  0.9889  0.5942 -0.4286
    1PC     H3A 7681   3.230   0.781   2.625  2.5880  2.3895  1.3514
    1PC     H3B 7682   3.136   0.636   2.682  0.3210  1.2538 -1.2304
    1PC     H3C 7683   3.128   0.792   2.770 -0.8186  0.5092 -2.1642
    1PC     C34 7684   3.444   0.717   2.745  0.0944 -0.0122 -0.7827
    1PC     H4A 7685   3.515   0.667   2.811  2.0962  3.5270 -0.0353
    1PC     H4B 7686   3.459   0.690   2.640  0.5138 -0.8238 -0.5229
    1PC     H4C 7687   3.448   0.826   2.751  0.7070 -0.1124  1.0826
    1PC     C35 7688   3.308   0.522   2.771 -0.3739  0.1806 -0.0016
    1PC     H5A 7689   3.210   0.480   2.792 -1.1620  0.7141 -2.3739
    1PC     H5B 7690   3.380   0.474   2.838 -1.0624  1.1426  1.4695
    1PC     H5C 7691   3.341   0.501   2.669  1.5224 -2.0576  0.9582
    1PC     O33 7692   3.253   1.109   2.892 -0.0527 -0.1878  0.1490
    1PC     O34 7693   3.512   1.135   2.900  0.5299  0.0543  0.0858
    1PC     O21 7694   3.506   0.888   3.237 -0.3928  0.7050 -0.3128
    1PC     C21 7695   3.575   0.792   3.310 -0.0640 -0.0404  0.1680
    1PC     O22 7696   3.617   0.806   3.427 -0.2875 -0.1188  0.0307
    1OL     C12 7697   3.592   0.663   3.237  0.4163  0.1326 -0.3922
    1OL     H2R 7698   3.700   0.661   3.225  0.6041  0.0550  1.0344
    1OL     H2S 7699   3.537   0.669   3.143 -0.6322  0.0108  0.1905
    1OL     C13 7700   3.554   0.537   3.318 -0.0671 -0.2967 -0.0234
    1OL     H3R 7701   3.625   0.537   3.401  0.0607  0.4321 -0.1254
    1OL     H3S 7702   3.571   0.444   3.262  1.3883 -0.6837  0.9897
    1OL     C14 7703   3.417   0.536   3.374 -0.2256  0.7272 -0.5266
    1OL     H4R 7704   3.355   0.496   3.294  0.1988 -0.4334 -0.2890
    1OL     H4S 7705   3.389   0.638   3.402 -0.0440  1.2159 -2.0658
    1OL     C15 7706   3.388   0.444   3.500  0.1602  0.0980  0.7521
    1OL     H5R 7707   3.449   0.484   3.581  1.2868 -0.1818  0.0649
    1OL     H5S 7708   3.410   0.337   3.496  1.9987  0.4214  1.6052
    1OL     C16 7709   3.236   0.452   3.534  0.0567  0.5775  0.3843
    1OL     H6R 7710   3.186   0.391   3.458  0.6670  1.8153 -1.0774
    1OL     H6S 7711   3.201   0.555   3.523  2.2477  1.3254 -0.0770
    1OL     C17 7712   3.195   0.399   3.665 -0.5679 -0.4258  0.3032
    1OL     H7R 7713   3.247   0.469   3.732  0.0045 -0.4743 -0.0807
    1OL     H7S 7714   3.236   0.298   3.680 -0.1448 -0.1154  1.3292
    1OL     C18 7715   3.042   0.402   3.695  0.5062  0.5466 -0.7054
    1OL     H8R 7716   2.982   0.349   3.621 -0.9138 -0.5672  1.1483
    1OL     H8S 7717   3.000   0.501   3.681 -1.0134  0.4775  2.4241
    1OL     C19 7718   3.004   0.351   3.835  0.0911 -0.9284  0.1407
    1OL     H9R 7719   2.977   0.246   3.839  1.9684 -1.5341 -1.6944
    1OL    C110 7720   2.993   0.421   3.949 -0.3190 -0.2579  0.4630
    1OL    H10R 7721   2.985   0.360   4.039 -1.0953 -0.9678 -0.0751
    1OL    C111 7722   3.044   0.557   3.967  0.1952 -0.2316  1.1685
    1OL    H11R 7723   2.970   0.619   4.018 -0.0351  0.7009 -0.2189
    1OL    H11S 7724   3.054   0.609   3.871 -2.1551 -0.3168  0.8090
    1OL    C112 7725   3.179   0.547   4.043 -0.1619 -0.5456  0.2117
    1OL    H12R 7726   3.251   0.521   3.966 -0.6348  2.2954 -1.3478
    1OL    H12S 7727   3.183   0.478   4.127 -0.9024  1.5849  2.1183
    1OL    C113 7728   3.219   0.689   4.097 -0.7645 -0.6934 -0.4162
    1OL    H13R 7729   3.193   0.766   4.025 -3.0143  0.7206  1.7485
    1OL    H13S 7730   3.327   0.694   4.106 -0.9243  1.2225  0.9841
    1OL    C114 7731   3.142   0.737   4.227  0.0570  0.3815  0.6507
    1OL    H14R 7732   3.160   0.668   4.309 -0.8141  0.3025  0.7864
    1OL    H14S 7733   3.036   0.752   4.202 -0.1437  0.1723  1.3765
    1OL    C115 7734   3.198   0.872   4.276 -0.4718  0.4311 -0.2108
    1OL    H15R 7735   3.114   0.937   4.302 -1.9127 -1.4767  0.0981
    1OL    H15S 7736   3.248   0.923   4.193  0.6338 -0.5392 -0.1549
    1OL    C116 7737   3.301   0.858   4.389  0.3160 -0.2778 -0.1649
    1OL    H16R 7738   3.391   0.824   4.337  0.3525 -0.7803  0.2185
    1OL    H16S 7739   3.265   0.783   4.460 -0.6433  1.0063  0.7630
    1OL    C117 7740   3.328   0.991   4.470  0.1120 -0.3449  0.0229
    1OL    H17R 7741   3.393   0.963   4.553  1.6540 -1.0176 -1.3654
    1OL    H17S 7742   3.246   1.032   4.530 -0.5051  2.1593 -2.3249
    1OL    C118 7743   3.384   1.103   4.381 -0.2938  0.5172  0.3405
    1OL    H18R 7744   3.465   1.064   4.320 -0.2967  0.1236  0.5789
    1OL    H18S 7745   3.428   1.189   4.432 -1.0788  2.6498 -2.3657
    1OL    H18T 7746   3.307   1.144   4.315 -0.0879 -0.4991 -0.5510
    1PA    C116 7747   4.838   1.468   4.114 -0.2881  0.9390  0.0463
    1PA    H16R 7748   4.831   1.411   4.207  1.4578 -2.4037 -1.6665
    1PA    H16S 7749   4.773   1.411   4.047 -1.0766  1.2372  0.5423
    1PA    H16T 7750   4.804   1.571   4.107  2.0091  1.6639 -1.3126
    1PA    C115 7751   4.986   1.457   4.069 -0.1808  0.0329  0.4934
    1PA    H15R 7752   5.049   1.533   4.115 -0.2414  0.9222 -0.8377
    1PA    H15S 7753   5.024   1.360   4.101 -0.3324 -0.1072  0.2531
    1PA    C114 7754   5.002   1.464   3.915  0.8648  0.4937 -0.4014
    1PA    H14R 7755   4.976   1.563   3.877 -0.8845 -0.6225 -2.2729
    1PA    H14S 7756   5.110   1.463   3.898  1.3679 -0.9285  2.2339
    1PA    C113 7757   4.925   1.358   3.827  0.0041  0.2278 -0.5693
    1PA    H13R 7758   4.821   1.390   3.821  0.5095  1.8312 -1.4188
    1PA    H13S 7759   4.963   1.373   3.725  1.1044  1.4065 -0.0093
    1PA    C112 7760   4.944   1.214   3.882 -0.2872 -0.1541  0.4935
    1PA    H12R 7761   4.888   1.193   3.973 -2.1768 -2.6316 -1.1224
    1PA    H12S 7762   4.896   1.153   3.806  0.0537  0.5048 -0.2624
    1PA    C111 7763   5.084   1.166   3.912 -0.1568  0.1820  0.4324
    1PA    H11R 7764   5.119   1.136   3.813  0.1609 -0.3569  0.7022
    1PA    H11S 7765   5.150   1.235   3.966 -0.7817  0.6759  0.5696
    1PA    C110 7766   5.082   1.042   4.003 -0.6001 -0.1879 -0.4271
    1PA    H10R 7767   5.014   1.069   4.084 -1.0388 -2.0550 -0.1320
    1PA    H10S 7768   5.023   0.963   3.957  0.0550  0.0545 -1.7096
    1PA     C19 7769   5.219   0.995   4.057  0.4064  0.4921  0.0779
    1PA     H9R 7770   5.271   1.073   4.115  0.9881 -1.4046  2.2690
    1PA     H9S 7771   5.205   0.911   4.125  1.1383  0.3019  0.0026
    1PA     C18 7772   5.319   0.949   3.944  0.3194 -0.1993 -0.3036
    1PA     H8R 7773   5.349   1.041   3.893  1.6884  0.3306  1.3767
    1PA     H8S 7774   5.413   0.909   3.980  0.1882  0.4852  0.8542
    1PA     C17 7775   5.263   0.840   3.848 -0.6061 -0.7186 -0.4307
    1PA     H7R 7776   5.223   0.763   3.915 -1.2083  0.2498  0.3597
    1PA     H7S 7777   5.173   0.882   3.804 -0.3110 -0.5457 -0.8757
    1PA     C16 7778   5.349   0.787   3.738 -0.2465 -0.6591 -0.5371
    1PA     H6R 7779   5.390   0.867   3.676  0.2813  0.0704  0.7351
    1PA     H6S 7780   5.437   0.750   3.791 -0.0080  0.8361  0.1670
    1PA     C15 7781   5.289   0.684   3.647  0.1201  0.6819 -0.1598
    1PA     H5R 7782   5.267   0.609   3.723 -0.4168 -0.7075 -1.6288
    1PA     H5S 7783   5.200   0.725   3.598  0.5050  2.3843  0.4868
    1PA     C14 7784   5.382   0.620   3.544  0.2252  0.3522 -0.2216
    1PA     H4R 7785   5.476   0.599   3.596  0.6962 -0.0776 -1.2230
    1PA     H4S 7786   5.342   0.530   3.497  2.4892 -0.5482 -0.5459
    1PA     C13 7787   5.422   0.711   3.424  0.1999  0.1606  0.4070
    1PA     H3R 7788   5.328   0.728   3.371  0.8892 -1.1953 -1.3321
    1PA     H3S 7789   5.452   0.810   3.460 -1.7681  2.0141 -2.6104
    1PA     C12 7790   5.526   0.648   3.330  0.6774 -0.6557 -0.2512
    1PA     H2R 7791   5.615   0.646   3.393  1.0057 -0.2943 -0.6935
    1PA     H2S 7792   5.507   0.547   3.295  1.2818 -0.0598 -2.4609
    1PC     C11 7793   5.541   0.742   3.210  0.3828  0.0144 -1.0139
    1PC     O12 7794   5.480   0.723   3.110 -0.4129 -0.1203 -0.9120
    1PC     O11 7795   5.629   0.837   3.226 -0.9439 -0.2859  0.4683
    1PC      C1 7796   5.661   0.924   3.113 -0.6667 -0.4379 -0.3913
    1PC      HR 7797   5.758   0.966   3.143 -0.0213 -1.4777 -0.9503
    1PC      HS 7798   5.679   0.867   3.021  0.5417 -0.3887 -0.2055
    1PC      C2 7799   5.568   1.045   3.081  0.1428  1.0067 -0.5745
    1PC      HX 7800   5.467   1.009   3.060  0.4974 -2.5884  2.6958
    1PC      C3 7801   5.629   1.136   2.976  0.1274 -0.0400 -0.2571
    1PC      HA 7802   5.564   1.223   2.969  0.2080  0.1000  0.5955
    1PC      HB 7803   5.724   1.167   3.020 -0.7698 -0.9119  2.4854
    1PC     O31 7804   5.646   1.060   2.857 -1.1458 -0.9046 -0.0266
    1PC     P31 7805   5.521   1.019   2.765  0.0555  0.1211  0.0859
    1PC     O32 7806   5.492   0.871   2.810  0.9262 -0.0567  0.3760
    1PC     C31 7807   5.564   0.755   2.758  0.2201 -0.8151  0.1318
    1PC     H1A 7808   5.600   0.769   2.656 -2.0339 -0.9919 -0.7378
    1PC     H1B 7809   5.638   0.729   2.835  1.5756  1.0463 -0.4758
    1PC     C32 7810   5.458   0.645   2.769  0.3340 -0.1164 -1.1946
    1PC     H2A 7811   5.519   0.554   2.770  0.6229  0.0609  0.2454
    1PC     H2B 7812   5.398   0.646   2.861  1.1186 -2.0715 -0.6061
    1PC     N31 7813   5.362   0.633   2.654 -0.3796 -0.7320  0.1192
    1PC     C33 7814   5.289   0.503   2.677  0.8818  0.2932 -0.3600
    1PC     H3A 7815   5.201   0.501   2.612  0.9775  1.1915 -0.5270
    1PC     H3B 7816   5.360   0.420   2.673 -0.9255 -1.4096  0.8212
    1PC     H3C 7817   5.249   0.499   2.779 -0.6701  1.7199 -0.8728
    1PC     C34 7818   5.259   0.739   2.644  0.3030 -0.0199  0.1794
    1PC     H4A 7819   5.302   0.837   2.628  2.1294 -0.4966  1.7531
    1PC     H4B 7820   5.188   0.716   2.565  1.1073  0.1857 -0.6209
    1PC     H4C 7821   5.213   0.732   2.743 -0.4166 -1.0734 -0.2188
    1PC     C35 7822   5.425   0.614   2.524 -0.1130 -0.2157  0.4645
    1PC     H5A 7823   5.354   0.572   2.453 -0.1320  0.8022 -0.1496
    1PC     H5B 7824   5.516   0.557   2.541  0.7916  1.6614  2.4500
    1PC     H5C 7825   5.469   0.711   2.496 -1.0182  0.0606 -0.0226
    1PC     O33 7826   5.405   1.101   2.806  0.0900 -0.4586 -0.4317
    1PC     O34 7827   5.557   1.024   2.626 -0.0119  0.5294 -0.4277
    1PC     O21 7828   5.562   1.129   3.195  0.2397  0.0042 -0.6240
    1PC     C21 7829   5.479   1.109   3.299 -0.3015  0.6186  0.0280
    1PC     O22 7830   5.399   1.017   3.298  0.0992  0.5046  0.1239
    1OL     C12 7831   5.499   1.205   3.409 -0.4710 -0.6376 -0.4352
    1OL     H2R 7832   5.428   1.286   3.394 -1.8806 -1.4949  1.1995
    1OL     H2S 7833   5.597   1.253   3.415 -2.0449  2.6895  1.2929
    1OL     C13 7834   5.460   1.151   3.551 -0.0035  0.1326  0.4093
    1OL     H3R 7835   5.465   1.042   3.544  1.3095  0.1167  1.1248
    1OL     H3S 7836   5.362   1.170   3.594  0.2901 -0.1210  1.2041
    1OL     C14 7837   5.574   1.176   3.656  0.7326 -0.4993 -0.1044
    1OL     H4R 7838   5.670   1.137   3.622  0.8291 -0.4913  0.1506
    1OL     H4S 7839   5.544   1.119   3.744 -1.4193  0.4451 -0.1655
    1OL     C15 7840   5.593   1.325   3.693  0.2866  0.1321  0.5848
    1OL     H5R 7841   5.637   1.374   3.606 -0.2514 -0.3972  0.0030
    1OL     H5S 7842   5.667   1.332   3.773  0.9270  0.1415 -0.0065
    1OL     C16 7843   5.463   1.397   3.733  0.0721  0.2811 -0.1868
    1OL     H6R 7844   5.393   1.399   3.649  1.2890 -0.6878 -1.2723
    1OL     H6S 7845   5.479   1.504   3.749 -2.5789  0.5829  0.8722
    1OL     C17 7846   5.385   1.346   3.859  0.8880 -0.7142  0.2060
    1OL     H7R 7847   5.315   1.265   3.841 -0.0623 -0.6354  3.0534
    1OL     H7S 7848   5.319   1.424   3.897  2.3957 -0.4645  2.5900
    1OL     C18 7849   5.467   1.323   3.987 -0.3744 -0.0220 -0.2886
    1OL     H8R 7850   5.540   1.246   3.959  0.0660 -0.3481  1.6607
    1OL     H8S 7851   5.405   1.279   4.065  3.6136 -1.5117  2.3639
    1OL     C19 7852   5.537   1.445   4.036  0.0586 -0.5893  0.1165
    1OL     H9R 7853   5.637   1.460   3.997  0.6346 -0.5256  1.5546
    1OL    C110 7854   5.480   1.531   4.122  0.2980  0.2991  0.1658
    1OL    H10R 7855   5.532   1.617   4.163 -1.1951  0.7578  1.1883
    1OL    C111 7856   5.341   1.520   4.178  0.1582  0.1365  0.1816
    1OL    H11R 7857   5.292   1.433   4.134 -1.7662  0.3931  1.6941
    1OL    H11S 7858   5.291   1.601   4.125 -0.4606 -2.3294 -3.3777
    1OL    C112 7859   5.331   1.524   4.329  0.6556  0.3153 -0.4493
    1OL    H12R 7860   5.384   1.610   4.373  1.4334 -0.7598  0.8104
    1OL    H12S 7861   5.385   1.444   4.380  2.2023  0.8093 -1.2467
    1OL    C113 7862   5.189   1.527   4.388  0.5508 -0.0720 -0.9081
    1OL    H13R 7863   5.145   1.430   4.364 -0.8482  0.0856  0.8533
    1OL    H13S 7864   5.136   1.604   4.332 -1.1702 -0.8153 -0.3464
    1OL    C114 7865   5.182   1.542   4.543  0.0715 -0.7970  0.8909
    1OL    H14R 7866   5.188   1.647   4.574  0.0353 -0.4920 -0.1246
    1OL    H14S 7867   5.268   1.490   4.586  1.6133  2.6985  2.4924
    1OL    C115 7868   5.047   1.480   4.591  0.0695  0.8722 -0.0126
    1OL    H15R 7869   5.044   1.476   4.701 -0.1397 -2.3313 -0.0677
    1OL    H15S 7870   5.039   1.378   4.553 -1.0394  0.8874  0.1406
    1OL    C116 7871   4.926   1.566   4.550  0.6374  0.0692  0.3281
    1OL    H16R 7872   4.932   1.586   4.443 -1.5234 -1.6149 -0.1841
    1OL    H16S 7873   4.934   1.653   4.615  0.4708  0.9926 -0.8514
    1OL    C117 7874   4.794   1.497   4.575 -0.5858  0.3516  0.7419
    1OL    H17R 7875   4.794   1.474   4.682  0.9791 -1.7661  0.3728
    1OL    H17S 7876   4.790   1.400   4.524 -1.6486  0.3207  0.8691
    1OL    C118 7877   4.672   1.579   4.521 -0.6021 -0.0182 -0.8283
    1OL    H18R 7878   4.670   1.581   4.412 -1.1362 -0.1941 -0.8226
    1OL    H18S 7879   4.677   1.679   4.565 -0.5085 -0.3412 -0.0867
    1OL    H18T 7880   4.576   1.536   4.548 -1.5739  1.8690 -1.1415
    1PA    C116 7881   0.060   2.960   5.329 -0.4774 -0.2901  0.0881
    1PA    H16R 7882   0.061   2.915   5.429  2.1918  0.4141  0.4685
    1PA    H16S 7883  -0.025   3.028   5.320  0.3221  0.7303 -0.0406
    1PA    H16T 7884   0.151   3.021   5.322  0.6638 -1.9493 -0.2373
    1PA    C115 7885   0.061   2.850   5.221  0.0230  0.4868  0.1530
    1PA    H15R 7886   0.068   2.887   5.119 -2.0625 -3.1051 -1.4671
    1PA    H15S 7887   0.144   2.782   5.240 -0.0317  0.5301  0.5642
    1PA    C114 7888  -0.059   2.760   5.206  0.6228  0.5951  0.8504
    1PA    H14R 7889  -0.052   2.680   5.132 -2.2306 -0.5137  1.6273
    1PA    H14S 7890  -0.057   2.706   5.300  1.7022 -0.2172  0.3829
    1PA    C113 7891  -0.195   2.838   5.175 -0.1965  0.2289 -0.2841
    1PA    H13R 7892  -0.222   2.912   5.251  0.6122  0.8808 -0.6243
    1PA    H13S 7893  -0.183   2.898   5.085 -3.3716  3.3732  1.1334
    1PA    C112 7894  -0.313   2.733   5.151 -0.1933 -0.5344  0.1386
    1PA    H12R 7895  -0.314   2.663   5.235  0.5238 -0.6578  0.0523
    1PA    H12S 7896  -0.408   2.786   5.141  0.7918  1.0937 -1.1352
    1PA    C111 7897  -0.299   2.650   5.016  0.5424 -0.4292 -0.5549
    1PA    H11R 7898  -0.299   2.715   4.928 -1.9556 -0.5338 -0.6881
    1PA    H11S 7899  -0.206   2.593   5.015  0.0206 -1.3944 -2.9293
    1PA    C110 7900  -0.405   2.544   5.015  0.0383  0.1710 -0.2179
    1PA    H10R 7901  -0.388   2.490   5.108 -1.6944  1.6803  1.0475
    1PA    H10S 7902  -0.500   2.593   5.037  0.1411  0.2408  0.0793
    1PA     C19 7903  -0.417   2.462   4.889  0.2187  0.6676 -0.6350
    1PA     H9R 7904  -0.316   2.438   4.855 -0.6328 -2.0320 -1.5817
    1PA     H9S 7905  -0.464   2.370   4.926  2.3457  0.2551  1.2872
    1PA     C18 7906  -0.490   2.516   4.767  0.1308 -0.3998  0.0612
    1PA     H8R 7907  -0.484   2.445   4.685  0.0506  0.9502 -1.1632
    1PA     H8S 7908  -0.598   2.513   4.780  0.1191 -0.0031  0.0805
    1PA     C17 7909  -0.451   2.658   4.720 -1.1266  0.1266  0.5443
    1PA     H7R 7910  -0.489   2.734   4.789 -1.0373  1.2416 -0.6010
    1PA     H7S 7911  -0.345   2.673   4.698 -1.3677 -1.7842 -2.5435
    1PA     C16 7912  -0.520   2.694   4.581  0.6014 -0.0306  0.1221
    1PA     H6R 7913  -0.492   2.797   4.560 -1.7837  0.5440 -0.4830
    1PA     H6S 7914  -0.489   2.628   4.499  0.7963 -0.1763  0.3117
    1PA     C15 7915  -0.675   2.700   4.572  0.6128 -0.5159 -0.1315
    1PA     H5R 7916  -0.726   2.610   4.608 -0.0190  0.1851  0.7675
    1PA     H5S 7917  -0.703   2.779   4.642 -0.5969 -0.8442 -0.2195
    1PA     C14 7918  -0.734   2.714   4.429 -0.4057 -0.2298  0.0921
    1PA     H4R 7919  -0.843   2.711   4.430 -0.4301 -2.8740 -1.9662
    1PA     H4S 7920  -0.709   2.810   4.382  1.2131 -0.5125  0.3373
    1PA     C13 7921  -0.689   2.603   4.335 -0.0430  0.2053  0.8600
    1PA     H3R 7922  -0.582   2.605   4.314 -0.0456  3.3923  0.6135
    1PA     H3S 7923  -0.708   2.503   4.375 -0.4812  0.8101  2.2438
    1PA     C12 7924  -0.762   2.612   4.194  0.2424  0.0800 -0.0405
    1PA     H2R 7925  -0.857   2.557   4.196  0.0631  0.3111 -1.2630
    1PA     H2S 7926  -0.773   2.715   4.159  1.1383  0.2524  0.1620
    1PC     C11 7927  -0.676   2.530   4.096  0.0397  0.1255  0.1847
    1PC     O12 7928  -0.711   2.427   4.046 -0.1042 -0.7073  0.2184
    1PC     O11 7929  -0.558   2.587   4.064  0.0470 -0.1536 -0.1707
    1PC      C1 7930  -0.477   2.525   3.956  0.0289 -0.2269 -0.0506
    1PC      HR 7931  -0.462   2.420   3.984 -0.3446 -0.5113 -0.8874
    1PC      HS 7932  -0.541   2.538   3.868  0.5685  3.7232 -0.0191
    1PC      C2 7933  -0.350   2.616   3.935  0.5149 -0.6321 -0.5735
    1PC      HX 7934  -0.383   2.712   3.895 -0.9227 -0.8596  0.0100
    1PC      C3 7935  -0.257   2.553   3.831 -0.4489  0.2183 -0.4358
    1PC      HA 7936  -0.181   2.627   3.804  0.1176 -0.0425  0.4073
    1PC      HB 7937  -0.204   2.476   3.887 -1.3505 -1.7180 -2.1267
    1PC     O31 7938  -0.342   2.503   3.725  0.3751 -0.0330 -0.2190
    1PC     P31 7939  -0.395   2.572   3.594 -0.2678  0.1645  0.1834
    1PC     O32 7940  -0.265   2.546   3.493 -0.0456 -0.0352 -0.6423
    1PC     C31 7941  -0.238   2.421   3.441 -0.0059  0.6060  0.7626
    1PC     H1A 7942  -0.316   2.352   3.475 -0.5237  1.7822  2.0659
    1PC     H1B 7943  -0.229   2.430   3.332 -0.8434 -0.7476  0.5636
    1PC     C32 7944  -0.107   2.368   3.499 -0.6388 -0.8857 -0.8929
    1PC     H2A 7945  -0.118   2.356   3.607 -1.4368  1.3272 -0.6841
    1PC     H2B 7946  -0.089   2.262   3.478  2.5854 -0.8298  0.9788
    1PC     N31 7947   0.020   2.447   3.482  0.2278 -0.9874  0.2221
    1PC     C33 7948   0.020   2.516   3.348 -0.1617  0.5109 -0.5161
    1PC     H3A 7949  -0.065   2.584   3.354  0.3896  1.0845  1.2850
    1PC     H3B 7950   0.110   2.576   3.336  0.8589 -0.8625  0.0406
    1PC     H3C 7951   0.014   2.434   3.276 -3.3262  1.0867 -1.0749
    1PC     C34 7952   0.027   2.569   3.570  0.2349  0.4777  0.3623
    1PC     H4A 7953  -0.067   2.624   3.565 -0.4377 -0.5966  0.8655
    1PC     H4B 7954   0.032   2.540   3.675 -0.0542 -0.1696  0.2035
    1PC     H4C 7955   0.117   2.625   3.543  0.0623  1.5104  1.8077
    1PC     C35 7956   0.154   2.370   3.494  0.0929 -0.0969  0.9666
    1PC     H5A 7957   0.154   2.307   3.583  0.0638 -1.4986 -0.0018
    1PC     H5B 7958   0.243   2.434   3.494 -0.0020  0.0648 -0.3635
    1PC     H5C 7959   0.155   2.304   3.408  1.7018 -1.0025  1.6317
    1PC     O33 7960  -0.508   2.490   3.543 -0.3542  0.8495 -0.5071
    1PC     O34 7961  -0.422   2.715   3.607 -0.1381  0.6576  0.0146
    1PC     O21 7962  -0.271   2.617   4.062  0.0942  0.0009  0.4205
    1PC     C21 7963  -0.264   2.739   4.123 -0.0396 -0.0154 -0.4593
    1PC     O22 7964  -0.324   2.840   4.093 -0.4854  0.3315 -0.3458
    1OL     C12 7965  -0.162   2.733   4.236  0.3987  0.5327 -0.7521
    1OL     H2R 7966  -0.064   2.772   4.207  0.5179  2.3193  1.7535
    1OL     H2S 7967  -0.129   2.630   4.251  0.0586  0.6531  1.1173
    1OL     C13 7968  -0.204   2.812   4.358  0.9668  0.4260 -0.4296
    1OL     H3R 7969  -0.290   2.772   4.411 -1.0792  1.3310 -2.8733
    1OL     H3S 7970  -0.233   2.916   4.342 -0.9242  0.3120  1.7711
    1OL     C14 7971  -0.086   2.818   4.469  0.7607 -0.8211 -0.1270
    1OL     H4R 7972   0.007   2.860   4.430 -0.8761  3.9080  0.4566
    1OL     H4S 7973  -0.064   2.716   4.502  1.9861 -1.2657 -2.1634
    1OL     C15 7974  -0.120   2.901   4.598 -0.3014  0.0016 -0.1481
    1OL     H5R 7975  -0.203   2.851   4.649 -0.6884  1.5018  0.7680
    1OL     H5S 7976  -0.150   3.003   4.574 -0.4993 -0.2812 -1.1298
    1OL     C16 7977  -0.001   2.912   4.696 -0.7746 -0.5709  0.0408
    1OL     H6R 7978   0.079   2.969   4.648 -0.7863 -0.4848  0.1245
    1OL     H6S 7979   0.033   2.809   4.709  1.9352 -0.0159 -1.7963
    1OL     C17 7980  -0.053   2.972   4.833  0.1731  0.1791 -0.3647
    1OL     H7R 7981   0.033   2.983   4.899  0.3411 -3.5439  0.2292
    1OL     H7S 7982  -0.115   2.902   4.888  0.2764  0.9046  0.7208
    1OL     C18 7983  -0.115   3.109   4.813 -0.2997  0.0248  0.0904
    1OL     H8R 7984  -0.193   3.105   4.737 -0.2213 -0.8417  0.0553
    1OL     H8S 7985  -0.035   3.178   4.785  1.1854 -1.2569  1.0645
    1OL     C19 7986  -0.186   3.145   4.935 -0.2167 -0.2868 -0.2731
    1OL     H9R 7987  -0.281   3.094   4.946 -1.1504  0.9621 -2.0536
    1OL    C110 7988  -0.157   3.237   5.028 -0.5224  0.2316  0.5904
    1OL    H10R 7989  -0.219   3.260   5.113 -1.1566  0.9634 -0.0495
    1OL    C111 7990  -0.017   3.298   5.028 -0.0635 -0.4914 -0.4085
    1OL    H11R 7991  -0.021   3.400   4.987  0.3671 -0.2368  0.1762
    1OL    H11S 7992   0.064   3.245   4.978 -0.8099 -2.0727 -0.0005
    1OL    C112 7993   0.025   3.319   5.175  0.0199  0.1984 -0.2779
    1OL    H12R 7994  -0.001   3.225   5.223  0.3745  0.0945 -0.2875
    1OL    H12S 7995  -0.040   3.394   5.222  1.1919  1.9124 -1.2700
    1OL    C113 7996   0.175   3.353   5.200  0.3685 -0.2558 -0.4835
    1OL    H13R 7997   0.200   3.437   5.136  0.8442 -1.6990 -2.2678
    1OL    H13S 7998   0.253   3.283   5.170  1.5471  0.6328  0.4141
    1OL    C114 7999   0.203   3.393   5.347  0.0161 -0.0016 -0.0605
    1OL    H14R 8000   0.135   3.477   5.363 -0.4735 -0.1757 -1.0945
    1OL    H14S 8001   0.303   3.436   5.351 -0.0689  0.2360 -0.4179
    1OL    C115 8002   0.180   3.283   5.458  0.2740 -0.4826 -0.3353
    1OL    H15R 8003   0.264   3.214   5.457  0.8697  0.0485  2.6812
    1OL    H15S 8004   0.095   3.216   5.445  0.9914 -2.0699  2.3006
    1OL    C116 8005   0.164   3.337   5.605 -0.0361  0.1112  0.4810
    1OL    H16R 8006   0.098   3.279   5.670 -0.7185  0.2928 -0.0366
    1OL    H16S 8007   0.108   3.431   5.600  0.3082  0.3000  0.0465
    1OL    C117 8008   0.297   3.363   5.674  0.1330 -0.1482  0.3539
    1OL    H17R 8009   0.344   3.443   5.616  0.7347  0.0241  1.0786
    1OL    H17S 8010   0.375   3.287   5.674  1.1375  0.8340 -0.5190
    1OL    C118 8011   0.280   3.437   5.804 -0.0262 -0.5391 -0.2342
    1OL    H18R 8012   0.218   3.385   5.878  1.3639 -0.7565  0.8137
    1OL    H18S 8013   0.240   3.537   5.787 -1.5550 -0.7357  1.7517
    1OL    H18T 8014   0.382   3.447   5.841 -0.7564  3.5388  1.1806
    1PA    C116 8015   1.545   1.756   4.920 -0.3449 -0.3818 -0.4721
    1PA    H16R 8016   1.635   1.790   4.972 -0.0546 -0.0351 -1.1900
    1PA    H16S 8017   1.556   1.658   4.873  0.5691 -1.0334  1.0482
    1PA    H16T 8018   1.479   1.735   5.005  0.1070 -0.8327 -0.2273
    1PA    C115 8019   1.488   1.872   4.829  0.5412 -0.0212 -0.4207
    1PA    H15R 8020   1.381   1.858   4.809 -0.0117 -1.2410  2.7972
    1PA    H15S 8021   1.486   1.955   4.901  0.2032 -0.9323  0.6525
    1PA    C114 8022   1.569   1.888   4.702  0.2081  0.1888  0.9544
    1PA    H14R 8023   1.506   1.942   4.631 -0.2348 -0.8657  0.5191
    1PA    H14S 8024   1.659   1.945   4.723  0.4113 -0.3868  1.7045
    1PA    C113 8025   1.616   1.748   4.641 -0.2311  0.4387  0.9462
    1PA    H13R 8026   1.695   1.710   4.705 -0.7667  0.6633  1.7552
    1PA    H13S 8027   1.548   1.665   4.621 -0.3523  0.6040  0.6549
    1PA    C112 8028   1.693   1.783   4.508 -0.1682 -0.4460 -0.6980
    1PA    H12R 8029   1.680   1.887   4.477 -1.1542 -0.6731 -1.0792
    1PA    H12S 8030   1.799   1.783   4.535 -0.3066  3.2359  0.4003
    1PA    C111 8031   1.667   1.685   4.394  0.2640  0.4560 -0.1754
    1PA    H11R 8032   1.669   1.583   4.432 -2.0890  0.5143  0.2308
    1PA    H11S 8033   1.573   1.711   4.345 -0.2510  1.3543  1.2201
    1PA    C110 8034   1.776   1.690   4.287 -0.4977 -0.3045  0.2130
    1PA    H10R 8035   1.814   1.790   4.265  1.8909 -0.7800  1.7862
    1PA    H10S 8036   1.868   1.644   4.324 -0.7152 -0.5250  0.4931
    1PA     C19 8037   1.738   1.618   4.162  0.2035  0.1336  0.1033
    1PA     H9R 8038   1.657   1.672   4.112  0.1234 -1.4065 -1.5421
    1PA     H9S 8039   1.820   1.606   4.091  3.2229 -1.0666  3.5004
    1PA     C18 8040   1.677   1.475   4.185 -1.0526  0.2180 -0.5029
    1PA     H8R 8041   1.586   1.482   4.246 -0.4571  2.6074  0.2189
    1PA     H8S 8042   1.661   1.440   4.083  0.5255  0.7226 -0.9525
    1PA     C17 8043   1.777   1.381   4.256  0.0950  0.1849  0.1876
    1PA     H7R 8044   1.795   1.427   4.354 -0.0793 -0.7314  0.6594
    1PA     H7S 8045   1.713   1.293   4.265 -1.3482  1.0667 -0.7986
    1PA     C16 8046   1.901   1.346   4.171 -0.7177 -0.5868 -0.3054
    1PA     H6R 8047   1.973   1.427   4.183 -0.8029 -0.6723  0.9047
    1PA     H6S 8048   1.953   1.262   4.216 -1.4852 -1.8136 -1.6523
    1PA     C15 8049   1.882   1.309   4.023 -0.0583 -0.0402 -0.1703
    1PA     H5R 8050   1.794   1.248   4.007  0.3553 -1.2263  1.7197
    1PA     H5S 8051   1.857   1.403   3.973 -0.3755 -0.3457 -0.5860
    1PA     C14 8052   2.009   1.258   3.941  0.6758  0.4171 -0.4180
    1PA     H4R 8053   2.092   1.326   3.961  0.3002  0.8031 -0.1360
    1PA     H4S 8054   2.018   1.162   3.993  0.5281  0.4684 -0.2961
    1PA     C13 8055   1.976   1.233   3.791 -0.9581  0.3548 -0.4167
    1PA     H3R 8056   1.929   1.321   3.745  2.2645  1.3689 -2.1135
    1PA     H3S 8057   2.068   1.207   3.737 -0.8271  1.5896 -0.8310
    1PA     C12 8058   1.875   1.116   3.787 -1.1618 -0.2874  0.1594
    1PA     H2R 8059   1.909   1.025   3.837  1.2318  0.2183 -0.4187
    1PA     H2S 8060   1.785   1.123   3.848 -0.4831 -3.4016  1.7546
    1PC     C11 8061   1.828   1.083   3.650 -0.1531 -0.4538  0.8277
    1PC     O12 8062   1.905   1.089   3.556 -0.0159 -0.2141  0.2301
    1PC     O11 8063   1.701   1.049   3.646 -0.1639 -0.3194 -0.3100
    1PC      C1 8064   1.628   1.039   3.523 -0.8511  0.4088  0.1614
    1PC      HR 8065   1.526   1.070   3.546 -0.9208  0.8016 -0.6582
    1PC      HS 8066   1.669   1.091   3.437  0.6188 -1.3209 -0.2429
    1PC      C2 8067   1.639   0.885   3.481 -0.2854 -0.4532 -0.0369
    1PC      HX 8068   1.745   0.868   3.463  0.1987  0.1970  1.9993
    1PC      C3 8069   1.569   0.860   3.349  0.5385 -0.0082  0.1506
    1PC      HA 8070   1.585   0.762   3.303  1.0801  0.1328  0.0304
    1PC      HB 8071   1.461   0.865   3.363  0.2414 -3.0660 -0.2811
    1PC     O31 8072   1.624   0.950   3.242  0.0552  0.5498 -0.8531
    1PC     P31 8073   1.583   0.930   3.094  0.0730 -0.2707 -0.1988
    1PC     O32 8074   1.427   0.975   3.096 -0.4347 -0.5712 -0.1842
    1PC     C31 8075   1.387   1.109   3.080  0.5182  0.2886 -0.7180
    1PC     H1A 8076   1.298   1.111   3.144 -0.0867 -0.5522 -1.5048
    1PC     H1B 8077   1.462   1.179   3.118 -0.4714  1.1102 -0.2115
    1PC     C32 8078   1.341   1.131   2.933  0.4304 -0.4617 -0.0343
    1PC     H2A 8079   1.324   1.237   2.916  2.1830 -0.1360  0.0567
    1PC     H2B 8080   1.423   1.108   2.865  0.0868  1.5868 -1.2140
    1PC     N31 8081   1.211   1.062   2.891  0.6054  0.2737  1.0847
    1PC     C33 8082   1.229   0.916   2.908  0.6443 -1.2844 -0.0466
    1PC     H3A 8083   1.148   0.866   2.856  1.6083 -0.9295 -2.0006
    1PC     H3B 8084   1.321   0.879   2.861  1.4253  0.3877  0.1185
    1PC     H3C 8085   1.222   0.896   3.015 -0.8963  1.0023  0.3371
    1PC     C34 8086   1.094   1.106   2.966 -0.8581  0.1047  0.6060
    1PC     H4A 8087   1.102   1.063   3.067  0.2988  1.5402  1.1611
    1PC     H4B 8088   1.103   1.214   2.963  1.1913  0.0023  1.4324
    1PC     H4C 8089   0.999   1.083   2.918 -0.2700  1.9164 -1.5608
    1PC     C35 8090   1.187   1.084   2.747 -0.2797  0.2220  0.1904
    1PC     H5A 8091   1.166   1.190   2.735 -1.3347 -0.0077 -0.1735
    1PC     H5B 8092   1.102   1.025   2.710  0.4787 -0.9502  0.2714
    1PC     H5C 8093   1.275   1.050   2.693 -1.6806 -1.4246 -1.2019
    1PC     O33 8094   1.659   1.034   3.020  0.0491 -0.5013 -0.8269
    1PC     O34 8095   1.593   0.791   3.054  0.3313 -0.4042 -0.5577
    1PC     O21 8096   1.593   0.791   3.584 -0.1362 -0.1661 -0.2701
    1PC     C21 8097   1.673   0.688   3.610  0.3041 -0.2793  0.1876
    1PC     O22 8098   1.774   0.662   3.548 -0.2577 -0.2986  0.0636
    1OL     C12 8099   1.625   0.597   3.724 -0.8022 -0.0441 -0.3571
    1OL     H2R 8100   1.706   0.530   3.753  0.0216  0.6299 -1.0752
    1OL     H2S 8101   1.539   0.538   3.691 -1.0538  0.1523 -0.0726
    1OL     C13 8102   1.579   0.684   3.844 -0.2017  0.0959 -0.8334
    1OL     H3R 8103   1.520   0.615   3.904 -1.2965  1.1611 -0.6606
    1OL     H3S 8104   1.520   0.769   3.809 -0.9736 -0.0898 -0.0102
    1OL     C14 8105   1.703   0.738   3.925  1.0377  0.8155  1.2914
    1OL     H4R 8106   1.780   0.777   3.858  2.0165 -2.1862  0.5117
    1OL     H4S 8107   1.734   0.649   3.980 -1.6339  0.2209  1.9580
    1OL     C15 8108   1.660   0.835   4.026  0.4986 -0.6645  0.0713
    1OL     H5R 8109   1.577   0.793   4.084  0.0848 -0.0832 -0.0923
    1OL     H5S 8110   1.633   0.924   3.969  1.5386  1.1846  2.3357
    1OL     C16 8111   1.784   0.870   4.110  0.2472 -0.8852 -0.0160
    1OL     H6R 8112   1.852   0.942   4.064 -2.2478  0.9798 -1.0224
    1OL     H6S 8113   1.835   0.782   4.149 -1.4561 -0.1547  4.5919
    1OL     C17 8114   1.745   0.937   4.241 -0.2918 -0.6606  0.3305
    1OL     H7R 8115   1.695   0.861   4.302 -0.7136  0.2770  1.1867
    1OL     H7S 8116   1.674   1.018   4.229 -1.6708 -1.4572  2.4152
    1OL     C18 8117   1.869   0.979   4.329  0.0231  0.4691  0.0505
    1OL     H8R 8118   1.833   1.037   4.414 -2.6519 -4.1107  2.4476
    1OL     H8S 8119   1.931   1.049   4.273  1.2184 -0.4471  0.1920
    1OL     C19 8120   1.939   0.853   4.370 -0.5270 -0.2991 -0.3534
    1OL     H9R 8121   1.997   0.812   4.288  0.8724  0.2290  0.3464
    1OL    C110 8122   1.967   0.817   4.492  0.1103  0.0595 -1.0211
    1OL    H10R 8123   2.033   0.732   4.510  0.1976  0.4768  0.8227
    1OL    C111 8124   1.895   0.869   4.618  0.2104  0.5001 -0.2930
    1OL    H11R 8125   1.793   0.896   4.590  0.6888  2.4226 -0.3154
    1OL    H11S 8126   1.933   0.964   4.657  0.1381  1.6019 -2.7678
    1OL    C112 8127   1.900   0.758   4.730 -0.2399 -0.6870 -0.2313
    1OL    H12R 8128   2.004   0.757   4.761  0.1096  0.0822 -1.3088
    1OL    H12S 8129   1.868   0.660   4.693 -0.9914 -0.5368  0.0028
    1OL    C113 8130   1.803   0.806   4.837 -0.2430 -0.0677 -0.9510
    1OL    H13R 8131   1.830   0.904   4.878 -0.8769 -0.4147  0.3378
    1OL    H13S 8132   1.809   0.745   4.928  0.0207  0.7200 -0.4324
    1OL    C114 8133   1.655   0.807   4.804  0.4926  1.0834 -0.0111
    1OL    H14R 8134   1.639   0.887   4.732  2.6819 -0.2095 -2.1006
    1OL    H14S 8135   1.611   0.839   4.899  4.2138  2.0554  1.5789
    1OL    C115 8136   1.605   0.664   4.764 -0.3223 -0.4331  0.0928
    1OL    H15R 8137   1.644   0.584   4.828  0.1647 -0.9680 -0.8504
    1OL    H15S 8138   1.635   0.634   4.663 -1.6025 -1.3389 -0.0454
    1OL    C116 8139   1.448   0.659   4.761 -0.0662 -0.1215  0.4585
    1OL    H16R 8140   1.423   0.738   4.689 -1.5644 -0.5790  0.4454
    1OL    H16S 8141   1.405   0.678   4.859 -1.5852 -0.1116 -0.1791
    1OL    C117 8142   1.401   0.529   4.696  0.4636 -0.0240 -0.9399
    1OL    H17R 8143   1.434   0.445   4.758  1.4322  0.7276 -0.4086
    1OL    H17S 8144   1.448   0.520   4.598 -1.0722 -0.4452 -1.6722
    1OL    C118 8145   1.245   0.534   4.681 -0.2163 -0.4465  0.3393
    1OL    H18R 8146   1.218   0.430   4.660 -1.3915  0.1723 -1.5383
    1OL    H18S 8147   1.196   0.599   4.607 -0.5539  1.9951  2.5646
    1OL    H18T 8148   1.184   0.554   4.769  0.4083 -0.0708  0.6863
    1PA    C116 8149   1.854   4.069   4.817  0.0980  0.3619 -0.2980
    1PA    H16R 8150   1.845   4.175   4.790 -0.5483 -0.0045 -1.5924
    1PA    H16S 8151   1.859   4.050   4.925 -0.1328 -2.4377 -0.7085
    1PA    H16T 8152   1.760   4.024   4.785 -1.0600  2.4783 -0.0853
    1PA    C115 8153   1.978   4.008   4.759  0.6247 -0.3339 -0.1898
    1PA    H15R 8154   1.967   4.022   4.651 -0.6516 -0.0069 -0.0333
    1PA    H15S 8155   2.061   4.070   4.794 -1.5145  1.8134  1.3422
    1PA    C114 8156   2.008   3.861   4.788 -0.3469 -0.5908  0.0369
    1PA    H14R 8157   2.057   3.859   4.886  0.2872  1.7886 -0.1784
    1PA    H14S 8158   1.912   3.813   4.804 -2.4613  3.4699  0.7024
    1PA    C113 8159   2.088   3.779   4.681 -0.2924  0.3279  0.6929
    1PA    H13R 8160   2.186   3.822   4.663 -0.5296  2.0978  3.1801
    1PA    H13S 8161   2.093   3.678   4.721 -0.2665 -0.2001 -0.5886
    1PA    C112 8162   2.016   3.765   4.546  0.1910 -0.2996 -0.7038
    1PA    H12R 8163   1.917   3.721   4.557  1.0825 -2.3638 -0.4370
    1PA    H12S 8164   2.005   3.863   4.499 -1.8132 -0.0063  0.2621
    1PA    C111 8165   2.089   3.668   4.444  0.7213 -0.8219 -0.0088
    1PA    H11R 8166   2.187   3.709   4.422 -0.0865  0.9502 -0.4546
    1PA    H11S 8167   2.103   3.564   4.474 -0.3529 -1.2491 -0.8927
    1PA    C110 8168   2.014   3.664   4.309  0.7653  0.2030  0.0662
    1PA    H10R 8169   1.919   3.609   4.312 -1.5002  3.4277 -3.3053
    1PA    H10S 8170   1.993   3.767   4.282  0.5113  0.1877  0.2034
    1PA     C19 8171   2.115   3.614   4.201  0.3687  0.1821  0.0310
    1PA     H9R 8172   2.195   3.679   4.166 -0.1052 -0.6778 -2.8832
    1PA     H9S 8173   2.160   3.521   4.238  0.9153  0.0990 -0.8199
    1PA     C18 8174   2.035   3.589   4.072  0.1079 -0.2479 -0.3613
    1PA     H8R 8175   1.966   3.505   4.086  2.3135 -1.7666  2.3163
    1PA     H8S 8176   1.966   3.671   4.050 -1.2950 -1.5288 -0.9024
    1PA     C17 8177   2.128   3.574   3.954 -0.4150  0.0420  0.3713
    1PA     H7R 8178   2.190   3.664   3.960 -1.0450  0.6466 -1.4481
    1PA     H7S 8179   2.200   3.492   3.966 -0.1505  0.0329 -1.0373
    1PA     C16 8180   2.067   3.572   3.811 -0.5753  0.6998 -0.5643
    1PA     H6R 8181   2.007   3.483   3.789 -1.9445  1.6181 -0.7126
    1PA     H6S 8182   2.006   3.661   3.793  0.4198  1.4587 -0.2666
    1PA     C15 8183   2.187   3.559   3.714 -0.1433 -0.5503 -0.5144
    1PA     H5R 8184   2.261   3.635   3.739 -0.8165 -0.3671  1.0735
    1PA     H5S 8185   2.228   3.459   3.729 -2.0789 -1.7525 -2.6579
    1PA     C14 8186   2.149   3.570   3.565  0.2013  0.0053 -0.3154
    1PA     H4R 8187   2.090   3.484   3.531  0.0265 -0.0873  0.2255
    1PA     H4S 8188   2.095   3.663   3.546 -0.4262 -0.5860 -1.5973
    1PA     C13 8189   2.273   3.599   3.470  0.8115 -0.1165  0.3778
    1PA     H3R 8190   2.243   3.603   3.365  2.6901  1.7614 -0.1549
    1PA     H3S 8191   2.323   3.691   3.498 -1.1224  0.2781  2.9055
    1PA     C12 8192   2.384   3.498   3.493  0.5711  0.4792  0.2825
    1PA     H2R 8193   2.424   3.517   3.593 -0.7096  1.5192  0.6267
    1PA     H2S 8194   2.352   3.394   3.498  0.1428  0.6261  0.6463
    1PC     C11 8195   2.492   3.509   3.396  0.0401 -0.2712 -0.2209
    1PC     O12 8196   2.481   3.558   3.288 -0.1025 -0.1343  0.2446
    1PC     O11 8197   2.601   3.456   3.439  0.0849 -1.1128 -0.0771
    1PC      C1 8198   2.722   3.476   3.370  0.0146  0.7185  0.2668
    1PC      HR 8199   2.793   3.411   3.422 -0.5376 -1.0150 -1.0504
    1PC      HS 8200   2.710   3.449   3.265 -0.0025 -0.6364  0.5905
    1PC      C2 8201   2.770   3.617   3.400 -0.4493 -0.3139  0.2959
    1PC      HX 8202   2.706   3.692   3.352 -1.2361 -0.4557  1.1034
    1PC      C3 8203   2.910   3.646   3.343 -0.1960 -0.3052 -0.6422
    1PC      HA 8204   2.905   3.648   3.233  1.7681  1.1213 -0.7577
    1PC      HB 8205   2.931   3.743   3.388 -0.6753 -0.7857  0.6638
    1PC     O31 8206   3.005   3.550   3.389 -0.3489  0.0920  0.6342
    1PC     P31 8207   3.066   3.423   3.310  0.1435  0.1072 -0.1703
    1PC     O32 8208   3.219   3.460   3.280  0.7130  0.0388 -0.1259
    1PC     C31 8209   3.312   3.490   3.385  0.3673 -0.2302  0.4184
    1PC     H1A 8210   3.266   3.563   3.452  1.0437 -0.1436  0.7874
    1PC     H1B 8211   3.327   3.393   3.434  0.0325 -0.9787 -0.8922
    1PC     C32 8212   3.437   3.544   3.305  0.3073 -0.1921  0.3548
    1PC     H2A 8213   3.484   3.465   3.245  0.6296 -1.1677  1.8520
    1PC     H2B 8214   3.409   3.625   3.237 -0.3963  0.2606  1.1655
    1PC     N31 8215   3.547   3.601   3.385  0.0935 -0.1237  0.7614
    1PC     C33 8216   3.512   3.691   3.492 -0.3969 -0.1519  0.5094
    1PC     H3A 8217   3.474   3.787   3.457 -0.1383 -0.0193  0.5964
    1PC     H3B 8218   3.441   3.652   3.566 -1.1881  1.0259  0.4045
    1PC     H3C 8219   3.605   3.714   3.543 -0.6471 -0.8789  1.3340
    1PC     C34 8220   3.614   3.476   3.438  0.1183 -0.9708  0.1787
    1PC     H4A 8221   3.539   3.417   3.491 -0.3457 -1.0232 -0.5130
    1PC     H4B 8222   3.651   3.410   3.360 -1.7112 -0.6211 -1.0738
    1PC     H4C 8223   3.702   3.498   3.498  1.3648 -3.2938 -0.7048
    1PC     C35 8224   3.639   3.668   3.289  0.0474 -0.3260  0.0376
    1PC     H5A 8225   3.594   3.753   3.238 -3.1292 -1.3743  0.8468
    1PC     H5B 8226   3.669   3.596   3.212 -0.3601 -0.3041 -0.1442
    1PC     H5C 8227   3.733   3.695   3.337  2.0022  0.2032 -3.6724
    1PC     O33 8228   3.066   3.316   3.416  0.5504  0.4301 -0.0676
    1PC     O34 8229   2.989   3.404   3.188 -0.0674  0.3829 -0.1605
    1PC     O21 8230   2.779   3.640   3.542 -0.0452 -0.1313  0.1810
    1PC     C21 8231   2.684   3.706   3.604 -0.0242 -0.0599  0.1700
    1PC     O22 8232   2.579   3.743   3.550 -0.2642  0.2675  0.0282
    1OL     C12 8233   2.720   3.738   3.747  0.3109 -0.3059  0.4460
    1OL     H2R 8234   2.800   3.812   3.747 -1.7738  2.0905  0.7034
    1OL     H2S 8235   2.753   3.651   3.803  1.4393  1.0606  2.0051
    1OL     C13 8236   2.602   3.791   3.836  0.1760  0.4050  0.9254
    1OL     H3R 8237   2.533   3.706   3.835  2.0662 -1.1941  0.4842
    1OL     H3S 8238   2.560   3.880   3.788 -0.4330 -1.2341 -1.8204
    1OL     C14 8239   2.650   3.823   3.981 -0.3772  0.0479  0.1002
    1OL     H4R 8240   2.719   3.907   3.984 -0.6905  0.3165 -0.2398
    1OL     H4S 8241   2.691   3.738   4.036 -0.4153 -1.5827 -2.2366
    1OL     C15 8242   2.524   3.857   4.064  0.5114  0.6748 -0.5705
    1OL     H5R 8243   2.450   3.777   4.054  1.8090 -0.5410 -0.8607
    1OL     H5S 8244   2.488   3.948   4.017  1.8001  0.7345 -1.4975
    1OL     C16 8245   2.533   3.883   4.212 -0.3073  0.7025 -0.3050
    1OL     H6R 8246   2.597   3.968   4.239 -0.5128  0.4964  0.8814
    1OL     H6S 8247   2.576   3.794   4.257 -2.2828  0.0615  0.4041
    1OL     C17 8248   2.396   3.896   4.278 -0.0828  0.3281  0.6190
    1OL     H7R 8249   2.398   3.903   4.387 -3.1446 -0.5107  0.8104
    1OL     H7S 8250   2.343   3.801   4.267 -2.1378  1.2483  2.0591
    1OL     C18 8251   2.290   3.994   4.214 -0.0850  1.0044  0.5165
    1OL     H8R 8252   2.263   3.961   4.114  1.4719 -0.7021  0.6027
    1OL     H8S 8253   2.333   4.094   4.205  0.6414  0.5225 -2.3290
    1OL     C19 8254   2.162   3.996   4.303  0.5386 -0.0054 -0.3543
    1OL     H9R 8255   2.125   3.896   4.323 -1.2789  0.7165  0.0294
    1OL    C110 8256   2.111   4.101   4.364  0.2387 -0.2842  0.0895
    1OL    H10R 8257   2.030   4.079   4.433  0.0544 -3.9774 -1.0987
    1OL    C111 8258   2.151   4.241   4.343 -0.6494 -0.1922 -0.7067
    1OL    H11R 8259   2.061   4.303   4.336 -1.3727 -1.0554  0.5618
    1OL    H11S 8260   2.202   4.247   4.247  2.2360 -0.1141  0.7353
    1OL    C112 8261   2.241   4.286   4.464 -0.1796  0.0515  0.4421
    1OL    H12R 8262   2.233   4.395   4.471  2.1927  0.2112  1.5355
    1OL    H12S 8263   2.348   4.279   4.442 -0.1771  1.4510 -0.1225
    1OL    C113 8264   2.215   4.220   4.604  0.4223 -0.2017  0.2926
    1OL    H13R 8265   2.232   4.113   4.596 -2.5319 -0.6509 -2.1187
    1OL    H13S 8266   2.110   4.234   4.633  0.7542  1.6835  0.7541
    1OL    C114 8267   2.312   4.280   4.708  0.1940 -0.4686  0.0023
    1OL    H14R 8268   2.292   4.387   4.714  0.8163 -0.2415 -1.4523
    1OL    H14S 8269   2.412   4.267   4.667  0.2628 -0.7811  0.2632
    1OL    C115 8270   2.310   4.226   4.852  0.4105 -0.5009 -0.2068
    1OL    H15R 8271   2.211   4.188   4.878  0.8377 -1.1228  0.5712
    1OL    H15S 8272   2.321   4.315   4.915 -2.3881 -1.2128  1.4577
    1OL    C116 8273   2.421   4.121   4.878 -0.6354 -0.7175  0.0482
    1OL    H16R 8274   2.524   4.154   4.861  0.2499 -1.5570  3.1536
    1OL    H16S 8275   2.406   4.053   4.793 -1.5269 -0.9987  0.4212
    1OL    C117 8276   2.416   4.047   5.011 -0.4401  0.4842  0.0208
    1OL    H17R 8277   2.455   4.107   5.093  1.2669  2.0830 -1.8354
    1OL    H17S 8278   2.496   3.973   5.016  0.0500  1.0913  2.6091
    1OL    C118 8279   2.285   3.976   5.047 -0.1551  0.6401 -0.5255
    1OL    H18R 8280   2.264   3.969   5.154 -0.1249 -0.5710 -0.5796
    1OL    H18S 8281   2.295   3.871   5.017  1.2008  0.2506  1.1032
    1OL    H18T 8282   2.200   4.025   5.001 -1.6648 -0.5825  0.8194
    1PA    C116 8283   5.237   0.458   4.999  0.4885 -0.6570 -0.7197
    1PA    H16R 8284   5.191   0.530   5.065  0.4786 -0.6440 -0.7403
    1PA    H16S 8285   5.342   0.443   5.027  0.7532  0.7018 -0.9214
    1PA    H16T 8286   5.172   0.373   5.019 -1.9879  1.4157  0.5941
    1PA    C115 8287   5.230   0.500   4.848 -0.5132  0.2729 -0.7348
    1PA    H15R 8288   5.275   0.599   4.835  2.6417 -0.8584  0.5786
    1PA    H15S 8289   5.283   0.420   4.798 -2.3410 -0.4474 -1.6160
    1PA    C114 8290   5.089   0.489   4.800  0.2132  0.5386  0.6149
    1PA    H14R 8291   5.054   0.391   4.832 -0.0095 -0.5140 -2.4932
    1PA    H14S 8292   5.026   0.567   4.845 -1.1338 -0.5858  0.7514
    1PA    C113 8293   5.081   0.514   4.647 -0.3968  0.5632  0.4587
    1PA    H13R 8294   5.138   0.604   4.626  1.8924 -0.5544  1.5701
    1PA    H13S 8295   5.136   0.441   4.588  0.9427  1.1485  0.9389
    1PA    C112 8296   4.932   0.528   4.605 -0.2876  0.4091  0.5285
    1PA    H12R 8297   4.880   0.432   4.600  0.8842 -0.2439  0.3274
    1PA    H12S 8298   4.877   0.589   4.677  0.0702  1.3728  0.0086
    1PA    C111 8299   4.905   0.593   4.467 -0.0800 -0.1934 -0.1032
    1PA    H11R 8300   4.798   0.588   4.447 -0.0574  1.0353 -0.5995
    1PA    H11S 8301   4.932   0.699   4.470  1.3382 -0.4569 -1.9745
    1PA    C110 8302   4.976   0.527   4.346  0.1854  0.2403 -0.1270
    1PA    H10R 8303   5.083   0.536   4.364  0.1749 -0.7745  0.5571
    1PA    H10S 8304   4.947   0.422   4.338  2.9090 -0.5244 -0.9966
    1PA     C19 8305   4.933   0.604   4.221 -0.0412  0.0416  0.2814
    1PA     H9R 8306   4.825   0.594   4.210 -0.2991  1.7595  0.8697
    1PA     H9S 8307   4.950   0.710   4.244 -2.7942  0.5533  0.3178
    1PA     C18 8308   5.003   0.560   4.098 -0.2319  0.1007  0.8219
    1PA     H8R 8309   4.965   0.612   4.009 -1.2508  1.5729  2.0666
    1PA     H8S 8310   5.108   0.590   4.099 -0.3401  0.6131 -0.5367
    1PA     C17 8311   5.000   0.410   4.075  0.4522 -0.0171 -0.0101
    1PA     H7R 8312   5.035   0.362   4.167 -4.0437  1.4404  2.7541
    1PA     H7S 8313   4.898   0.373   4.064 -0.3190  1.3128  2.2139
    1PA     C16 8314   5.088   0.375   3.958 -0.1837  0.2518  0.7029
    1PA     H6R 8315   5.066   0.430   3.866  0.7190  1.2576  1.0546
    1PA     H6S 8316   5.183   0.419   3.990 -0.1948  1.8537 -1.1970
    1PA     C15 8317   5.095   0.224   3.944 -0.1768  0.1879  0.4640
    1PA     H5R 8318   5.106   0.180   4.043 -0.0197 -0.6517  0.0796
    1PA     H5S 8319   5.002   0.179   3.910  0.0767  0.2851 -0.3746
    1PA     C14 8320   5.203   0.171   3.848 -0.1599 -0.1555 -0.2021
    1PA     H4R 8321   5.295   0.160   3.905 -0.5571  0.4976  0.5814
    1PA     H4S 8322   5.172   0.067   3.832 -0.4469  0.0731 -1.1670
    1PA     C13 8323   5.210   0.239   3.712 -0.5862  0.3129  0.3860
    1PA     H3R 8324   5.230   0.346   3.720 -1.4289  0.6050 -1.0479
    1PA     H3S 8325   5.294   0.190   3.662 -0.9774 -1.4413  1.3836
    1PA     C12 8326   5.087   0.221   3.623 -0.0150 -0.2074 -0.0314
    1PA     H2R 8327   5.068   0.116   3.599  3.1540 -0.9889  0.4480
    1PA     H2S 8328   4.997   0.259   3.671  0.1306 -0.6088  0.5650
    1PC     C11 8329   5.105   0.287   3.485  0.3818  0.3413  0.3660
    1PC     O12 8330   5.208   0.271   3.418  0.0893  0.2899  0.1047
    1PC     O11 8331   5.005   0.356   3.441 -0.3716 -0.3208 -0.1801
    1PC      C1 8332   5.027   0.437   3.322 -0.5142 -0.3522 -0.0765
    1PC      HR 8333   5.130   0.472   3.326 -0.4423 -0.6653  1.0576
    1PC      HS 8334   5.015   0.378   3.231  0.1160 -1.6195  0.6440
    1PC      C2 8335   4.935   0.558   3.324 -0.3846  0.8598 -0.0128
    1PC      HX 8336   4.829   0.530   3.329 -0.1532  0.1737  2.0523
    1PC      C3 8337   4.963   0.656   3.207  0.0237 -1.1610  0.3408
    1PC      HA 8338   4.902   0.746   3.208  0.3318 -0.9463 -0.3103
    1PC      HB 8339   5.070   0.676   3.201 -0.3178  0.3720 -1.1020
    1PC     O31 8340   4.931   0.577   3.088  0.3612 -0.8433  0.0164
    1PC     P31 8341   4.972   0.631   2.944  0.4522  0.5561  0.1500
    1PC     O32 8342   4.887   0.766   2.921 -0.1296  0.6234 -0.3973
    1PC     C31 8343   4.753   0.760   2.868 -0.4644 -0.5683 -0.2835
    1PC     H1A 8344   4.735   0.855   2.816 -1.0156  0.0263  0.9590
    1PC     H1B 8345   4.746   0.674   2.800 -1.5295 -1.9127  1.4427
    1PC     C32 8346   4.635   0.738   2.975  0.3969  0.6489 -0.0285
    1PC     H2A 8347   4.650   0.645   3.031 -1.2173  0.8081  0.7155
    1PC     H2B 8348   4.642   0.820   3.047  1.0439  0.8240 -0.2752
    1PC     N31 8349   4.491   0.732   2.915  0.3657 -0.2002 -0.3002
    1PC     C33 8350   4.478   0.625   2.818  0.3157 -0.1625  0.1169
    1PC     H3A 8351   4.541   0.544   2.857 -1.5693 -0.8304  1.9114
    1PC     H3B 8352   4.372   0.602   2.806  0.0505  0.7200  0.6566
    1PC     H3C 8353   4.531   0.661   2.730  1.6763 -2.2438  0.0064
    1PC     C34 8354   4.398   0.707   3.023  0.1192  0.0191 -0.0103
    1PC     H4A 8355   4.409   0.601   3.044  0.6465 -0.1938 -1.2671
    1PC     H4B 8356   4.409   0.774   3.108 -3.4253 -1.2647  1.6080
    1PC     H4C 8357   4.297   0.721   2.985 -0.0557  1.1332  0.8327
    1PC     C35 8358   4.451   0.865   2.855 -1.0762  0.4169  0.7242
    1PC     H5A 8359   4.353   0.834   2.818  0.1828 -0.9787 -1.7390
    1PC     H5B 8360   4.521   0.888   2.775 -0.8231  0.4097  0.9442
    1PC     H5C 8361   4.456   0.935   2.938  1.5580 -0.0221  1.0231
    1PC     O33 8362   5.113   0.661   2.940 -0.9500  0.6464 -0.3642
    1PC     O34 8363   4.922   0.527   2.856  0.4422 -0.4396 -0.1558
    1PC     O21 8364   4.973   0.629   3.446 -0.2642  0.4862  0.2117
    1PC     C21 8365   4.886   0.723   3.504 -0.2005 -0.4824 -0.4056
    1PC     O22 8366   4.785   0.762   3.445  0.0055 -0.1587 -0.2914
    1OL     C12 8367   4.925   0.765   3.645  0.1653 -0.2140 -0.0029
    1OL     H2R 8368   4.989   0.853   3.651 -2.2297  1.5885  0.5446
    1OL     H2S 8369   4.974   0.681   3.694 -1.5993  0.5814  3.4212
    1OL     C13 8370   4.796   0.803   3.720  0.2375  0.3113 -0.1921
    1OL     H3R 8371   4.718   0.737   3.682  0.8580 -0.0406 -0.8726
    1OL     H3S 8372   4.768   0.906   3.697  0.0426  0.7237  1.7232
    1OL     C14 8373   4.802   0.781   3.873  0.5094 -0.2560 -0.5310
    1OL     H4R 8374   4.889   0.833   3.914 -0.6253  1.7246 -0.4996
    1OL     H4S 8375   4.807   0.673   3.889 -0.2554 -0.1473  0.5664
    1OL     C15 8376   4.679   0.839   3.949  1.0466  0.1047  0.5868
    1OL     H5R 8377   4.686   0.800   4.051 -1.9305  0.9362  1.2050
    1OL     H5S 8378   4.595   0.792   3.898  2.4924 -1.7628 -0.2282
    1OL     C16 8379   4.671   0.984   3.960  0.6549 -0.5958  0.1720
    1OL     H6R 8380   4.633   1.032   3.870  0.0455  0.1282  0.8066
    1OL     H6S 8381   4.773   1.022   3.972 -0.0614  1.0434  1.3710
    1OL     C17 8382   4.577   1.018   4.079  0.0050  0.1615  0.1817
    1OL     H7R 8383   4.597   0.956   4.166  0.5408  0.1487  0.0518
    1OL     H7S 8384   4.473   1.000   4.051 -0.0138  1.4152 -0.6503
    1OL     C18 8385   4.595   1.167   4.118 -1.0808 -0.0500  0.0694
    1OL     H8R 8386   4.567   1.233   4.036 -2.8872 -0.5922  0.2142
    1OL     H8S 8387   4.701   1.185   4.141 -0.9185  2.4153 -2.2276
    1OL     C19 8388   4.502   1.195   4.233  0.6787 -0.3450  0.2284
    1OL     H9R 8389   4.404   1.224   4.196  0.3674  0.1727  1.4010
    1OL    C110 8390   4.535   1.185   4.364 -0.7459 -0.9284  0.3203
    1OL    H10R 8391   4.464   1.213   4.441 -0.5782 -2.3242  1.0176
    1OL    C111 8392   4.665   1.149   4.425 -0.8068  0.2204 -0.7259
    1OL    H11R 8393   4.690   1.220   4.504 -1.2463 -0.7954  0.3576
    1OL    H11S 8394   4.746   1.145   4.352 -2.8846  0.2515 -3.1724
    1OL    C112 8395   4.663   1.017   4.500  0.1738 -0.1153  1.6757
    1OL    H12R 8396   4.605   0.941   4.447 -1.3604 -0.2609  3.4688
    1OL    H12S 8397   4.606   1.026   4.593 -1.3829  0.0465  0.7246
    1OL    C113 8398   4.799   0.956   4.525  0.6581 -0.4266  0.6562
    1OL    H13R 8399   4.850   0.930   4.432 -0.2502  1.2162 -0.3404
    1OL    H13S 8400   4.800   0.866   4.586 -0.6168  0.6033  2.2832
    1OL    C114 8401   4.889   1.058   4.589 -0.3421 -0.2708  0.2065
    1OL    H14R 8402   4.853   1.089   4.687  2.7837 -2.1262  2.1189
    1OL    H14S 8403   4.887   1.148   4.527 -0.1234 -0.3272  0.1148
    1OL    C115 8404   5.031   1.006   4.620  0.8071 -0.1183  0.1117
    1OL    H15R 8405   5.023   0.918   4.684  1.1637 -0.3377 -0.1447
    1OL    H15S 8406   5.073   1.084   4.684 -0.8502  0.3861  0.6328
    1OL    C116 8407   5.125   0.988   4.499 -0.3937 -0.2376  0.5608
    1OL    H16R 8408   5.130   1.067   4.425  0.3514 -2.3338 -1.7695
    1OL    H16S 8409   5.095   0.906   4.434  0.3113 -1.7184  2.0266
    1OL    C117 8410   5.269   0.958   4.544  0.2602 -0.7198  0.2861
    1OL    H17R 8411   5.269   0.887   4.627 -0.5154 -2.5067 -1.1785
    1OL    H17S 8412   5.314   1.053   4.574  0.3099 -0.0853 -1.7075
    1OL    C118 8413   5.351   0.901   4.432  0.5525 -0.2839  0.9325
    1OL    H18R 8414   5.454   0.881   4.463  1.1940 -1.8618 -1.8368
    1OL    H18S 8415   5.361   0.961   4.341  2.9714 -1.5899  0.2389
    1OL    H18T 8416   5.309   0.804   4.402  0.7468  0.6610 -2.9960
    1PA    C116 8417   4.747   0.201   4.935 -0.4511  0.3031  0.0941
    1PA    H16R 8418   4.825   0.276   4.918  0.4046 -1.1979 -3.6285
    1PA    H16S 8419   4.744   0.182   5.042  2.4052  0.9990  0.3589
    1PA    H16T 8420   4.656   0.253   4.903  1.3274  2.0371 -2.6266
    1PA    C115 8421   4.771   0.079   4.840 -0.3156 -0.3342 -0.1192
    1PA    H15R 8422   4.845   0.007   4.877 -2.2085 -2.5844 -0.4568
    1PA    H15S 8423   4.680   0.019   4.837 -1.3587  1.2161 -0.6949
    1PA    C114 8424   4.797   0.126   4.696 -0.2299 -0.3997  0.0840
    1PA    H14R 8425   4.728   0.209   4.680 -0.9449 -1.1321 -0.7138
    1PA    H14S 8426   4.898   0.169   4.700  0.1592 -1.3779  1.9183
    1PA    C113 8427   4.796   0.025   4.586  0.2513 -0.5930 -0.1365
    1PA    H13R 8428   4.875  -0.049   4.599  1.1264  0.4489  0.5567
    1PA    H13S 8429   4.699  -0.022   4.568  0.5111 -0.3803 -2.2607
    1PA    C112 8430   4.831   0.099   4.462 -0.1273 -0.2146  0.2709
    1PA    H12R 8431   4.770   0.190   4.462  0.0696 -0.0797  0.5399
    1PA    H12S 8432   4.937   0.126   4.468 -0.0698 -0.1691 -0.8021
    1PA    C111 8433   4.792   0.024   4.333 -0.1292 -0.2960 -0.4651
    1PA    H11R 8434   4.849  -0.067   4.315 -0.3212 -0.5986  0.4130
    1PA    H11S 8435   4.690  -0.015   4.340 -0.3294 -0.3858 -2.9448
    1PA    C110 8436   4.784   0.119   4.210 -0.1843 -0.5278  0.6751
    1PA    H10R 8437   4.722   0.206   4.231  2.8354  1.4321  2.2051
    1PA    H10S 8438   4.887   0.154   4.202 -0.1512 -0.0750  2.4891
    1PA     C19 8439   4.744   0.037   4.082  0.0971 -0.7970  0.6251
    1PA     H9R 8440   4.822  -0.039   4.075  1.2595 -0.1310  4.2725
    1PA     H9S 8441   4.652  -0.017   4.106 -1.5507  1.0219 -1.2253
    1PA     C18 8442   4.718   0.118   3.951  0.0063 -0.1866 -0.7262
    1PA     H8R 8443   4.631   0.183   3.963  0.5248  1.3022 -4.0675
    1PA     H8S 8444   4.802   0.181   3.920 -1.5117  1.9658 -0.7293
    1PA     C17 8445   4.696   0.021   3.838  0.2474  0.5377 -0.2390
    1PA     H7R 8446   4.629  -0.057   3.873  0.3873  0.3004 -0.4959
    1PA     H7S 8447   4.642   0.074   3.759 -0.2520  2.7231  1.4492
    1PA     C16 8448   4.824  -0.044   3.794 -0.2778 -0.6741  0.3521
    1PA     H6R 8449   4.903   0.031   3.793 -0.8891 -0.0095  0.9328
    1PA     H6S 8450   4.847  -0.117   3.873 -0.9343 -0.6451  0.5752
    1PA     C15 8451   4.798  -0.114   3.661 -1.0692  0.5373  0.4559
    1PA     H5R 8452   4.710  -0.176   3.677 -0.2365 -1.3073 -1.6827
    1PA     H5S 8453   4.786  -0.042   3.580  0.5714 -1.2280 -1.4740
    1PA     C14 8454   4.917  -0.202   3.626  0.1265  0.6237  0.2684
    1PA     H4R 8455   5.008  -0.144   3.609  0.9452 -0.6797  0.0172
    1PA     H4S 8456   4.941  -0.275   3.705  1.9165  0.6121 -0.2347
    1PA     C13 8457   4.891  -0.298   3.511 -0.3269 -1.0996 -0.1544
    1PA     H3R 8458   4.813  -0.373   3.523 -0.5165 -1.1269 -1.3665
    1PA     H3S 8459   4.861  -0.230   3.430 -0.5292 -0.1171  0.7147
    1PA     C12 8460   5.028  -0.348   3.463  0.3599  0.3114 -0.0837
    1PA     H2R 8461   5.085  -0.268   3.415  3.3722 -1.1528  0.7570
    1PA     H2S 8462   5.088  -0.377   3.550  0.4214 -1.1072 -0.5830
    1PC     C11 8463   5.011  -0.459   3.362  0.2269 -0.0070 -0.3676
    1PC     O12 8464   4.904  -0.481   3.308 -0.5995 -0.1249  0.6453
    1PC     O11 8465   5.121  -0.537   3.342 -0.3798 -0.5637 -0.1130
    1PC      C1 8466   5.102  -0.641   3.239 -0.7169  0.3815 -0.0464
    1PC      HR 8467   5.045  -0.727   3.274  1.9603 -1.4946  0.0378
    1PC      HS 8468   5.043  -0.599   3.157 -1.8260  1.1317  1.0983
    1PC      C2 8469   5.242  -0.688   3.182  0.2636  0.7563 -0.3429
    1PC      HX 8470   5.283  -0.611   3.116 -2.9883  3.0853  0.1231
    1PC      C3 8471   5.237  -0.821   3.101  0.1519 -0.3764  0.2477
    1PC      HA 8472   5.340  -0.857   3.099  0.4944  0.5748  0.4786
    1PC      HB 8473   5.182  -0.903   3.148  2.6696 -3.1311 -1.2696
    1PC     O31 8474   5.193  -0.784   2.964 -0.1504  0.0278  0.6833
    1PC     P31 8475   5.295  -0.702   2.861  0.2524 -0.0398  0.1622
    1PC     O32 8476   5.303  -0.789   2.733 -0.0497 -0.0005  0.1736
    1PC     C31 8477   5.189  -0.812   2.643 -0.0435  0.2577 -0.4976
    1PC     H1A 8478   5.194  -0.915   2.609  0.5194 -0.2783  1.1113
    1PC     H1B 8479   5.097  -0.811   2.703  0.2366 -1.0057 -0.0284
    1PC     C32 8480   5.178  -0.704   2.532  0.0956 -0.1279 -0.0558
    1PC     H2A 8481   5.087  -0.715   2.472 -0.1754  2.1430 -0.1357
    1PC     H2B 8482   5.167  -0.606   2.578  0.3620 -0.5776  0.9930
    1PC     N31 8483   5.297  -0.689   2.439  0.1041  0.0361  0.0098
    1PC     C33 8484   5.341  -0.817   2.373 -0.5465 -0.5573 -0.5496
    1PC     H3A 8485   5.251  -0.857   2.327 -1.1051 -1.3893  1.1924
    1PC     H3B 8486   5.412  -0.796   2.294  0.2169  2.0456  0.7129
    1PC     H3C 8487   5.379  -0.877   2.455 -1.1569 -1.7063 -1.0868
    1PC     C34 8488   5.242  -0.600   2.328  0.2353 -0.5957  0.0984
    1PC     H4A 8489   5.221  -0.502   2.370  0.7318 -0.4550  0.0335
    1PC     H4B 8490   5.317  -0.582   2.251  0.0168 -1.0348 -0.2204
    1PC     H4C 8491   5.153  -0.647   2.287 -1.0399 -0.5393  2.6410
    1PC     C35 8492   5.408  -0.617   2.507  0.2693 -0.2995 -0.8313
    1PC     H5A 8493   5.437  -0.690   2.584 -1.6395  0.3006  0.5452
    1PC     H5B 8494   5.363  -0.528   2.552 -0.5844 -1.4166  0.6402
    1PC     H5C 8495   5.489  -0.587   2.441  0.9920 -1.0128 -0.2831
    1PC     O33 8496   5.240  -0.572   2.823  0.2216  0.2460  0.0095
    1PC     O34 8497   5.431  -0.693   2.915 -0.3813 -0.0445  0.2197
    1PC     O21 8498   5.322  -0.714   3.296 -0.1924 -0.4191 -0.4085
    1PC     C21 8499   5.399  -0.619   3.354  0.6676 -0.4150  0.5375
    1PC     O22 8500   5.427  -0.514   3.303 -0.7642  0.1515  0.0422
    1OL     C12 8501   5.454  -0.660   3.489  0.5049  0.0344  0.2983
    1OL     H2R 8502   5.558  -0.628   3.495  0.2416  0.8577  0.5986
    1OL     H2S 8503   5.460  -0.769   3.497  0.1135 -0.0082  0.0600
    1OL     C13 8504   5.362  -0.616   3.606 -0.5883 -0.5309 -0.1673
    1OL     H3R 8505   5.363  -0.695   3.682 -1.8716 -0.9320 -0.5392
    1OL     H3S 8506   5.261  -0.591   3.573 -0.3889  1.3043  0.4812
    1OL     C14 8507   5.417  -0.485   3.666 -0.3419  0.0512 -0.9122
    1OL     H4R 8508   5.423  -0.412   3.586  1.4191 -0.3603 -1.1989
    1OL     H4S 8509   5.515  -0.502   3.711 -1.1781  0.5835  1.2745
    1OL     C15 8510   5.322  -0.432   3.779  0.1974  0.5772 -0.4193
    1OL     H5R 8511   5.337  -0.491   3.870 -0.1099  0.3056 -0.5416
    1OL     H5S 8512   5.215  -0.448   3.762  0.1460 -1.0405  1.1442
    1OL     C16 8513   5.348  -0.286   3.801  0.2705  0.0957 -0.0692
    1OL     H6R 8514   5.321  -0.230   3.711  2.5422  2.4172  0.5882
    1OL     H6S 8515   5.455  -0.286   3.820 -0.1090 -1.6253  2.4773
    1OL     C17 8516   5.287  -0.211   3.920  0.5656 -0.7849 -0.2398
    1OL     H7R 8517   5.335  -0.115   3.934  1.2392 -0.9271 -1.4583
    1OL     H7S 8518   5.303  -0.278   4.006  2.9786  0.5848  0.4569
    1OL     C18 8519   5.137  -0.197   3.901  0.3199 -0.3207 -0.1823
    1OL     H8R 8520   5.092  -0.296   3.884 -2.6549  0.8740  0.0587
    1OL     H8S 8521   5.119  -0.142   3.808  1.0519  0.3163  0.0481
    1OL     C19 8522   5.072  -0.124   4.021  0.3387  0.5640  0.8727
    1OL     H9R 8523   5.045  -0.020   4.003 -0.8467  0.1620  0.2796
    1OL    C110 8524   5.044  -0.170   4.143  0.0496  0.0023 -0.1397
    1OL    H10R 8525   5.002  -0.102   4.217  1.0010 -1.1072  1.5148
    1OL    C111 8526   5.055  -0.321   4.189  0.4520  0.0578 -0.0110
    1OL    H11R 8527   5.062  -0.400   4.115 -1.3402 -1.3709  1.2443
    1OL    H11S 8528   4.959  -0.348   4.232 -0.5018  0.2204 -1.9610
    1OL    C112 8529   5.161  -0.350   4.302  0.4373  0.5260  0.3157
    1OL    H12R 8530   5.262  -0.356   4.260 -0.4964 -1.4202 -1.8622
    1OL    H12S 8531   5.142  -0.453   4.331  1.3563 -0.3026 -1.7836
    1OL    C113 8532   5.159  -0.250   4.416 -0.1825  0.0153  0.1178
    1OL    H13R 8533   5.058  -0.240   4.457  0.0506 -0.2950  0.7804
    1OL    H13S 8534   5.168  -0.150   4.374 -4.2473  0.4454 -0.1739
    1OL    C114 8535   5.274  -0.258   4.520  0.0366 -0.3706 -0.5922
    1OL    H14R 8536   5.367  -0.293   4.474 -0.1608 -0.7110 -0.7404
    1OL    H14S 8537   5.252  -0.330   4.599 -1.8557 -0.9263 -1.5531
    1OL    C115 8538   5.306  -0.123   4.592 -0.0904  0.0201  0.3080
    1OL    H15R 8539   5.341  -0.046   4.523 -0.3403 -1.0878 -1.0997
    1OL    H15S 8540   5.382  -0.135   4.671 -1.3376  2.8685  2.1324
    1OL    C116 8541   5.176  -0.084   4.662 -0.1692 -0.8986 -0.2012
    1OL    H16R 8542   5.131  -0.165   4.719  2.1806 -0.3024  2.6699
    1OL    H16S 8543   5.108  -0.055   4.581  1.2968  1.9856 -0.5198
    1OL    C117 8544   5.189   0.042   4.752  0.5295  0.4183  0.5412
    1OL    H17R 8545   5.261   0.009   4.826  1.8653 -1.2380 -1.4008
    1OL    H17S 8546   5.094   0.042   4.807  0.6170  0.4466  0.6928
    1OL    C118 8547   5.214   0.180   4.695 -0.0064 -0.1887  0.6238
    1OL    H18R 8548   5.266   0.168   4.600 -0.3489  0.9230  0.2876
    1OL    H18S 8549   5.293   0.230   4.751  1.5463 -1.6013 -0.2107
    1OL    H18T 8550   5.121   0.237   4.684 -0.7389 -1.1993  1.3640
    1PA    C116 8551   0.278   0.701   4.884 -0.0063 -0.0263  0.3167
    1PA    H16R 8552   0.174   0.730   4.906 -0.2212  2.0705 -2.8707
    1PA    H16S 8553   0.343   0.754   4.954  2.8189 -1.0825 -1.3584
    1PA    H16T 8554   0.283   0.594   4.902 -0.6107 -0.0536  0.3510
    1PA    C115 8555   0.317   0.731   4.737 -0.5469  0.0346  0.3664
    1PA    H15R 8556   0.249   0.691   4.662  2.4913 -1.8734 -1.6266
    1PA    H15S 8557   0.329   0.837   4.714  3.7538 -0.4399 -0.3799
    1PA    C114 8558   0.458   0.662   4.717  0.0953  0.4836 -0.1649
    1PA    H14R 8559   0.533   0.704   4.784 -0.2475  1.7690 -0.5595
    1PA    H14S 8560   0.441   0.562   4.757 -1.3284  0.8129  0.1088
    1PA    C113 8561   0.501   0.647   4.570 -0.6337  0.6794  0.6879
    1PA    H13R 8562   0.557   0.554   4.556  1.0096  1.9163 -1.8032
    1PA    H13S 8563   0.412   0.635   4.509 -1.9711 -1.7849  2.9090
    1PA    C112 8564   0.594   0.766   4.518 -0.4401 -0.9822 -0.4334
    1PA    H12R 8565   0.542   0.860   4.500  1.4506  0.2278  0.0840
    1PA    H12S 8566   0.668   0.774   4.598 -0.6934  0.7230 -0.3313
    1PA    C111 8567   0.663   0.736   4.390  0.1290 -0.1237  0.1165
    1PA    H11R 8568   0.731   0.654   4.415  0.6327  0.7647  1.8186
    1PA    H11S 8569   0.595   0.690   4.318  1.1956  1.8430 -2.2844
    1PA    C110 8570   0.738   0.854   4.319  0.8674  0.6070 -0.6276
    1PA    H10R 8571   0.661   0.928   4.294 -1.3288 -1.5018 -0.5005
    1PA    H10S 8572   0.808   0.887   4.395 -0.8765 -2.3783  2.5625
    1PA     C19 8573   0.812   0.811   4.191  0.7907  0.8565  0.0034
    1PA     H9R 8574   0.884   0.733   4.215  0.1442 -0.6378 -2.5799
    1PA     H9S 8575   0.741   0.768   4.120 -0.3076  1.8496  0.4590
    1PA     C18 8576   0.881   0.919   4.112  0.1421 -0.6224 -0.3339
    1PA     H8R 8577   0.823   1.010   4.128 -0.0035 -1.0862  2.3373
    1PA     H8S 8578   0.977   0.936   4.161  0.1529  0.8820 -0.8174
    1PA     C17 8579   0.903   0.878   3.967 -0.6896 -0.3336 -0.0627
    1PA     H7R 8580   0.956   0.783   3.966 -0.1641 -0.0517  0.2223
    1PA     H7S 8581   0.803   0.869   3.925 -1.2985 -2.0667  1.6152
    1PA     C16 8582   1.003   0.972   3.882 -0.1472 -0.1265  0.0563
    1PA     H6R 8583   0.979   1.077   3.901  0.1097 -0.3052  1.5465
    1PA     H6S 8584   1.104   0.949   3.915 -0.1916 -1.1874 -0.5289
    1PA     C15 8585   1.003   0.933   3.738 -0.5898 -0.0765 -0.2542
    1PA     H5R 8586   1.009   0.825   3.723 -0.2090 -0.1892  0.6839
    1PA     H5S 8587   0.906   0.968   3.702 -1.4830 -1.0848  1.0731
    1PA     C14 8588   1.106   1.003   3.647 -0.2641 -0.9055 -0.0286
    1PA     H4R 8589   1.080   1.109   3.655 -0.8442 -1.1631  2.8767
    1PA     H4S 8590   1.207   0.989   3.687  0.1533  0.9089 -0.3317
    1PA     C13 8591   1.124   0.977   3.497 -0.5447  0.0329  0.7097
    1PA     H3R 8592   1.029   0.986   3.442 -0.4960 -2.3816  0.0796
    1PA     H3S 8593   1.193   1.047   3.450  0.6835 -1.0681  0.8105
    1PA     C12 8594   1.164   0.833   3.468  0.6558  0.7820 -0.2145
    1PA     H2R 8595   1.255   0.806   3.522 -0.0106 -0.2938  0.4068
    1PA     H2S 8596   1.093   0.760   3.508  3.6069 -2.1135  0.2302
    1PC     C11 8597   1.197   0.806   3.320 -0.4729 -0.2005  0.8742
    1PC     O12 8598   1.153   0.874   3.229  0.2648 -0.4725 -0.0380
    1PC     O11 8599   1.276   0.697   3.310 -0.3936 -0.5656  0.5750
    1PC      C1 8600   1.297   0.651   3.165 -0.4915 -0.0143  0.0714
    1PC      HR 8601   1.207   0.612   3.118 -1.7616 -0.2442  2.5305
    1PC      HS 8602   1.326   0.732   3.098  2.2351 -1.2329 -0.3693
    1PC      C2 8603   1.402   0.544   3.165 -0.3211 -0.0762 -0.1881
    1PC      HX 8604   1.495   0.589   3.202  0.3619 -1.2256 -0.4552
    1PC      C3 8605   1.450   0.489   3.027  0.7102  0.5579  0.6749
    1PC      HA 8606   1.490   0.573   2.970 -0.4493  0.0214 -1.0130
    1PC      HB 8607   1.526   0.412   3.042  0.1456 -0.0635  0.4381
    1PC     O31 8608   1.343   0.440   2.939 -0.4850  0.5401 -0.0335
    1PC     P31 8609   1.371   0.408   2.785 -0.1982  0.4722  0.2365
    1PC     O32 8610   1.466   0.279   2.783  0.0696  0.3200 -0.0694
    1PC     C31 8611   1.610   0.297   2.786 -0.1736 -0.0782 -0.6008
    1PC     H1A 8612   1.646   0.399   2.802 -2.0557  0.9932 -2.6528
    1PC     H1B 8613   1.648   0.236   2.868 -1.7436 -1.4871 -0.8697
    1PC     C32 8614   1.654   0.246   2.648  0.0279 -0.2007  0.2422
    1PC     H2A 8615   1.625   0.141   2.642 -1.5932  0.2959 -1.6365
    1PC     H2B 8616   1.601   0.298   2.568 -2.0924 -2.7128 -0.1053
    1PC     N31 8617   1.804   0.255   2.619  0.4442 -0.5410  0.1822
    1PC     C33 8618   1.833   0.394   2.587  0.3715  0.2243 -0.2561
    1PC     H3A 8619   1.769   0.419   2.503 -0.8736  0.2765  0.6796
    1PC     H3B 8620   1.810   0.461   2.671  1.3379 -0.4007  0.5272
    1PC     H3C 8621   1.937   0.409   2.559  0.8571  0.5099  1.5679
    1PC     C34 8622   1.883   0.216   2.736  1.1753  0.4946 -0.0217
    1PC     H4A 8623   1.990   0.225   2.716  1.1421 -0.8234 -0.8954
    1PC     H4B 8624   1.868   0.288   2.818  0.3186 -0.3814  0.6189
    1PC     H4C 8625   1.867   0.113   2.768  1.7179  0.9274  1.7611
    1PC     C35 8626   1.835   0.165   2.510 -0.5784 -0.4630  0.3325
    1PC     H5A 8627   1.943   0.167   2.495 -0.8178 -1.7403 -1.8781
    1PC     H5B 8628   1.790   0.205   2.419  0.0609  0.2743  0.3238
    1PC     H5C 8629   1.793   0.070   2.543 -1.2531  0.4919  2.4202
    1PC     O33 8630   1.240   0.363   2.734 -0.0234  0.5834 -0.0951
    1PC     O34 8631   1.444   0.513   2.719 -0.6534 -0.1749 -0.8252
    1PC     O21 8632   1.374   0.425   3.246  0.2037  0.5840  1.3441
    1PC     C21 8633   1.395   0.431   3.382  0.0435 -0.9994 -0.4473
    1PC     O22 8634   1.479   0.507   3.431 -0.1632 -0.0034 -0.0484
    1OL     C12 8635   1.308   0.332   3.466  0.4494  0.6147 -0.3179
    1OL     H2R 8636   1.359   0.236   3.483 -1.6253 -0.3863  0.5796
    1OL     H2S 8637   1.218   0.323   3.405  1.4897  0.4846 -1.9069
    1OL     C13 8638   1.268   0.382   3.606 -1.1288 -0.7050 -0.5550
    1OL     H3R 8639   1.355   0.404   3.669 -1.1410 -0.2735 -0.6871
    1OL     H3S 8640   1.216   0.309   3.669 -1.3826  0.4113  0.5816
    1OL     C14 8641   1.173   0.504   3.614 -0.1147  0.3069 -0.2999
    1OL     H4R 8642   1.090   0.487   3.545 -0.0503 -0.9272 -0.0974
    1OL     H4S 8643   1.225   0.596   3.583 -0.3241  0.2867 -0.7127
    1OL     C15 8644   1.123   0.519   3.760 -0.4542  0.2230 -0.1288
    1OL     H5R 8645   1.056   0.438   3.788  0.9660 -0.1218  2.6510
    1OL     H5S 8646   1.055   0.605   3.756  1.9958  2.2651 -0.3027
    1OL     C16 8647   1.222   0.544   3.867 -0.0211  0.0081  0.3711
    1OL     H6R 8648   1.287   0.626   3.833 -0.4051 -0.5601 -1.9123
    1OL     H6S 8649   1.283   0.454   3.869 -1.6110 -1.1816 -1.3256
    1OL     C17 8650   1.159   0.557   4.001 -0.0093  0.0586 -0.0973
    1OL     H7R 8651   1.104   0.466   4.026 -0.4261 -0.0612 -1.3532
    1OL     H7S 8652   1.098   0.647   4.000 -1.3118 -0.7926 -0.7597
    1OL     C18 8653   1.261   0.578   4.114  0.1470  0.7475  0.1439
    1OL     H8R 8654   1.319   0.670   4.098  0.1474  1.1913  2.3831
    1OL     H8S 8655   1.332   0.496   4.122 -1.1098 -0.1922  2.7443
    1OL     C19 8656   1.180   0.580   4.245 -0.1615  0.2231  0.1513
    1OL     H9R 8657   1.124   0.491   4.271  0.2578  0.0736  0.5742
    1OL    C110 8658   1.177   0.685   4.325 -0.3494 -0.4449 -0.7608
    1OL    H10R 8659   1.101   0.687   4.403 -0.0537  0.8389 -0.4955
    1OL    C111 8660   1.288   0.794   4.321 -0.4302 -0.3054 -0.2416
    1OL    H11R 8661   1.371   0.769   4.254 -0.8114 -1.4710 -0.3041
    1OL    H11S 8662   1.332   0.798   4.421  0.4997 -1.5791 -0.5641
    1OL    C112 8663   1.228   0.926   4.275  0.6903 -0.5905  0.4209
    1OL    H12R 8664   1.144   0.958   4.337 -0.3444  2.4904 -2.2775
    1OL    H12S 8665   1.196   0.920   4.171  0.5380  1.8398  0.2689
    1OL    C113 8666   1.335   1.037   4.292 -0.1094  0.0201  0.0694
    1OL    H13R 8667   1.425   1.022   4.232  0.0983  1.1168  0.0857
    1OL    H13S 8668   1.385   1.042   4.389  0.8296  1.6642 -0.4606
    1OL    C114 8669   1.280   1.176   4.258  0.7315 -0.6274 -0.3706
    1OL    H14R 8670   1.352   1.256   4.276  0.7284 -0.8625  0.7329
    1OL    H14S 8671   1.197   1.189   4.327  0.3936 -2.2262 -0.4467
    1OL    C115 8672   1.215   1.184   4.114  0.5830 -0.2245 -0.4113
    1OL    H15R 8673   1.188   1.289   4.100  0.6043  0.0481  1.3572
    1OL    H15S 8674   1.120   1.130   4.115 -1.0517  2.4635  0.1757
    1OL    C116 8675   1.305   1.143   4.000  0.2320  0.4643 -0.5021
    1OL    H16R 8676   1.253   1.134   3.905 -0.3489  1.3664 -0.2798
    1OL    H16S 8677   1.336   1.041   4.025 -2.1119  0.4279  2.9213
    1OL    C117 8678   1.419   1.238   3.965 -1.3999  1.0769  0.4328
    1OL    H17R 8679   1.501   1.195   4.023  0.2979 -0.5390 -2.8972
    1OL    H17S 8680   1.403   1.341   3.998  1.9568  1.9075 -0.1374
    1OL    C118 8681   1.471   1.239   3.815  0.0160 -0.2489  0.4583
    1OL    H18R 8682   1.506   1.138   3.793  1.0216  0.2167 -0.1467
    1OL    H18S 8683   1.550   1.310   3.792  2.2061 -2.9162 -0.8693
    1OL    H18T 8684   1.389   1.266   3.748  1.2917  2.1591 -0.2243
    1PA    C116 8685   0.902   4.393   4.472 -0.1031  0.6733 -0.1538
    1PA    H16R 8686   1.007   4.416   4.494 -0.3549  2.3684 -0.5597
    1PA    H16S 8687   0.898   4.314   4.397 -0.0950 -0.5779  1.1397
    1PA    H16T 8688   0.849   4.349   4.556 -0.9373  1.9980  0.0360
    1PA    C115 8689   0.830   4.521   4.414 -0.1363 -0.2967  0.9604
    1PA    H15R 8690   0.805   4.585   4.499 -0.0215  1.3552 -0.2087
    1PA    H15S 8691   0.896   4.575   4.346 -1.1472  0.9201  0.9052
    1PA    C114 8692   0.697   4.493   4.337 -0.0949  0.1192 -0.1428
    1PA    H14R 8693   0.653   4.588   4.308  1.0970  0.8310  0.2711
    1PA    H14S 8694   0.708   4.430   4.249 -2.9629 -1.6168  0.6225
    1PA    C113 8695   0.603   4.421   4.433  0.0259  0.3990 -0.2077
    1PA    H13R 8696   0.655   4.334   4.475  0.0330  0.8605  0.7827
    1PA    H13S 8697   0.576   4.487   4.515 -1.1361  0.0947 -0.3328
    1PA    C112 8698   0.472   4.370   4.364 -0.6455 -0.3691 -0.5311
    1PA    H12R 8699   0.409   4.446   4.318 -1.3504 -2.2457 -2.8688
    1PA    H12S 8700   0.500   4.311   4.277 -0.0039 -2.4280  0.9941
    1PA    C111 8701   0.390   4.281   4.463 -0.0420 -0.0707 -0.6501
    1PA    H11R 8702   0.450   4.209   4.518  0.5111  0.7695 -0.1174
    1PA    H11S 8703   0.352   4.346   4.542  0.0361  0.2448 -0.8692
    1PA    C110 8704   0.265   4.214   4.407  0.6058  0.8788 -0.1118
    1PA    H10R 8705   0.217   4.169   4.494 -2.6311  0.1282 -2.1165
    1PA    H10S 8706   0.193   4.293   4.386  0.6761  1.6655  2.2533
    1PA     C19 8707   0.276   4.119   4.288 -0.3649  0.6227  0.0383
    1PA     H9R 8708   0.302   4.177   4.200 -0.4922 -1.1052 -1.1979
    1PA     H9S 8709   0.352   4.046   4.318 -1.2006  0.5382  2.1804
    1PA     C18 8710   0.156   4.038   4.250  0.2316  0.0145 -0.1676
    1PA     H8R 8711   0.160   3.941   4.301  2.0801 -0.7916 -1.7269
    1PA     H8S 8712   0.074   4.101   4.284  0.5868  0.2732  0.2044
    1PA     C17 8713   0.133   4.011   4.102  0.2146  0.2716  0.4186
    1PA     H7R 8714   0.028   3.982   4.098  0.3341 -0.0228 -0.8660
    1PA     H7S 8715   0.135   4.103   4.043 -1.3239 -0.2890 -0.5820
    1PA     C16 8716   0.247   3.920   4.053  0.1901 -0.5281  0.6203
    1PA     H6R 8717   0.343   3.969   4.070 -0.7334  0.9420  1.9004
    1PA     H6S 8718   0.239   3.834   4.118 -0.4717 -0.5643  0.5001
    1PA     C15 8719   0.243   3.879   3.902 -0.4820 -0.1015  0.4712
    1PA     H5R 8720   0.140   3.847   3.883  0.1992 -1.8023 -0.5924
    1PA     H5S 8721   0.272   3.964   3.841  0.8699 -1.0016 -0.1904
    1PA     C14 8722   0.330   3.753   3.862 -0.5460 -0.1254  0.7143
    1PA     H4R 8723   0.286   3.662   3.902  1.3982 -1.9280 -1.0593
    1PA     H4S 8724   0.326   3.744   3.754  0.2726  0.3476  0.6393
    1PA     C13 8725   0.481   3.764   3.900 -0.4570 -0.4921 -0.7688
    1PA     H3R 8726   0.502   3.782   4.006 -1.3931  0.3260 -0.7032
    1PA     H3S 8727   0.525   3.666   3.884  0.1598 -0.0805 -1.6665
    1PA     C12 8728   0.561   3.866   3.820 -0.6013 -0.1436  0.0225
    1PA     H2R 8729   0.518   3.967   3.822  0.5133  0.3708 -0.8876
    1PA     H2S 8730   0.660   3.881   3.866 -0.5846  0.5371 -0.2233
    1PC     C11 8731   0.587   3.828   3.676 -0.4843 -0.1367 -1.0852
    1PC     O12 8732   0.524   3.749   3.608 -0.3079 -0.0122  0.2625
    1PC     O11 8733   0.671   3.922   3.629  0.2161  0.6429  0.0988
    1PC      C1 8734   0.685   3.936   3.483 -0.2690 -0.7218 -0.5251
    1PC      HR 8735   0.773   4.000   3.476  0.7946 -1.5752  2.8293
    1PC      HS 8736   0.692   3.839   3.433  1.5513 -0.2783 -1.1931
    1PC      C2 8737   0.557   4.011   3.437 -0.0059 -0.1285 -0.3109
    1PC      HX 8738   0.467   3.951   3.455 -0.0595 -0.0866 -0.4330
    1PC      C3 8739   0.565   4.042   3.283  0.2748  0.3237 -0.3863
    1PC      HA 8740   0.477   4.101   3.256  0.2354  0.9096  0.9133
    1PC      HB 8741   0.649   4.109   3.261  0.6933 -0.0594  0.0287
    1PC     O31 8742   0.582   3.922   3.201 -0.5047 -0.0654 -0.5499
    1PC     P31 8743   0.462   3.826   3.163  0.5019 -0.7490  0.2426
    1PC     O32 8744   0.398   3.871   3.022 -0.0257  0.1669 -0.2653
    1PC     C31 8745   0.479   3.856   2.905  0.1068  0.0862  0.1579
    1PC     H1A 8746   0.529   3.759   2.904 -2.0867 -1.1474 -1.8858
    1PC     H1B 8747   0.416   3.841   2.816  2.0250 -3.1951 -0.8376
    1PC     C32 8748   0.567   3.978   2.888  0.0778  0.3607  0.1502
    1PC     H2A 8749   0.497   4.062   2.879  0.4659  0.6744  0.0158
    1PC     H2B 8750   0.641   3.979   2.968  0.8590 -0.4318 -0.5483
    1PC     N31 8751   0.656   3.975   2.763 -0.5628 -0.0426 -0.0794
    1PC     C33 8752   0.572   3.990   2.639  0.6095 -0.0925  0.6902
    1PC     H3A 8753   0.553   3.892   2.597  1.4476 -0.1562  0.4463
    1PC     H3B 8754   0.482   4.047   2.665  0.1086  0.1702 -1.4008
    1PC     H3C 8755   0.633   4.048   2.569 -0.6483 -0.7746 -1.0326
    1PC     C34 8756   0.736   4.104   2.768 -0.4618  0.3297  0.1844
    1PC     H4A 8757   0.814   4.090   2.844  0.2365 -0.8691 -0.7233
    1PC     H4B 8758   0.779   4.138   2.674  0.3975  0.0215  0.4530
    1PC     H4C 8759   0.670   4.179   2.813  1.6742  3.1239 -1.0031
    1PC     C35 8760   0.757   3.859   2.742  0.1362 -0.6060 -0.3011
    1PC     H5A 8761   0.837   3.870   2.815  1.0821 -1.5351 -1.1693
    1PC     H5B 8762   0.800   3.861   2.642  0.0482 -0.7037 -0.3412
    1PC     H5C 8763   0.701   3.766   2.756 -3.3875  0.9250 -2.6611
    1PC     O33 8764   0.515   3.688   3.143 -0.7863  0.0407  0.1158
    1PC     O34 8765   0.348   3.838   3.258  0.3307  0.3057  0.4230
    1PC     O21 8766   0.557   4.137   3.511  0.0801  0.0344 -0.1177
    1PC     C21 8767   0.464   4.174   3.595  0.2457 -0.0684 -0.2315
    1PC     O22 8768   0.360   4.113   3.617 -0.2047  0.2714 -0.0043
    1OL     C12 8769   0.498   4.307   3.662  0.0951 -0.0479  0.3503
    1OL     H2R 8770   0.406   4.364   3.644 -0.0361 -0.3833 -0.0577
    1OL     H2S 8771   0.590   4.350   3.622 -0.0445  0.5683  0.6825
    1OL     C13 8772   0.510   4.294   3.814 -0.4765 -0.6332 -0.1100
    1OL     H3R 8773   0.603   4.239   3.835  0.9476  1.1690 -1.3518
    1OL     H3S 8774   0.417   4.247   3.845 -0.0669 -1.7353 -0.4964
    1OL     C14 8775   0.512   4.435   3.876 -0.1218  0.1795 -0.1560
    1OL     H4R 8776   0.589   4.500   3.833 -0.8398 -0.4883 -2.6194
    1OL     H4S 8777   0.544   4.424   3.980 -1.0252 -1.1905 -0.0038
    1OL     C15 8778   0.381   4.513   3.857  0.4174 -0.2229 -0.3832
    1OL     H5R 8779   0.290   4.457   3.883  0.2315  0.1800 -0.1478
    1OL     H5S 8780   0.369   4.548   3.755 -3.4974  0.1652  0.0620
    1OL     C16 8781   0.375   4.647   3.942 -0.0230  0.1834 -0.0309
    1OL     H6R 8782   0.302   4.716   3.900  0.8444  0.7391 -0.6469
    1OL     H6S 8783   0.471   4.692   3.917  1.5370 -2.5874  0.4659
    1OL     C17 8784   0.370   4.620   4.092  0.1415  0.3825 -0.2148
    1OL     H7R 8785   0.453   4.555   4.120  0.8135  1.8387  1.3990
    1OL     H7S 8786   0.280   4.561   4.109 -0.9645  2.1166  0.2406
    1OL     C18 8787   0.360   4.756   4.166 -0.8391  0.5668 -0.4075
    1OL     H8R 8788   0.343   4.737   4.272 -0.1592 -1.3799 -0.5979
    1OL     H8S 8789   0.263   4.796   4.133 -1.4227  0.6505  1.3272
    1OL     C19 8790   0.480   4.849   4.139  0.9070 -0.0993  0.0769
    1OL     H9R 8791   0.520   4.851   4.038  1.6007  1.3606  0.3589
    1OL    C110 8792   0.545   4.910   4.239  0.7403  0.4067  0.3577
    1OL    H10R 8793   0.634   4.964   4.208  1.5748 -0.3913  1.2794
    1OL    C111 8794   0.505   4.934   4.386  0.1914  0.3843  0.4861
    1OL    H11R 8795   0.398   4.955   4.380  0.2222  0.4985  0.3212
    1OL    H11S 8796   0.545   5.031   4.417 -1.1357  1.3584 -0.7023
    1OL    C112 8797   0.548   4.813   4.471  0.0832 -0.1463  0.2511
    1OL    H12R 8798   0.644   4.781   4.430  0.3022  0.4888  0.2574
    1OL    H12S 8799   0.480   4.729   4.457 -0.6029  0.4189  0.1371
    1OL    C113 8800   0.563   4.842   4.621 -0.0887 -0.2603 -0.2485
    1OL    H13R 8801   0.466   4.878   4.658 -0.1204 -1.9496  1.4746
    1OL    H13S 8802   0.622   4.934   4.620 -1.6452  0.7931  0.6604
    1OL    C114 8803   0.616   4.729   4.705 -0.3933  0.4924  0.6868
    1OL    H14R 8804   0.719   4.705   4.678  0.3952  0.6888  3.2524
    1OL    H14S 8805   0.566   4.635   4.681  2.7917 -0.8536 -1.3458
    1OL    C115 8806   0.613   4.741   4.860 -0.4328 -0.2040  0.1566
    1OL    H15R 8807   0.625   4.643   4.908 -1.2809 -0.7210 -0.6688
    1OL    H15S 8808   0.511   4.776   4.879 -0.9954  0.3299 -3.3264
    1OL    C116 8809   0.721   4.840   4.920 -0.5102  0.1718  0.5984
    1OL    H16R 8810   0.812   4.841   4.860 -1.4753 -0.8852 -0.9729
    1OL    H16S 8811   0.751   4.808   5.020  0.5364  2.9411  1.2498
    1OL    C117 8812   0.663   4.976   4.926 -0.2935 -0.1337 -0.0665
    1OL    H17R 8813   0.574   4.963   4.988  0.8783  0.4801  1.8450
    1OL    H17S 8814   0.631   5.006   4.826 -2.2844 -0.9505  0.2740
    1OL    C118 8815   0.750   5.082   4.997  0.4014 -0.1234  0.4791
    1OL    H18R 8816   0.726   5.183   4.963 -0.1929 -0.5566 -0.4161
    1OL    H18S 8817   0.855   5.065   4.970 -0.2636 -5.3511  0.0770
    1OL    H18T 8818   0.743   5.065   5.105  0.9106 -0.3789  0.4783
    1PA    C116 8819   3.546   1.356   5.324  1.0962  0.6879 -0.7014
    1PA    H16R 8820   3.636   1.315   5.277  1.7373  1.7196 -0.3951
    1PA    H16S 8821   3.477   1.272   5.332  2.1677 -0.0904  0.9043
    1PA    H16T 8822   3.572   1.387   5.425  2.8970 -1.0808 -0.5551
    1PA    C115 8823   3.495   1.467   5.245 -0.0690 -0.7155  0.8549
    1PA    H15R 8824   3.479   1.421   5.147  2.2467 -1.3294  0.7078
    1PA    H15S 8825   3.394   1.504   5.265 -0.6833 -0.6202 -1.9920
    1PA    C114 8826   3.614   1.571   5.229  0.3509 -0.2017  0.1541
    1PA    H14R 8827   3.654   1.600   5.327  3.2836 -0.4374 -0.8929
    1PA    H14S 8828   3.703   1.514   5.203  0.9752 -0.1678  2.0419
    1PA    C113 8829   3.601   1.691   5.135  0.0440 -0.0208  0.4594
    1PA    H13R 8830   3.497   1.722   5.127 -0.1229 -0.9158 -1.0126
    1PA    H13S 8831   3.657   1.776   5.176  0.1810  0.6144 -0.9743
    1PA    C112 8832   3.649   1.657   4.993  0.4706 -0.3075  0.3863
    1PA    H12R 8833   3.757   1.651   5.004  0.7324  0.0969 -1.5161
    1PA    H12S 8834   3.607   1.563   4.958 -0.6411  0.2181  0.2583
    1PA    C111 8835   3.621   1.772   4.896 -0.0645  0.8418 -0.5388
    1PA    H11R 8836   3.518   1.780   4.863  0.0031  2.1615 -0.4702
    1PA    H11S 8837   3.645   1.870   4.937  0.1897  1.1502 -1.4017
    1PA    C110 8838   3.693   1.746   4.762 -0.7611 -0.1128  0.4768
    1PA    H10R 8839   3.798   1.715   4.767 -0.4889 -0.1230 -2.8073
    1PA    H10S 8840   3.655   1.658   4.710  1.1332  0.3462 -1.8766
    1PA     C19 8841   3.678   1.865   4.666  0.8813 -0.1907  0.6970
    1PA     H9R 8842   3.675   1.955   4.728  1.0292  0.8229 -0.7331
    1PA     H9S 8843   3.751   1.870   4.585 -1.7248 -1.4739 -1.9350
    1PA     C18 8844   3.542   1.866   4.581  0.1459  0.8401 -0.5202
    1PA     H8R 8845   3.456   1.881   4.646  0.3873  1.4150 -0.3320
    1PA     H8S 8846   3.542   1.945   4.505  0.0313 -1.7754 -3.4715
    1PA     C17 8847   3.508   1.743   4.508 -0.2820  0.4614  0.2471
    1PA     H7R 8848   3.483   1.673   4.588 -0.5815 -1.4201 -1.4085
    1PA     H7S 8849   3.420   1.764   4.447 -2.0010 -0.6532  2.2308
    1PA     C16 8850   3.606   1.684   4.416  0.6090  0.3682 -0.0407
    1PA     H6R 8851   3.671   1.636   4.490  1.0402  1.3579  0.2422
    1PA     H6S 8852   3.578   1.595   4.359  4.8056 -1.4843  0.3812
    1PA     C15 8853   3.678   1.784   4.325 -0.6198 -0.5166  0.0558
    1PA     H5R 8854   3.607   1.843   4.268 -1.0868 -2.9437 -2.0679
    1PA     H5S 8855   3.745   1.846   4.385 -0.6699 -0.1591 -0.2623
    1PA     C14 8856   3.763   1.714   4.210  0.3383 -0.2229  0.1830
    1PA     H4R 8857   3.819   1.626   4.244  1.6158 -0.1327 -1.5332
    1PA     H4S 8858   3.698   1.672   4.133  0.1150 -1.4227  0.9916
    1PA     C13 8859   3.841   1.820   4.135 -0.0157 -0.8584 -0.5055
    1PA     H3R 8860   3.778   1.897   4.090  0.8676 -0.9142 -1.9034
    1PA     H3S 8861   3.907   1.870   4.205 -0.6299  0.6941 -0.9820
    1PA     C12 8862   3.923   1.768   4.020  0.1307  0.2169  0.1307
    1PA     H2R 8863   3.989   1.689   4.056  1.2787  0.3968 -1.4449
    1PA     H2S 8864   3.852   1.725   3.949 -1.3322 -1.6000  2.5464
    1PC     C11 8865   3.999   1.875   3.944 -0.4066 -0.5258  0.7537
    1PC     O12 8866   4.067   1.959   4.004 -0.0896 -0.4621  0.1856
    1PC     O11 8867   3.980   1.880   3.809  0.0744  0.0842  0.5518
    1PC      C1 8868   4.047   1.991   3.735 -1.0538  0.6125 -0.4470
    1PC      HR 8869   3.985   2.017   3.649 -2.1215  0.6397  0.3126
    1PC      HS 8870   4.049   2.078   3.802  1.3588 -1.7160  2.8329
    1PC      C2 8871   4.189   1.957   3.680 -0.1184  0.9769  0.4733
    1PC      HX 8872   4.232   2.047   3.635 -3.3047  1.5668 -1.7010
    1PC      C3 8873   4.172   1.840   3.575 -0.3797 -0.0157 -0.9175
    1PC      HA 8874   4.272   1.817   3.537  0.3903 -0.7960  1.4323
    1PC      HB 8875   4.141   1.748   3.626 -0.7944 -0.8960 -2.6930
    1PC     O31 8876   4.077   1.872   3.468  0.1175  0.0962 -0.6549
    1PC     P31 8877   4.092   1.829   3.318  0.1462 -0.4208  0.2728
    1PC     O32 8878   3.990   1.700   3.316  0.5531 -0.4301  0.9555
    1PC     C31 8879   3.850   1.729   3.280  0.3994 -0.3648 -0.3843
    1PC     H1A 8880   3.840   1.813   3.210  1.2364 -0.5306 -0.7207
    1PC     H1B 8881   3.789   1.640   3.259  0.2213 -0.7648  1.6727
    1PC     C32 8882   3.791   1.780   3.414 -0.0178  0.8444 -0.1134
    1PC     H2A 8883   3.867   1.850   3.449  1.9662 -0.4368 -1.6174
    1PC     H2B 8884   3.699   1.836   3.400  0.0092  0.5344 -1.6429
    1PC     N31 8885   3.764   1.689   3.529  0.4336  0.3022  0.3383
    1PC     C33 8886   3.650   1.599   3.495 -0.1502  0.6120  0.0410
    1PC     H3A 8887   3.686   1.536   3.413 -0.7878 -0.9051  0.8801
    1PC     H3B 8888   3.617   1.539   3.580 -2.2028 -1.3988 -1.9989
    1PC     H3C 8889   3.574   1.660   3.445 -0.9522 -2.1940 -2.4765
    1PC     C34 8890   3.885   1.614   3.575 -0.6603  0.6784  0.1074
    1PC     H4A 8891   3.849   1.551   3.657  0.8175 -0.1177  0.1838
    1PC     H4B 8892   3.922   1.553   3.493 -2.8164  2.2781 -2.1756
    1PC     H4C 8893   3.956   1.685   3.618 -1.4486 -0.2832  3.3108
    1PC     C35 8894   3.726   1.771   3.646 -0.2017 -0.6397  0.3091
    1PC     H5A 8895   3.778   1.866   3.644 -2.3331  0.6385  1.6143
    1PC     H5B 8896   3.748   1.722   3.741 -1.2219 -1.8699 -0.0475
    1PC     H5C 8897   3.618   1.788   3.651 -0.4723 -2.0719  0.0378
    1PC     O33 8898   4.037   1.934   3.228  0.5295  0.2088 -0.1014
    1PC     O34 8899   4.228   1.774   3.291 -0.0023  0.3162  0.0252
    1PC     O21 8900   4.271   1.902   3.791 -0.6868  0.0727  0.1496
    1PC     C21 8901   4.341   1.986   3.875 -0.1065 -0.5610  0.3196
    1PC     O22 8902   4.351   2.103   3.854 -0.8361  0.2811  0.0352
    1OL     C12 8903   4.373   1.921   4.012 -0.0486  0.6338  0.0827
    1OL     H2R 8904   4.323   1.826   4.032 -0.1770  0.6615 -0.1013
    1OL     H2S 8905   4.346   1.990   4.093  0.7671  0.6383  0.3524
    1OL     C13 8906   4.525   1.895   4.027  0.8739  0.0087  0.2404
    1OL     H3R 8907   4.583   1.985   4.003  0.8136 -0.1113 -0.3822
    1OL     H3S 8908   4.554   1.823   3.950  0.5352 -0.8416  0.8882
    1OL     C14 8909   4.560   1.843   4.173  0.5806 -0.6560  0.1199
    1OL     H4R 8910   4.660   1.800   4.175  0.6407 -0.5043  1.9952
    1OL     H4S 8911   4.482   1.771   4.199  1.9658 -2.1363  0.4174
    1OL     C15 8912   4.567   1.951   4.275  0.9514 -0.2266  0.2340
    1OL     H5R 8913   4.473   2.007   4.274 -0.0823 -1.8976 -1.7649
    1OL     H5S 8914   4.635   2.027   4.236 -1.5245  2.5670  0.9118
    1OL     C16 8915   4.604   1.925   4.419  0.1389  0.2921 -0.2124
    1OL     H6R 8916   4.695   1.866   4.429 -1.1429 -1.9884 -1.1044
    1OL     H6S 8917   4.522   1.866   4.461  2.6085 -1.6027  2.2447
    1OL     C17 8918   4.612   2.054   4.496 -0.5481  0.4457  0.4397
    1OL     H7R 8919   4.653   2.135   4.435  2.7378 -0.0071  1.8444
    1OL     H7S 8920   4.683   2.035   4.576 -1.4934 -0.8950  1.0009
    1OL     C18 8921   4.468   2.096   4.532 -0.6102 -0.4115 -0.1603
    1OL     H8R 8922   4.410   2.014   4.574 -1.3510  0.1121 -0.1249
    1OL     H8S 8923   4.425   2.134   4.438 -0.2709  0.1242 -0.1072
    1OL     C19 8924   4.478   2.223   4.622  0.3953  0.6117  0.1418
    1OL     H9R 8925   4.495   2.316   4.567 -0.1369  0.0836 -0.9450
    1OL    C110 8926   4.455   2.227   4.753 -0.6932 -0.0487 -0.1236
    1OL    H10R 8927   4.458   2.328   4.794 -1.8782 -0.1436  0.2431
    1OL    C111 8928   4.428   2.108   4.846 -0.5310 -0.1629  0.3738
    1OL    H11R 8929   4.460   2.015   4.798 -2.3178 -0.6448  0.0653
    1OL    H11S 8930   4.320   2.097   4.859 -0.5496 -0.7870 -0.2488
    1OL    C112 8931   4.507   2.113   4.978 -0.6386  0.1036  0.7315
    1OL    H12R 8932   4.614   2.096   4.960 -1.0609  0.1089 -2.3023
    1OL    H12S 8933   4.463   2.031   5.035 -2.2240  0.7120  0.4263
    1OL    C113 8934   4.492   2.247   5.051  0.1409  0.1940 -0.2662
    1OL    H13R 8935   4.386   2.262   5.072  0.3912 -0.4628  1.6618
    1OL    H13S 8936   4.520   2.327   4.982  3.1733 -0.7945 -0.3064
    1OL    C114 8937   4.576   2.257   5.179 -0.0629 -0.1799  0.6666
    1OL    H14R 8938   4.668   2.205   5.152 -0.1257 -0.2557  0.5983
    1OL    H14S 8939   4.528   2.205   5.263 -0.7271 -0.7355 -0.0385
    1OL    C115 8940   4.603   2.400   5.222 -0.1165 -1.1395  0.1421
    1OL    H15R 8941   4.520   2.458   5.263  2.6796  3.1961  0.4327
    1OL    H15S 8942   4.639   2.459   5.137  1.5816  2.4350  3.0293
    1OL    C116 8943   4.695   2.390   5.347  0.0767 -0.6511  0.9056
    1OL    H16R 8944   4.773   2.319   5.320 -0.7643 -0.7872 -1.4010
    1OL    H16S 8945   4.635   2.345   5.427  1.4508  0.3198  2.5561
    1OL    C117 8946   4.753   2.527   5.388  0.2073  0.1224 -0.1783
    1OL    H17R 8947   4.669   2.594   5.408 -0.1543 -0.5822  0.7812
    1OL    H17S 8948   4.807   2.568   5.302 -1.7841  0.0211 -1.5419
    1OL    C118 8949   4.847   2.496   5.507  0.8112  0.5354  0.1049
    1OL    H18R 8950   4.941   2.455   5.471  1.1912  0.4561  1.1536
    1OL    H18S 8951   4.802   2.430   5.581  0.9222  0.9917  0.5888
    1OL    H18T 8952   4.880   2.586   5.560  2.3904 -0.1723  0.3669
    1PA    C116 8953   4.001   1.955   5.515  0.5333  0.7466  0.1999
    1PA    H16R 8954   4.091   1.892   5.513  0.3073  0.4279 -0.7604
    1PA    H16S 8955   4.015   2.023   5.599 -1.9676  2.3218 -0.5519
    1PA    H16T 8956   4.002   2.011   5.420  1.8830  0.0699 -0.2195
    1PA    C115 8957   3.875   1.868   5.545  0.9055  0.1479 -0.1476
    1PA    H15R 8958   3.889   1.823   5.643 -0.0178  0.2633  0.0428
    1PA    H15S 8959   3.781   1.923   5.551  0.0652 -1.1750 -0.6780
    1PA    C114 8960   3.854   1.755   5.439 -0.6157  0.1516 -1.1391
    1PA    H14R 8961   3.772   1.699   5.483  0.2175 -0.7511 -0.6813
    1PA    H14S 8962   3.831   1.795   5.341  0.6923  0.4387 -1.3532
    1PA    C113 8963   3.968   1.657   5.420  0.3828 -0.1241 -0.0350
    1PA    H13R 8964   4.060   1.709   5.393 -1.3667  3.4060  0.2843
    1PA    H13S 8965   3.975   1.600   5.513  0.2662  0.5630  0.3981
    1PA    C112 8966   3.942   1.550   5.311  0.0532 -0.1313  0.3617
    1PA    H12R 8967   3.855   1.496   5.349 -1.0136  0.4814 -1.1324
    1PA    H12S 8968   3.922   1.605   5.219  0.3956 -0.6551 -0.0362
    1PA    C111 8969   4.055   1.452   5.268 -0.2590 -0.3635  0.2722
    1PA    H11R 8970   4.141   1.502   5.222 -0.2077 -2.1285 -1.6796
    1PA    H11S 8971   4.084   1.390   5.353  1.1292  0.3830  0.3714
    1PA    C110 8972   3.998   1.361   5.157 -0.0178 -0.1276 -0.3441
    1PA    H10R 8973   4.068   1.278   5.163  0.3566  0.2613  1.4087
    1PA    H10S 8974   3.899   1.321   5.179  0.5502 -2.5620 -1.8851
    1PA     C19 8975   3.993   1.415   5.017 -0.4891 -0.0263  0.0023
    1PA     H9R 8976   3.944   1.512   5.013 -2.0039 -0.7671  0.1576
    1PA     H9S 8977   4.098   1.427   4.988  0.0911 -1.6388  1.2499
    1PA     C18 8978   3.931   1.323   4.914 -0.3814 -0.6044  0.0965
    1PA     H8R 8979   3.991   1.237   4.883  1.2468  0.1810  0.9567
    1PA     H8S 8980   3.840   1.281   4.957  0.3719 -1.4029  0.9609
    1PA     C17 8981   3.895   1.388   4.779  0.0505 -0.1935 -0.7655
    1PA     H7R 8982   3.975   1.446   4.733 -0.9492  1.3460 -0.6296
    1PA     H7S 8983   3.807   1.452   4.788 -0.1107 -0.0433 -2.9167
    1PA     C16 8984   3.856   1.280   4.673  0.3787  0.3468 -0.1084
    1PA     H6R 8985   3.937   1.209   4.654 -1.4027 -1.8968  0.1857
    1PA     H6S 8986   3.776   1.219   4.716  1.5258 -0.1603  1.4065
    1PA     C15 8987   3.818   1.370   4.552  0.4418  0.2461  0.8784
    1PA     H5R 8988   3.741   1.438   4.590 -0.1441 -0.1738  0.4620
    1PA     H5S 8989   3.899   1.427   4.506 -0.3981  0.1225 -0.8203
    1PA     C14 8990   3.757   1.280   4.451  0.5450 -0.0448  0.3584
    1PA     H4R 8991   3.816   1.189   4.447 -0.6001 -0.8094  0.3302
    1PA     H4S 8992   3.662   1.246   4.493  1.3278 -1.5904  0.9333
    1PA     C13 8993   3.736   1.338   4.311 -0.2990 -0.2339 -0.6054
    1PA     H3R 8994   3.676   1.429   4.319 -0.5442 -0.4993  1.0820
    1PA     H3S 8995   3.834   1.371   4.278  0.7324 -0.5537  1.8614
    1PA     C12 8996   3.677   1.231   4.210 -0.3883  0.1846  0.1111
    1PA     H2R 8997   3.726   1.135   4.225  2.6179  1.0866 -2.6546
    1PA     H2S 8998   3.572   1.208   4.225 -0.0957 -0.5543  1.1006
    1PC     C11 8999   3.701   1.275   4.071 -1.0145 -0.4097  0.3625
    1PC     O12 9000   3.704   1.397   4.039  0.6662 -0.4087  0.6625
    1PC     O11 9001   3.715   1.174   3.988  0.2139  0.2002  0.1475
    1PC      C1 9002   3.747   1.182   3.846  0.5864 -0.1994  0.7149
    1PC      HR 9003   3.744   1.084   3.799  1.7835  0.2383 -0.3216
    1PC      HS 9004   3.681   1.257   3.801  0.9008 -0.3553 -0.0173
    1PC      C2 9005   3.883   1.236   3.827 -0.1797 -0.5066  0.6488
    1PC      HX 9006   3.883   1.341   3.859  0.6675 -0.7299  1.3956
    1PC      C3 9007   3.915   1.227   3.672  0.2160 -0.2588  0.0243
    1PC      HA 9008   4.022   1.246   3.658  0.3709 -0.7768  0.4929
    1PC      HB 9009   3.898   1.126   3.634 -1.7699  0.7727 -2.0358
    1PC     O31 9010   3.831   1.305   3.584  0.0794 -0.5927 -0.3655
    1PC     P31 9011   3.828   1.268   3.422 -0.0306  0.1582 -0.1161
    1PC     O32 9012   3.898   1.380   3.344 -0.5291  0.3636  1.0599
    1PC     C31 9013   4.043   1.371   3.326  0.3006 -0.5034  0.3032
    1PC     H1A 9014   4.090   1.469   3.317  0.5827 -0.7226 -0.6938
    1PC     H1B 9015   4.097   1.317   3.405  1.3647 -1.8941 -1.3052
    1PC     C32 9016   4.066   1.298   3.195  0.0758 -0.2430  0.1968
    1PC     H2A 9017   4.149   1.229   3.213  0.1769 -0.0422  0.5076
    1PC     H2B 9018   3.970   1.248   3.179  1.1134 -2.5267  0.6397
    1PC     N31 9019   4.093   1.376   3.066 -0.6715 -0.1351 -0.1352
    1PC     C33 9020   3.988   1.482   3.062  0.3932  1.0524 -0.3381
    1PC     H3A 9021   3.974   1.496   2.955  2.5529  0.1819 -0.7912
    1PC     H3B 9022   3.897   1.454   3.114 -0.0894  2.5264 -0.3435
    1PC     H3C 9023   4.027   1.579   3.094  1.0297  1.2133 -1.5194
    1PC     C34 9024   4.220   1.442   3.065 -0.3556  0.5562 -0.4145
    1PC     H4A 9025   4.214   1.516   3.145 -2.9792  2.3219 -2.0646
    1PC     H4B 9026   4.304   1.375   3.084 -0.2416  0.8523  0.1405
    1PC     H4C 9027   4.229   1.483   2.964 -0.7851  1.1659 -0.2137
    1PC     C35 9028   4.077   1.280   2.955 -0.6257  0.2332  0.6788
    1PC     H5A 9029   3.969   1.266   2.948 -0.7227  1.2718 -0.4123
    1PC     H5B 9030   4.142   1.198   2.986 -0.5316  0.4746  1.1182
    1PC     H5C 9031   4.107   1.327   2.861 -2.4798  0.8414  0.3581
    1PC     O33 9032   3.891   1.132   3.388  0.3147  0.3281  0.0843
    1PC     O34 9033   3.683   1.278   3.394 -0.1019  0.2395 -0.7672
    1PC     O21 9034   3.978   1.150   3.902  0.1231  0.2869  0.0028
    1PC     C21 9035   4.079   1.209   3.971  0.1294  0.8689 -0.3009
    1PC     O22 9036   4.105   1.326   3.957  0.3913 -0.1342 -0.9395
    1OL     C12 9037   4.143   1.113   4.065 -0.3432  0.1531 -0.0826
    1OL     H2R 9038   4.251   1.131   4.060 -0.1436 -0.6815  0.8880
    1OL     H2S 9039   4.124   1.010   4.036  1.0657 -0.5643  1.4071
    1OL     C13 9040   4.095   1.139   4.215 -0.6192  0.0988  0.5437
    1OL     H3R 9041   3.994   1.098   4.219  0.2013 -2.3712 -1.4512
    1OL     H3S 9042   4.092   1.246   4.239  0.6909  1.0230 -2.7756
    1OL     C14 9043   4.185   1.051   4.307  0.4406 -0.2420  0.4697
    1OL     H4R 9044   4.290   1.051   4.277  0.5084  0.7659  0.7039
    1OL     H4S 9045   4.151   0.948   4.289  1.3864 -0.6665  1.0589
    1OL     C15 9046   4.166   1.082   4.452 -0.7052 -0.0958 -0.6395
    1OL     H5R 9047   4.061   1.055   4.466 -0.8021 -0.2888 -1.6270
    1OL     H5S 9048   4.184   1.189   4.463  0.1238 -0.3317  0.4070
    1OL     C16 9049   4.264   1.007   4.550 -0.2739 -0.9526 -0.1127
    1OL     H6R 9050   4.367   1.027   4.521 -0.9580 -0.7417 -2.5484
    1OL     H6S 9051   4.243   0.900   4.558 -0.2588 -0.9332  0.2319
    1OL     C17 9052   4.259   1.070   4.693  0.0363  0.6020  0.7491
    1OL     H7R 9053   4.317   0.999   4.752  0.7489 -0.7724 -1.5055
    1OL     H7S 9054   4.154   1.075   4.722 -0.2786  1.0332 -0.4050
    1OL     C18 9055   4.323   1.206   4.706  0.1506 -0.1110  0.0018
    1OL     H8R 9056   4.282   1.276   4.634  1.9455  1.1073  0.1022
    1OL     H8S 9057   4.428   1.202   4.675  0.7754  1.9802  1.6318
    1OL     C19 9058   4.321   1.264   4.844  0.1143  0.5390 -0.1218
    1OL     H9R 9059   4.225   1.297   4.882  0.1877  0.9613 -0.2955
    1OL    C110 9060   4.424   1.300   4.914  0.0033 -0.1633  0.8395
    1OL    H10R 9061   4.405   1.348   5.010 -0.9445  3.4987 -0.9897
    1OL    C111 9062   4.566   1.283   4.869 -0.4058 -0.2454  0.0128
    1OL    H11R 9063   4.600   1.361   4.800  3.5681 -0.5940  1.3064
    1OL    H11S 9064   4.588   1.187   4.822 -3.5556 -0.5649 -1.0516
    1OL    C112 9065   4.656   1.301   4.995 -0.0972  0.2781 -0.5363
    1OL    H12R 9066   4.649   1.225   5.072  1.0022  0.5896 -0.1124
    1OL    H12S 9067   4.644   1.400   5.039 -0.3774 -0.9488  2.3960
    1OL    C113 9068   4.797   1.284   4.945  0.6564 -0.2314  0.8085
    1OL    H13R 9069   4.806   1.337   4.850 -0.0694 -0.8495  0.3844
    1OL    H13S 9070   4.807   1.180   4.913  0.1481  0.7702 -3.1150
    1OL    C114 9071   4.903   1.330   5.043  1.0139 -0.5258  0.0936
    1OL    H14R 9072   4.900   1.264   5.129 -1.2499 -0.2686  0.2697
    1OL    H14S 9073   4.890   1.431   5.082 -1.9254  0.3294 -2.6677
    1OL    C115 9074   5.043   1.322   4.984 -0.4701 -0.0128 -0.0683
    1OL    H15R 9075   5.062   1.399   4.909  4.0571  0.7142  1.4960
    1OL    H15S 9076   5.049   1.220   4.944 -0.3933 -0.8982  2.0603
    1OL    C116 9077   5.156   1.345   5.090 -0.0517  0.3000  0.5115
    1OL    H16R 9078   5.151   1.276   5.175  5.6209 -0.0869  0.9290
    1OL    H16S 9079   5.135   1.446   5.126 -2.7635  0.7778 -2.0640
    1OL    C117 9080   5.307   1.335   5.047 -0.4619  0.1976  0.2661
    1OL    H17R 9081   5.374   1.375   5.124  0.6628 -1.2900  0.1095
    1OL    H17S 9082   5.315   1.389   4.952  0.7653 -1.9805 -0.9475
    1OL    C118 9083   5.348   1.182   5.033  0.2542  0.0446  0.4052
    1OL    H18R 9084   5.271   1.136   4.970  1.1309 -0.4825 -0.3077
    1OL    H18S 9085   5.342   1.131   5.129 -1.1660 -4.3062 -1.7307
    1OL    H18T 9086   5.448   1.164   4.994  0.5290 -1.9327  1.9019
    1PA    C116 9087   2.390   3.527   5.276 -0.2464 -0.5601  0.9795
    1PA    H16R 9088   2.292   3.495   5.311 -0.8669  0.7799  0.5398
    1PA    H16S 9089   2.389   3.635   5.290  0.0429 -0.5288  0.7668
    1PA    H16T 9090   2.465   3.466   5.326  0.8277  0.3581  0.5259
    1PA    C115 9091   2.409   3.504   5.122  0.4926 -0.0447 -0.2172
    1PA    H15R 9092   2.398   3.399   5.095 -1.4529  0.5388 -1.9510
    1PA    H15S 9093   2.339   3.572   5.073 -0.0397 -1.3374 -1.3077
    1PA    C114 9094   2.552   3.546   5.074  0.2614  0.1631  0.1536
    1PA    H14R 9095   2.561   3.652   5.095 -1.6556  0.2222  0.9245
    1PA    H14S 9096   2.622   3.483   5.129 -0.7341 -1.7823 -0.6861
    1PA    C113 9097   2.572   3.516   4.920  0.5347 -0.2154  0.1709
    1PA    H13R 9098   2.672   3.549   4.890 -0.4664  1.6498 -1.2716
    1PA    H13S 9099   2.570   3.407   4.911 -0.0163 -0.1724 -0.2139
    1PA    C112 9100   2.475   3.582   4.824 -0.9832 -0.3607 -0.8800
    1PA    H12R 9101   2.377   3.567   4.870  0.1075  0.2194  1.8342
    1PA    H12S 9102   2.476   3.691   4.827 -5.3843 -0.1527  0.4783
    1PA    C111 9103   2.471   3.533   4.682 -0.0857  0.1267  0.6398
    1PA    H11R 9104   2.421   3.593   4.606  0.5008  0.5155  0.5581
    1PA    H11S 9105   2.574   3.522   4.646 -0.4142  0.4509 -0.4314
    1PA    C110 9106   2.402   3.395   4.674 -0.6060 -0.6051  0.0083
    1PA    H10R 9107   2.476   3.333   4.726  1.6928  1.4962 -0.6031
    1PA    H10S 9108   2.309   3.383   4.730 -2.1162  0.1595 -2.2276
    1PA     C19 9109   2.373   3.344   4.538  0.3936 -0.1933 -0.9017
    1PA     H9R 9110   2.314   3.252   4.540  0.0441  0.0273 -1.0845
    1PA     H9S 9111   2.320   3.420   4.481 -0.2422  0.4340  0.4693
    1PA     C18 9112   2.505   3.317   4.462 -0.5146  0.3184 -0.1559
    1PA     H8R 9113   2.544   3.417   4.440 -2.4863  0.8584 -1.5546
    1PA     H8S 9114   2.576   3.256   4.517 -3.3275 -2.3045  0.8587
    1PA     C17 9115   2.476   3.245   4.327  0.3241  0.0291  0.3480
    1PA     H7R 9116   2.574   3.208   4.297  0.0176 -2.1885  1.8481
    1PA     H7S 9117   2.430   3.150   4.355  1.0969 -0.3031  0.5374
    1PA     C16 9118   2.384   3.318   4.229  0.4720  0.0798 -0.6177
    1PA     H6R 9119   2.356   3.244   4.155  1.4776 -2.0881  1.0559
    1PA     H6S 9120   2.291   3.360   4.270  0.3997  0.1027 -0.8043
    1PA     C15 9121   2.460   3.443   4.178 -0.0844 -0.5860  0.4232
    1PA     H5R 9122   2.395   3.484   4.101 -0.6788 -0.4489  0.9899
    1PA     H5S 9123   2.467   3.527   4.248  1.9411 -1.9846  2.0452
    1PA     C14 9124   2.593   3.412   4.109 -0.2398  0.6212  0.1450
    1PA     H4R 9125   2.632   3.504   4.067 -1.7784  0.3691 -2.0347
    1PA     H4S 9126   2.657   3.383   4.192 -0.5911 -1.3274 -0.2021
    1PA     C13 9127   2.599   3.303   4.002 -0.0927 -0.1894 -0.2260
    1PA     H3R 9128   2.705   3.292   3.977 -0.1734 -1.2136 -0.1547
    1PA     H3S 9129   2.563   3.203   4.026 -0.5512  0.0985  0.3277
    1PA     C12 9130   2.513   3.340   3.877  0.6447  0.1075 -0.5568
    1PA     H2R 9131   2.406   3.321   3.885  0.0777  2.3262 -2.0746
    1PA     H2S 9132   2.526   3.446   3.855 -0.7003  0.6855  1.1772
    1PC     C11 9133   2.567   3.284   3.747  0.9553  0.4389  1.0020
    1PC     O12 9134   2.680   3.299   3.707  0.1126  0.9072 -0.3226
    1PC     O11 9135   2.484   3.205   3.677  0.3929 -0.6607  0.4060
    1PC      C1 9136   2.518   3.143   3.547 -0.1756  0.4262 -0.6664
    1PC      HR 9137   2.418   3.135   3.504 -2.8257 -0.2173  4.8159
    1PC      HS 9138   2.579   3.210   3.486 -0.4183  0.1722 -1.1954
    1PC      C2 9139   2.580   3.005   3.572  0.0929 -0.2360 -0.4327
    1PC      HX 9140   2.658   3.013   3.649 -2.7046  1.0346  2.4744
    1PC      C3 9141   2.633   2.948   3.439 -0.1082 -0.3527 -0.2948
    1PC      HA 9142   2.722   2.997   3.398 -0.1575 -0.4250 -0.4941
    1PC      HB 9143   2.668   2.849   3.468  1.5591 -0.5214 -2.5865
    1PC     O31 9144   2.529   2.933   3.342  0.3447  0.0846 -0.9016
    1PC     P31 9145   2.493   3.035   3.221  0.2063 -0.4313 -0.0998
    1PC     O32 9146   2.522   2.954   3.090 -0.1219  0.0089 -0.2400
    1PC     C31 9147   2.659   2.907   3.070 -0.2090  0.1686 -0.3783
    1PC     H1A 9148   2.737   2.968   3.117 -1.0273 -0.7296  2.3288
    1PC     H1B 9149   2.669   2.809   3.116 -0.6258  0.9534  1.4760
    1PC     C32 9150   2.696   2.903   2.919  0.5102  0.0290  0.1043
    1PC     H2A 9151   2.800   2.873   2.911  0.6445 -0.0427  1.7201
    1PC     H2B 9152   2.634   2.826   2.872  1.6508 -0.7302 -0.1760
    1PC     N31 9153   2.677   3.027   2.836 -0.6883 -0.4143  0.0349
    1PC     C33 9154   2.765   3.020   2.716 -0.3585 -0.0447 -0.3221
    1PC     H3A 9155   2.709   2.945   2.660  0.2739  0.8965 -2.2949
    1PC     H3B 9156   2.771   3.118   2.669  1.4303  0.3786  0.6888
    1PC     H3C 9157   2.863   2.983   2.747 -0.7576 -1.1094 -0.2757
    1PC     C34 9158   2.536   3.047   2.795 -0.1530 -0.0432 -0.0874
    1PC     H4A 9159   2.489   2.952   2.768 -0.5428 -0.5216  2.0792
    1PC     H4B 9160   2.481   3.094   2.877  0.5880  0.4063  0.1621
    1PC     H4C 9161   2.539   3.124   2.718  0.2641  0.3440  0.3117
    1PC     C35 9162   2.712   3.152   2.901  0.3219 -0.7149  0.0599
    1PC     H5A 9163   2.648   3.172   2.987  0.2689  3.4137 -0.7538
    1PC     H5B 9164   2.700   3.232   2.828  3.3430  2.6615  2.9188
    1PC     H5C 9165   2.818   3.163   2.921  0.2187  2.4933 -0.6162
    1PC     O33 9166   2.348   3.057   3.224  0.1220  0.3410 -0.3785
    1PC     O34 9167   2.582   3.153   3.223 -0.0831 -0.4462  0.0938
    1PC     O21 9168   2.482   2.914   3.624  0.0039  0.0209 -0.5072
    1PC     C21 9169   2.505   2.833   3.734  0.8537  0.1025  0.3484
    1PC     O22 9170   2.612   2.825   3.784  0.1959  0.1660 -0.0108
    1OL     C12 9171   2.375   2.767   3.779 -0.1059  0.0209  0.0351
    1OL     H2R 9172   2.377   2.663   3.747  2.8570 -0.1806  0.5102
    1OL     H2S 9173   2.291   2.810   3.725 -0.9902  0.0089  1.3541
    1OL     C13 9174   2.378   2.777   3.934  0.7625  0.0131  0.1161
    1OL     H3R 9175   2.373   2.883   3.958  0.6613  0.0446 -0.0415
    1OL     H3S 9176   2.473   2.729   3.961 -0.3811 -0.5392  3.7343
    1OL     C14 9177   2.256   2.702   3.999  0.3811 -0.3053 -0.4313
    1OL     H4R 9178   2.251   2.604   3.951 -1.1006 -1.4515  1.9015
    1OL     H4S 9179   2.163   2.752   3.969 -0.2025 -0.6531  0.7534
    1OL     C15 9180   2.257   2.680   4.152 -0.4705  0.3538  0.1396
    1OL     H5R 9181   2.351   2.632   4.179 -0.3324 -0.3159 -1.4408
    1OL     H5S 9182   2.182   2.609   4.189 -0.3919 -0.7582 -1.6922
    1OL     C16 9183   2.251   2.819   4.227 -0.3070 -0.3787  0.0160
    1OL     H6R 9184   2.154   2.865   4.206  0.2342  0.5092 -0.6169
    1OL     H6S 9185   2.323   2.892   4.191  0.2674 -2.0515 -2.5702
    1OL     C17 9186   2.264   2.796   4.379 -0.1048  0.2961 -0.3252
    1OL     H7R 9187   2.366   2.761   4.397 -0.6662 -0.0325  2.7205
    1OL     H7S 9188   2.193   2.722   4.416 -0.4513  1.5179  1.5922
    1OL     C18 9189   2.252   2.919   4.469  0.1215  0.1890 -0.2891
    1OL     H8R 9190   2.166   2.979   4.439 -1.6616 -0.7272  2.5690
    1OL     H8S 9191   2.338   2.982   4.447 -0.3589  0.5990 -1.0048
    1OL     C19 9192   2.249   2.876   4.610  0.1774 -0.6913 -0.7565
    1OL     H9R 9193   2.346   2.837   4.642  0.5455  0.6035 -0.2217
    1OL    C110 9194   2.146   2.890   4.698 -0.3918 -0.1821  0.6039
    1OL    H10R 9195   2.159   2.860   4.802  2.4120 -0.6193  0.2009
    1OL    C111 9196   2.014   2.954   4.673 -0.1127 -0.3267 -0.1201
    1OL    H11R 9197   1.994   2.996   4.575 -3.4990  0.2615  0.7040
    1OL    H11S 9198   2.014   3.043   4.736  2.1189 -0.5245  0.2652
    1OL    C112 9199   1.891   2.862   4.707  0.7595 -0.3205  0.7721
    1OL    H12R 9200   1.794   2.908   4.690 -0.3100 -3.1682 -1.5860
    1OL    H12S 9201   1.899   2.833   4.812 -2.2894 -0.3031  1.0798
    1OL    C113 9202   1.890   2.728   4.634  0.7843 -0.1414  0.0848
    1OL    H13R 9203   1.986   2.679   4.647  0.4693 -0.6533  0.5489
    1OL    H13S 9204   1.870   2.751   4.529  2.2417  1.6218  0.1485
    1OL    C114 9205   1.783   2.624   4.700 -0.4207 -0.0946  0.0159
    1OL    H14R 9206   1.684   2.661   4.671  0.3884  1.3833 -0.9402
    1OL    H14S 9207   1.786   2.639   4.808 -2.6181  2.4914 -0.1728
    1OL    C115 9208   1.795   2.478   4.652 -0.7156  0.3774 -0.1674
    1OL    H15R 9209   1.882   2.425   4.689  0.8192  1.6338 -1.8041
    1OL    H15S 9210   1.801   2.475   4.543 -1.8044 -1.8981 -0.2136
    1OL    C116 9211   1.668   2.395   4.688 -0.3000 -0.0407  0.3297
    1OL    H16R 9212   1.579   2.434   4.638  1.2991 -0.6052 -3.2846
    1OL    H16S 9213   1.645   2.386   4.794  1.4525  0.1743  0.7620
    1OL    C117 9214   1.685   2.252   4.638 -0.0681  0.4655  0.1597
    1OL    H17R 9215   1.604   2.183   4.664  0.9029 -0.9008 -0.2775
    1OL    H17S 9216   1.773   2.208   4.685  0.9972 -0.6777 -2.6460
    1OL    C118 9217   1.717   2.226   4.489  0.7542 -0.1263 -0.5267
    1OL    H18R 9218   1.809   2.276   4.457 -0.1779  1.4352 -0.8877
    1OL    H18S 9219   1.639   2.257   4.419  0.2155  1.3082  0.6450
    1OL    H18T 9220   1.732   2.121   4.465 -1.9535 -0.8076  0.4090
    1PA    C116 9221   2.359   0.885   4.266  0.1088 -0.1087 -0.7257
    1PA    H16R 9222   2.464   0.909   4.279  1.0864 -3.5785 -1.2037
    1PA    H16S 9223   2.356   0.776   4.256  0.7669 -0.3953  1.7454
    1PA    H16T 9224   2.310   0.921   4.356 -0.3088 -0.0491 -0.9721
    1PA    C115 9225   2.303   0.950   4.145  0.1300 -0.2538 -0.6423
    1PA    H15R 9226   2.347   0.896   4.061 -1.1056 -2.3739 -0.0092
    1PA    H15S 9227   2.194   0.946   4.142 -0.1211  1.6160  2.4079
    1PA    C114 9228   2.359   1.096   4.140  0.1824 -0.2091 -0.2218
    1PA    H14R 9229   2.467   1.094   4.157 -0.0995  0.8858  2.0101
    1PA    H14S 9230   2.343   1.143   4.042  0.1880 -0.7247 -0.4757
    1PA    C113 9231   2.292   1.189   4.244  0.0628 -0.1453 -1.0111
    1PA    H13R 9232   2.183   1.186   4.239  0.1251 -1.0523 -2.0085
    1PA    H13S 9233   2.321   1.153   4.343  0.1414 -1.1425 -1.3933
    1PA    C112 9234   2.323   1.336   4.217  0.1475 -0.2194 -0.5164
    1PA    H12R 9235   2.341   1.361   4.112  1.2373  0.9969 -0.0582
    1PA    H12S 9236   2.234   1.386   4.257  0.5844 -0.2565  0.5188
    1PA    C111 9237   2.452   1.371   4.288 -0.4484 -0.4094 -0.1199
    1PA    H11R 9238   2.433   1.369   4.395 -0.2434 -0.4954 -0.0831
    1PA    H11S 9239   2.533   1.299   4.274 -0.7216 -1.1560  1.8032
    1PA    C110 9240   2.498   1.513   4.254 -0.2086 -1.6650  0.2598
    1PA    H10R 9241   2.531   1.507   4.151  1.2132 -2.2370  0.7190
    1PA    H10S 9242   2.411   1.577   4.271  0.6550 -0.2237 -0.5696
    1PA     C19 9243   2.606   1.578   4.345  0.3183 -0.7841 -0.3404
    1PA     H9R 9244   2.581   1.581   4.452 -1.1036 -0.5112 -0.6574
    1PA     H9S 9245   2.695   1.514   4.345 -0.8216 -2.4218 -0.9741
    1PA     C18 9246   2.641   1.729   4.312 -0.2663  0.2186 -0.4504
    1PA     H8R 9247   2.551   1.790   4.325 -0.5734 -0.0080 -1.4473
    1PA     H8S 9248   2.703   1.757   4.397  2.0529 -1.4231 -1.4932
    1PA     C17 9249   2.722   1.759   4.186 -0.5161 -0.2976  0.2840
    1PA     H7R 9250   2.817   1.705   4.190  0.4231  1.1126 -1.4875
    1PA     H7S 9251   2.671   1.714   4.100 -1.8828 -1.3813  1.6062
    1PA     C16 9252   2.752   1.898   4.158  0.0386  0.0046 -0.0239
    1PA     H6R 9253   2.813   1.946   4.235  1.0923  0.7807 -1.2927
    1PA     H6S 9254   2.808   1.890   4.065  1.0473  2.0160  0.3503
    1PA     C15 9255   2.630   1.977   4.129 -0.4645  0.8930 -0.2986
    1PA     H5R 9256   2.570   2.006   4.215 -0.5442 -0.8293  0.2452
    1PA     H5S 9257   2.672   2.071   4.090  0.6454  1.4733  2.1145
    1PA     C14 9258   2.530   1.929   4.024 -0.8511 -0.6899 -0.4260
    1PA     H4R 9259   2.480   1.834   4.046 -0.7394 -0.5976  0.2381
    1PA     H4S 9260   2.449   2.001   4.021  1.4153  1.9859 -1.5552
    1PA     C13 9261   2.593   1.931   3.884 -0.1092 -0.0835 -0.3796
    1PA     H3R 9262   2.657   2.017   3.866  0.5074 -0.8946 -2.3861
    1PA     H3S 9263   2.656   1.842   3.873 -0.8643 -0.5448 -1.1591
    1PA     C12 9264   2.481   1.943   3.778  0.1313  0.0832  0.4134
    1PA     H2R 9265   2.396   1.877   3.794 -0.1155 -0.8575 -3.8161
    1PA     H2S 9266   2.445   2.046   3.769 -0.1248 -0.1722 -2.2023
    1PC     C11 9267   2.534   1.912   3.643 -0.4067 -0.6552 -0.2157
    1PC     O12 9268   2.554   1.801   3.602 -0.3846 -0.0106  0.7856
    1PC     O11 9269   2.572   2.025   3.581 -0.1515  0.2797  0.3302
    1PC      C1 9270   2.644   2.007   3.450 -0.2782  0.0460 -0.4876
    1PC      HR 9271   2.688   2.105   3.428  0.7364 -0.2747  0.0429
    1PC      HS 9272   2.727   1.940   3.471  0.2954  0.9908  0.3856
    1PC      C2 9273   2.554   1.955   3.336 -0.6562  0.1951 -0.2189
    1PC      HX 9274   2.530   1.849   3.349  1.2942 -0.1935  0.4978
    1PC      C3 9275   2.628   1.976   3.205  0.7060 -0.5097  0.4213
    1PC      HA 9276   2.617   2.079   3.171 -1.6259 -0.4178  1.2208
    1PC      HB 9277   2.731   1.940   3.201  1.4647  1.6074 -2.4742
    1PC     O31 9278   2.563   1.883   3.109 -0.5327  0.1236  0.5141
    1PC     P31 9279   2.612   1.737   3.072 -0.1774 -0.0082  0.0041
    1PC     O32 9280   2.574   1.663   3.205 -0.4806 -0.2822 -0.2774
    1PC     C31 9281   2.439   1.616   3.233  0.6917 -0.0690  0.3746
    1PC     H1A 9282   2.430   1.597   3.340  0.3742  1.7679  0.7084
    1PC     H1B 9283   2.376   1.699   3.200  0.3355 -0.8316 -0.9525
    1PC     C32 9284   2.414   1.479   3.149  0.2732 -0.5248 -0.6282
    1PC     H2A 9285   2.307   1.461   3.158 -0.4440  2.3352 -2.2468
    1PC     H2B 9286   2.445   1.478   3.044 -0.5536 -1.9987 -0.8893
    1PC     N31 9287   2.489   1.360   3.206 -0.1255  0.1697 -0.6151
    1PC     C33 9288   2.454   1.235   3.142 -0.3210 -0.5868  0.2711
    1PC     H3A 9289   2.351   1.206   3.164 -0.8801  0.3568 -1.0146
    1PC     H3B 9290   2.469   1.251   3.035  0.5377  0.4645  0.5236
    1PC     H3C 9291   2.526   1.158   3.170  0.1846 -0.8277 -1.5651
    1PC     C34 9292   2.633   1.386   3.186  0.2634 -0.2810 -0.1717
    1PC     H4A 9293   2.690   1.304   3.230  1.7876  0.9100  0.1605
    1PC     H4B 9294   2.647   1.379   3.078  1.6683  1.0067 -0.1012
    1PC     H4C 9295   2.665   1.477   3.236  1.4216 -1.4543  1.2923
    1PC     C35 9296   2.463   1.338   3.356 -0.2540  0.3740 -0.1030
    1PC     H5A 9297   2.513   1.246   3.387 -2.7288 -1.0235 -0.0289
    1PC     H5B 9298   2.359   1.323   3.387  0.4042 -1.9792  1.1904
    1PC     H5C 9299   2.513   1.418   3.412 -0.9861  1.3461 -0.8205
    1PC     O33 9300   2.518   1.695   2.967 -0.2033  0.1494 -0.3791
    1PC     O34 9301   2.758   1.730   3.051 -0.3056 -0.0982 -0.0586
    1PC     O21 9302   2.430   2.034   3.334 -0.0282  0.3342  0.0295
    1PC     C21 9303   2.314   1.983   3.383  0.1767  0.1509  0.0975
    1PC     O22 9304   2.304   1.880   3.444  0.6072  0.0356  0.0730
    1OL     C12 9305   2.201   2.075   3.348 -0.6225  0.1317  0.4155
    1OL     H2R 9306   2.105   2.022   3.350  0.0553 -1.1643  0.2990
    1OL     H2S 9307   2.211   2.113   3.247  1.4302  1.3276  1.0187
    1OL     C13 9308   2.182   2.182   3.459  0.5229  0.4703  0.5323
    1OL     H3R 9309   2.084   2.230   3.454  0.3555 -0.0097 -2.0808
    1OL     H3S 9310   2.258   2.261   3.452  0.6319  0.3387  0.1949
    1OL     C14 9311   2.182   2.121   3.603  0.1629  0.8783  0.3301
    1OL     H4R 9312   2.279   2.080   3.632 -0.4274  0.7317  2.2727
    1OL     H4S 9313   2.106   2.043   3.607 -0.7715  1.8177  2.0413
    1OL     C15 9314   2.149   2.229   3.711  0.3972 -0.0762  0.0379
    1OL     H5R 9315   2.048   2.263   3.688  0.0494  0.7657  2.5574
    1OL     H5S 9316   2.217   2.313   3.704 -2.1241  2.0083 -1.0122
    1OL     C16 9317   2.131   2.177   3.854 -0.5597 -0.1322  0.1592
    1OL     H6R 9318   2.216   2.121   3.891 -0.6136  0.5298  1.3154
    1OL     H6S 9319   2.067   2.088   3.856  1.3760 -1.5704  0.6991
    1OL     C17 9320   2.093   2.284   3.957  0.4177 -0.2049  0.4244
    1OL     H7R 9321   1.986   2.304   3.949 -0.0270 -1.9567  1.5845
    1OL     H7S 9322   2.148   2.377   3.938  0.1700 -0.3959 -1.5267
    1OL     C18 9323   2.107   2.254   4.107 -0.2285  0.1022 -0.1600
    1OL     H8R 9324   2.209   2.274   4.138 -0.1637 -0.8985  0.3222
    1OL     H8S 9325   2.092   2.148   4.127  1.4397 -0.1023  0.1178
    1OL     C19 9326   2.010   2.335   4.194 -0.5062  0.6941 -0.3064
    1OL     H9R 9327   1.913   2.355   4.151 -0.5545  0.0866 -0.5005
    1OL    C110 9328   2.047   2.386   4.309  0.0025 -0.5979 -0.3596
    1OL    H10R 9329   1.981   2.443   4.373  0.3428  0.3735 -0.8509
    1OL    C111 9330   2.172   2.350   4.385  0.1919 -0.1600 -0.8463
    1OL    H11R 9331   2.241   2.432   4.363 -1.9100  1.6772 -0.9385
    1OL    H11S 9332   2.213   2.256   4.347 -0.7926 -0.6471 -0.7231
    1OL    C112 9333   2.139   2.328   4.529 -0.4773  0.1257  0.0146
    1OL    H12R 9334   2.066   2.405   4.554  1.3275  1.7590  0.5036
    1OL    H12S 9335   2.222   2.351   4.596 -0.0045 -1.5242  0.0443
    1OL    C113 9336   2.075   2.196   4.563 -0.0486  0.1989 -0.4052
    1OL    H13R 9337   2.130   2.112   4.520  2.2535  1.9727 -1.1271
    1OL    H13S 9338   1.979   2.197   4.510  0.0496 -0.6200 -0.5992
    1OL    C114 9339   2.063   2.172   4.714 -0.0939  0.1875 -0.3669
    1OL    H14R 9340   1.986   2.246   4.735 -0.5554  0.1230 -1.7290
    1OL    H14S 9341   2.158   2.185   4.767 -0.8904  0.4704  1.0542
    1OL    C115 9342   2.008   2.031   4.743  0.7236 -0.2569  0.5111
    1OL    H15R 9343   2.069   1.958   4.689 -0.4165 -1.0836  0.3013
    1OL    H15S 9344   1.908   2.033   4.699  0.3369  1.1477  1.3984
    1OL    C116 9345   2.011   1.985   4.884  0.3715  0.1078 -0.1405
    1OL    H16R 9346   1.963   2.051   4.957  0.6997  0.0462  0.1365
    1OL    H16S 9347   2.111   1.988   4.928  0.4546 -1.6343 -0.1059
    1OL    C117 9348   1.960   1.839   4.909 -0.5724 -0.2436  0.4905
    1OL    H17R 9349   2.031   1.764   4.873 -1.3588 -1.9503  2.2638
    1OL    H17S 9350   1.867   1.818   4.856 -0.0146 -0.4507 -0.4288
    1OL    C118 9351   1.947   1.802   5.059 -0.5357  0.3074 -0.4523
    1OL    H18R 9352   1.879   1.874   5.106 -2.5201 -1.1354 -0.9491
    1OL    H18S 9353   2.044   1.789   5.106 -0.8268  0.7630  0.2864
    1OL    H18T 9354   1.893   1.707   5.067 -0.8232  0.3642 -1.5435
    1PA    C116 9355   4.097   2.912   5.288 -0.0815  0.3719  0.0889
    1PA    H16R 9356   4.157   2.879   5.203 -1.1144  1.8182 -1.2556
    1PA    H16S 9357   4.008   2.849   5.289 -0.8696  1.4541  1.7443
    1PA    H16T 9358   4.136   2.906   5.390 -0.0128  1.4390  0.1426
    1PA    C115 9359   4.054   3.059   5.266 -0.0701 -0.0112 -0.5256
    1PA    H15R 9360   3.981   3.064   5.185  1.9256 -1.1916 -2.4817
    1PA    H15S 9361   3.999   3.095   5.354 -0.7990  0.0003 -0.9790
    1PA    C114 9362   4.179   3.143   5.221 -0.1656  0.4781 -0.2670
    1PA    H14R 9363   4.265   3.130   5.288  0.0373  0.7464 -0.4725
    1PA    H14S 9364   4.201   3.101   5.122 -0.7559  1.6011 -0.8968
    1PA    C113 9365   4.156   3.296   5.206  0.2512 -0.0441  0.0339
    1PA    H13R 9366   4.115   3.322   5.303 -3.3931  0.9638 -1.5991
    1PA    H13S 9367   4.249   3.350   5.188 -1.1323  1.7229 -2.5223
    1PA    C112 9368   4.055   3.325   5.103  0.2628 -0.5616  0.0442
    1PA    H12R 9369   4.088   3.292   5.004 -1.1507 -1.2302 -0.2230
    1PA    H12S 9370   3.967   3.261   5.113  0.0400 -0.4583 -1.1385
    1PA    C111 9371   4.005   3.471   5.102 -0.5000  0.0968  0.4655
    1PA    H11R 9372   3.900   3.480   5.130 -0.9464  0.4750 -1.2021
    1PA    H11S 9373   4.068   3.520   5.176  1.9258 -1.4849 -0.4104
    1PA    C110 9374   4.033   3.545   4.967 -0.3015  0.4777  0.2536
    1PA    H10R 9375   4.139   3.550   4.940 -0.2515 -0.0717  0.3323
    1PA    H10S 9376   3.973   3.489   4.895 -0.3396  0.4830  0.2821
    1PA     C19 9377   3.993   3.688   4.984 -0.5636 -0.9491  1.4890
    1PA     H9R 9378   3.886   3.701   5.000 -0.5593  0.0195  0.8275
    1PA     H9S 9379   4.064   3.713   5.063  1.6245 -0.6035 -0.4692
    1PA     C18 9380   4.043   3.773   4.863  0.3788  0.1004 -0.5826
    1PA     H8R 9381   4.027   3.880   4.878 -0.5390  0.0935 -1.4263
    1PA     H8S 9382   4.151   3.756   4.851  0.6317 -0.8968  2.3043
    1PA     C17 9383   3.969   3.737   4.734 -0.2609  0.3589  0.3634
    1PA     H7R 9384   4.005   3.638   4.707  2.3765  1.2138  0.4660
    1PA     H7S 9385   3.861   3.735   4.752 -1.0533 -0.6209 -3.6583
    1PA     C16 9386   4.002   3.844   4.626 -0.0128 -0.4097  0.0543
    1PA     H6R 9387   3.960   3.944   4.636  1.6090  0.3671 -0.5625
    1PA     H6S 9388   4.105   3.874   4.645 -0.6649  1.7081  0.4232
    1PA     C15 9389   3.995   3.789   4.487 -0.3576  0.4219 -0.4750
    1PA     H5R 9390   4.040   3.689   4.484 -1.1467 -0.0906  2.1112
    1PA     H5S 9391   3.889   3.769   4.471  0.5034 -4.2940 -1.7944
    1PA     C14 9392   4.057   3.888   4.392  0.0226 -0.5135 -0.2320
    1PA     H4R 9393   3.997   3.979   4.383 -0.0276 -0.1962  2.3547
    1PA     H4S 9394   4.158   3.915   4.427  0.8145 -0.7220 -2.2575
    1PA     C13 9395   4.072   3.845   4.253 -0.6205 -0.3741 -0.7267
    1PA     H3R 9396   4.098   3.933   4.194 -0.6914 -1.9765 -3.3444
    1PA     H3S 9397   4.145   3.763   4.254 -1.4633 -1.1413  0.5773
    1PA     C12 9398   3.945   3.781   4.195  0.3311  0.3778 -0.0222
    1PA     H2R 9399   3.893   3.714   4.264  0.6032 -0.7235 -0.8664
    1PA     H2S 9400   3.875   3.859   4.165  0.1408  0.6134  0.9963
    1PC     C11 9401   3.967   3.708   4.055  0.6554 -0.5579 -0.3456
    1PC     O12 9402   4.048   3.742   3.972  0.0197 -0.2253 -0.5607
    1PC     O11 9403   3.885   3.601   4.034  0.4694 -0.1614  0.3054
    1PC      C1 9404   3.890   3.529   3.911 -0.6067  1.3189  0.0233
    1PC      HR 9405   3.805   3.462   3.903 -1.4310  2.0444  2.0023
    1PC      HS 9406   3.884   3.600   3.828  0.1053  1.8720  0.4384
    1PC      C2 9407   4.018   3.442   3.914 -0.4397 -0.1973 -0.2420
    1PC      HX 9408   4.111   3.498   3.905  0.1359 -0.8461  1.3308
    1PC      C3 9409   4.019   3.349   3.789  0.3876 -0.1164 -1.4652
    1PC      HA 9410   4.085   3.264   3.811  0.1877  0.2101  0.5918
    1PC      HB 9411   3.923   3.298   3.794  1.7281 -2.7008  0.2416
    1PC     O31 9412   4.053   3.434   3.665  0.3887  1.2125 -0.0100
    1PC     P31 9413   4.205   3.486   3.616 -0.1825 -0.2125  0.2838
    1PC     O32 9414   4.242   3.392   3.501 -0.6653  0.2521  0.0642
    1PC     C31 9415   4.297   3.256   3.517  0.2461 -0.2496  0.7088
    1PC     H1A 9416   4.382   3.238   3.451  0.0334 -0.1864  0.4146
    1PC     H1B 9417   4.338   3.242   3.617  3.0175 -0.0331 -0.2971
    1PC     C32 9418   4.203   3.140   3.476  0.2438  0.0422  0.6010
    1PC     H2A 9419   4.242   3.044   3.509  0.6054 -0.6299 -1.5867
    1PC     H2B 9420   4.104   3.161   3.516 -0.4968 -1.8547 -0.0995
    1PC     N31 9421   4.172   3.118   3.329 -0.1561 -0.2139 -0.3434
    1PC     C33 9422   4.145   3.238   3.255  0.2256  0.4277 -0.1731
    1PC     H3A 9423   4.124   3.204   3.154  2.8370 -4.1443  0.5524
    1PC     H3B 9424   4.057   3.280   3.304 -0.7985 -0.8867 -0.8486
    1PC     H3C 9425   4.237   3.298   3.260  0.8942 -0.4797 -1.2247
    1PC     C34 9426   4.302   3.066   3.261 -0.0560  0.3966  0.5855
    1PC     H4A 9427   4.287   3.047   3.155  2.6409 -0.5436  0.2806
    1PC     H4B 9428   4.377   3.144   3.274  1.2042 -0.3902 -1.4524
    1PC     H4C 9429   4.334   2.974   3.312  0.3109  0.7156  0.9374
    1PC     C35 9430   4.065   3.015   3.315  0.1090 -0.3148 -0.1963
    1PC     H5A 9431   4.057   2.981   3.211  0.0566 -0.4143 -0.1600
    1PC     H5B 9432   3.969   3.061   3.340  0.1723  1.5874 -2.9915
    1PC     H5C 9433   4.096   2.929   3.374 -0.5744  0.2885  1.0787
    1PC     O33 9434   4.198   3.622   3.556 -0.0497  0.1464  0.2533
    1PC     O34 9435   4.288   3.465   3.730  0.0634 -0.4101 -0.0790
    1PC     O21 9436   4.013   3.356   4.027  0.1184 -0.7439 -0.3259
    1PC     C21 9437   4.073   3.382   4.146 -0.8027  0.6368 -0.3395
    1PC     O22 9438   4.133   3.482   4.180 -0.4695  0.1769  0.0023
    1OL     C12 9439   4.070   3.252   4.228 -0.4829 -1.0046  0.2484
    1OL     H2R 9440   4.169   3.246   4.274 -1.1176 -3.4286  1.4604
    1OL     H2S 9441   4.066   3.167   4.160  1.7792 -1.3210  0.4292
    1OL     C13 9442   3.944   3.245   4.325 -0.6912  0.5178  0.1841
    1OL     H3R 9443   3.926   3.334   4.384 -3.9347 -0.9312  1.5822
    1OL     H3S 9444   3.958   3.166   4.399 -1.3964  1.0617  0.9037
    1OL     C14 9445   3.820   3.209   4.249  0.4264  0.1870  0.1843
    1OL     H4R 9446   3.753   3.155   4.316  0.7540  0.6780  0.9180
    1OL     H4S 9447   3.844   3.130   4.177  0.3432  0.6120 -0.3117
    1OL     C15 9448   3.745   3.323   4.179 -0.0048 -0.2681  0.8830
    1OL     H5R 9449   3.772   3.335   4.074 -0.4489 -0.1406  0.7808
    1OL     H5S 9450   3.758   3.419   4.228 -3.0839  1.4429 -1.3358
    1OL     C16 9451   3.590   3.296   4.185 -0.0335  0.1790 -0.4396
    1OL     H6R 9452   3.541   3.383   4.141  0.4401  0.7443  0.1236
    1OL     H6S 9453   3.560   3.302   4.290  0.0386  1.3359 -0.4714
    1OL     C17 9454   3.552   3.162   4.124  0.0466  0.3475  0.0472
    1OL     H7R 9455   3.587   3.082   4.190 -0.9775  0.9244  1.3277
    1OL     H7S 9456   3.585   3.150   4.020 -1.4991  1.7947 -0.6601
    1OL     C18 9457   3.397   3.157   4.123  0.3103 -0.1091 -0.3343
    1OL     H8R 9458   3.353   3.234   4.060  0.3207  0.2085  0.0470
    1OL     H8S 9459   3.360   3.184   4.222 -0.5117 -1.8737 -0.1177
    1OL     C19 9460   3.339   3.024   4.081 -0.0826 -0.1092  0.3338
    1OL     H9R 9461   3.367   2.991   3.981 -0.4501 -1.1124  0.5454
    1OL    C110 9462   3.272   2.941   4.159 -0.0866  0.2129 -0.8060
    1OL    H10R 9463   3.248   2.844   4.115 -1.8061  0.9185 -1.5086
    1OL    C111 9464   3.230   2.965   4.301 -0.3124  0.9946  0.6138
    1OL    H11R 9465   3.125   2.944   4.320  0.1824 -1.5601  0.9378
    1OL    H11S 9466   3.239   3.072   4.323  0.3938  1.3397 -1.1524
    1OL    C112 9467   3.325   2.887   4.401  0.3019  0.4706  0.5511
    1OL    H12R 9468   3.431   2.903   4.382  0.7003 -2.9678 -0.9285
    1OL    H12S 9469   3.299   2.783   4.381  1.1758  0.6026 -1.4719
    1OL    C113 9470   3.298   2.921   4.549  1.5467 -0.5927  0.5354
    1OL    H13R 9471   3.306   3.030   4.559  2.2265 -0.3364 -2.0562
    1OL    H13S 9472   3.365   2.876   4.622 -0.3253 -2.4486  1.2097
    1OL    C114 9473   3.161   2.885   4.606  0.3728 -0.4122 -0.1452
    1OL    H14R 9474   3.148   2.778   4.589  0.1348 -0.2164 -1.2938
    1OL    H14S 9475   3.074   2.932   4.559 -0.0550 -1.2731 -0.2316
    1OL    C115 9476   3.160   2.922   4.752  0.4449 -0.7783 -0.1465
    1OL    H15R 9477   3.190   3.027   4.756  1.0515 -0.9501 -0.0394
    1OL    H15S 9478   3.225   2.854   4.808 -0.9209 -1.9190  0.1371
    1OL    C116 9479   3.019   2.898   4.816  0.0125 -0.1583  0.3548
    1OL    H16R 9480   2.988   2.796   4.790  0.2883 -0.1057 -0.1993
    1OL    H16S 9481   2.954   2.976   4.775  0.8178  0.1407 -0.3800
    1OL    C117 9482   3.014   2.917   4.970 -0.3133  0.4424 -0.2411
    1OL    H17R 9483   3.033   3.021   4.994  0.4552  0.2291  0.0886
    1OL    H17S 9484   3.091   2.854   5.016 -1.6726 -0.8870  0.2980
    1OL    C118 9485   2.885   2.868   5.040  0.9634 -0.2703 -0.1498
    1OL    H18R 9486   2.887   2.899   5.144 -0.7363 -0.2179 -0.1107
    1OL    H18S 9487   2.871   2.760   5.033 -1.8475  0.1184 -2.0950
    1OL    H18T 9488   2.796   2.903   4.987  1.1980 -1.1333 -1.1576
    1PA    C116 9489   3.299   3.954   4.560 -0.0689 -0.4453  0.1396
    1PA    H16R 9490   3.396   3.904   4.568  0.5467  0.1883 -2.4266
    1PA    H16S 9491   3.277   3.971   4.454 -0.6331 -0.4398  0.2526
    1PA    H16T 9492   3.220   3.883   4.587 -1.5685  1.0970 -0.0263
    1PA    C115 9493   3.263   4.076   4.637  0.2040 -0.2195  0.2624
    1PA    H15R 9494   3.157   4.095   4.616 -0.2164 -3.4419 -1.0389
    1PA    H15S 9495   3.279   4.055   4.743  1.4247  1.4366  0.4533
    1PA    C114 9496   3.334   4.204   4.603  1.0493  0.5082  0.1654
    1PA    H14R 9497   3.435   4.189   4.641  1.2163  0.4661 -0.2880
    1PA    H14S 9498   3.342   4.211   4.494 -1.6054  0.4855 -0.1167
    1PA    C113 9499   3.261   4.324   4.667 -0.1057 -0.5189  0.2528
    1PA    H13R 9500   3.166   4.344   4.618 -0.4741  1.3135  1.6530
    1PA    H13S 9501   3.253   4.301   4.773  1.4124 -3.4860 -0.1452
    1PA    C112 9502   3.342   4.455   4.652  0.8615  0.1476  0.3647
    1PA    H12R 9503   3.283   4.524   4.713 -0.4696  0.3441 -1.0684
    1PA    H12S 9504   3.441   4.450   4.697  0.8879  0.1696  0.3088
    1PA    C111 9505   3.355   4.510   4.511  0.4153  0.5614  0.4484
    1PA    H11R 9506   3.419   4.436   4.462 -1.0570  0.1459 -0.9105
    1PA    H11S 9507   3.258   4.503   4.463 -0.1976  0.2777  1.6856
    1PA    C110 9508   3.413   4.651   4.485 -0.3879  0.3564 -0.4558
    1PA    H10R 9509   3.346   4.723   4.533 -2.0233 -0.1459 -1.9147
    1PA    H10S 9510   3.514   4.667   4.523 -0.7677 -0.0639  0.7829
    1PA     C19 9511   3.435   4.685   4.339 -0.6148 -0.0075 -0.0456
    1PA     H9R 9512   3.498   4.606   4.296  1.2063  0.7563  1.1018
    1PA     H9S 9513   3.341   4.671   4.286 -0.8268 -2.2579  0.8077
    1PA     C18 9514   3.491   4.830   4.301  0.1614 -0.2239  0.0356
    1PA     H8R 9515   3.582   4.864   4.351 -0.4083  0.9049  0.3407
    1PA     H8S 9516   3.521   4.833   4.196 -0.3711  1.9907 -0.0970
    1PA     C17 9517   3.374   4.939   4.327 -0.0728  0.3756  0.4276
    1PA     H7R 9518   3.295   4.915   4.256  0.6460  1.1913 -0.6763
    1PA     H7S 9519   3.338   4.931   4.429  1.5379  0.3662  1.0321
    1PA     C16 9520   3.412   5.083   4.289 -0.6933 -0.5136 -0.3577
    1PA     H6R 9521   3.337   5.147   4.337  0.9220 -1.5979  4.1512
    1PA     H6S 9522   3.509   5.090   4.339 -1.2211  0.4847  0.5714
    1PA     C15 9523   3.427   5.109   4.138 -0.2082  0.5196 -0.0801
    1PA     H5R 9524   3.375   5.035   4.077  0.4466 -0.2532  0.2908
    1PA     H5S 9525   3.378   5.204   4.114 -4.1136 -0.3875  3.3245
    1PA     C14 9526   3.571   5.119   4.095 -0.3935 -0.1439 -0.6088
    1PA     H4R 9527   3.621   5.194   4.156  1.3109 -1.4447 -0.3052
    1PA     H4S 9528   3.619   5.025   4.123 -0.3051  0.3046  0.8219
    1PA     C13 9529   3.597   5.135   3.947  0.0243  0.0777  0.4168
    1PA     H3R 9530   3.551   5.054   3.891 -0.2632  0.6263 -0.1491
    1PA     H3S 9531   3.548   5.230   3.926  0.4512  0.4260  0.9475
    1PA     C12 9532   3.737   5.157   3.894  0.5680  0.0398  0.6649
    1PA     H2R 9533   3.772   5.248   3.944 -0.7396  2.0450 -1.8850
    1PA     H2S 9534   3.805   5.077   3.926  1.3029  0.6355  0.6270
    1PC     C11 9535   3.737   5.170   3.741  0.5025  0.2965 -0.0125
    1PC     O12 9536   3.725   5.075   3.666 -0.0071  0.2388  0.6134
    1PC     O11 9537   3.766   5.299   3.702  0.8189  0.2824 -0.2502
    1PC      C1 9538   3.755   5.339   3.563  0.2128 -0.4457  0.3287
    1PC      HR 9539   3.832   5.417   3.565 -1.6443  1.4664  2.1928
    1PC      HS 9540   3.789   5.265   3.490  1.0825  0.7672 -0.5426
    1PC      C2 9541   3.624   5.418   3.530 -0.5665  0.4036 -0.2686
    1PC      HX 9542   3.548   5.339   3.524  0.8865 -1.1171  0.6108
    1PC      C3 9543   3.632   5.485   3.391 -0.1056  0.6558 -0.7710
    1PC      HA 9544   3.536   5.523   3.356  0.2427  2.3552  0.0280
    1PC      HB 9545   3.694   5.574   3.401  0.3922  0.1827  0.6300
    1PC     O31 9546   3.683   5.389   3.299  0.7185 -0.6518  0.6934
    1PC     P31 9547   3.606   5.278   3.215  0.0683  0.0881 -0.2001
    1PC     O32 9548   3.635   5.149   3.303 -0.1962 -0.1093 -0.0157
    1PC     C31 9549   3.718   5.038   3.258  0.2106 -0.6789 -0.2730
    1PC     H1A 9550   3.713   5.018   3.150  0.2332  0.9768 -0.5950
    1PC     H1B 9551   3.821   5.071   3.270 -0.2455  1.0390 -0.8564
    1PC     C32 9552   3.700   4.917   3.350  1.3190 -0.1950  0.2525
    1PC     H2A 9553   3.761   4.833   3.318  1.7313  0.3786 -0.5054
    1PC     H2B 9554   3.723   4.945   3.453 -1.0391  0.5531  0.6363
    1PC     N31 9555   3.556   4.868   3.371  0.2317 -0.4191 -0.7405
    1PC     C33 9556   3.552   4.736   3.449 -0.0351 -0.2232  0.1264
    1PC     H3A 9557   3.617   4.658   3.409 -0.8793 -0.3873 -0.9799
    1PC     H3B 9558   3.572   4.761   3.554 -1.5849  1.5523  0.0593
    1PC     H3C 9559   3.451   4.698   3.435  0.7582 -1.8915 -1.4013
    1PC     C34 9560   3.477   4.962   3.447  0.2852 -0.3403  0.1410
    1PC     H4A 9561   3.446   5.045   3.383  2.3076 -0.5734 -1.2135
    1PC     H4B 9562   3.386   4.910   3.477 -0.3843 -0.6119 -2.1302
    1PC     H4C 9563   3.536   5.003   3.529  0.6418 -1.4644  0.4532
    1PC     C35 9564   3.496   4.842   3.238 -0.0156  1.1139 -0.1375
    1PC     H5A 9565   3.412   4.772   3.244  0.1902  0.6028 -2.2975
    1PC     H5B 9566   3.573   4.792   3.179 -2.6637 -1.7209 -1.4534
    1PC     H5C 9567   3.475   4.933   3.181  1.5973  0.9309 -1.0868
    1PC     O33 9568   3.460   5.312   3.221  0.2512  0.1135  0.2677
    1PC     O34 9569   3.678   5.257   3.087 -0.3318  0.1622  0.4286
    1PC     O21 9570   3.600   5.526   3.626 -0.3860  0.2236 -0.6112
    1PC     C21 9571   3.512   5.500   3.726 -1.2657  0.0994  0.7745
    1PC     O22 9572   3.438   5.407   3.719 -0.1690 -0.0324  0.1200
    1OL     C12 9573   3.499   5.609   3.824  0.7333 -0.7753 -0.0513
    1OL     H2R 9574   3.393   5.627   3.843  0.6543  1.2542 -1.9741
    1OL     H2S 9575   3.534   5.700   3.774  0.6498 -0.8196 -0.1924
    1OL     C13 9576   3.563   5.575   3.959 -0.3029  0.8353  0.8435
    1OL     H3R 9577   3.664   5.537   3.940 -0.3980 -0.2825  2.3137
    1OL     H3S 9578   3.504   5.490   3.994  3.1787 -2.6961 -1.0396
    1OL     C14 9579   3.571   5.684   4.061  0.0640  0.5202  0.4259
    1OL     H4R 9580   3.475   5.730   4.083 -0.1455 -0.3693  1.4229
    1OL     H4S 9581   3.648   5.755   4.028  1.0349  0.8428  3.1022
    1OL     C15 9582   3.632   5.634   4.195  0.2128 -0.1966  0.1989
    1OL     H5R 9583   3.631   5.722   4.260  2.5956  0.3008 -0.3305
    1OL     H5S 9584   3.737   5.608   4.177 -0.0771 -0.4078 -1.3239
    1OL     C16 9585   3.551   5.516   4.257  0.3933  0.1280 -0.0748
    1OL     H6R 9586   3.594   5.492   4.354 -1.6089  1.2779  1.1635
    1OL     H6S 9587   3.565   5.431   4.189  0.4394  0.8495 -0.9948
    1OL     C17 9588   3.398   5.526   4.273  0.3008  0.3195  0.2140
    1OL     H7R 9589   3.368   5.424   4.296  3.3432 -0.4045  1.4393
    1OL     H7S 9590   3.351   5.552   4.177  1.9018  2.2769 -0.1207
    1OL     C18 9591   3.333   5.608   4.379  0.3189 -1.1712 -0.1786
    1OL     H8R 9592   3.366   5.576   4.478 -0.4563 -2.1833 -0.2220
    1OL     H8S 9593   3.224   5.601   4.369  0.1504  1.3803 -0.9015
    1OL     C19 9594   3.378   5.757   4.363  0.3931  0.2678  0.0713
    1OL     H9R 9595   3.360   5.789   4.260  0.3751  0.4303  0.1243
    1OL    C110 9596   3.435   5.840   4.448  0.1030 -0.0975 -0.9758
    1OL    H10R 9597   3.456   5.942   4.419  0.4586  0.2111  0.2953
    1OL    C111 9598   3.453   5.809   4.597 -0.1309  0.0445 -0.3064
    1OL    H11R 9599   3.555   5.775   4.619  0.3552  1.1128 -0.8316
    1OL    H11S 9600   3.395   5.725   4.635  0.3095 -0.4552 -0.7185
    1OL    C112 9601   3.417   5.918   4.696  0.0818 -0.4402 -0.4967
    1OL    H12R 9602   3.414   5.872   4.795  0.6341 -1.1736 -0.8117
    1OL    H12S 9603   3.316   5.958   4.680 -0.0462 -0.4888  0.1621
    1OL    C113 9604   3.508   6.042   4.694 -0.4919 -0.2247 -0.5849
    1OL    H13R 9605   3.513   6.081   4.592 -0.8373 -0.0618 -0.5400
    1OL    H13S 9606   3.608   6.001   4.710 -0.7055 -0.6384 -0.2908
    1OL    C114 9607   3.474   6.147   4.805 -0.4557 -0.4670  0.1519
    1OL    H14R 9608   3.469   6.097   4.902 -0.0854 -1.6640 -0.4348
    1OL    H14S 9609   3.383   6.197   4.772 -1.3754 -3.0264 -1.4736
    1OL    C115 9610   3.583   6.253   4.808  0.2907  0.1943 -0.7693
    1OL    H15R 9611   3.619   6.281   4.708 -1.2443  0.4106 -1.2902
    1OL    H15S 9612   3.658   6.220   4.880 -1.3487  0.5685  1.2050
    1OL    C116 9613   3.536   6.389   4.858  0.3857 -0.0843 -0.3589
    1OL    H16R 9614   3.447   6.415   4.800  0.5770  0.5209 -0.3929
    1OL    H16S 9615   3.623   6.452   4.834  1.1079 -1.2097 -0.7508
    1OL    C117 9616   3.488   6.396   5.009 -0.1463 -0.3474  0.2551
    1OL    H17R 9617   3.386   6.357   5.015  0.1311 -0.8813  1.7104
    1OL    H17S 9618   3.479   6.503   5.029 -1.6567 -0.8673  2.6419
    1OL    C118 9619   3.586   6.339   5.112  0.2145 -0.8777 -0.3352
    1OL    H18R 9620   3.681   6.392   5.102  0.6048 -1.2181  1.3676
    1OL    H18S 9621   3.606   6.232   5.111 -0.4268 -1.0134  0.3162
    1OL    H18T 9622   3.537   6.367   5.205 -0.5335 -0.5552 -0.8086
    1PA    C116 9623   1.348   4.977   5.093 -0.0818 -0.1072 -0.3185
    1PA    H16R 9624   1.407   5.068   5.107  2.0754 -1.4547 -0.3412
    1PA    H16S 9625   1.305   4.949   5.190 -1.7779  1.0939 -0.6830
    1PA    H16T 9626   1.263   4.998   5.028 -1.1299  1.3781  1.4267
    1PA    C115 9627   1.437   4.866   5.034 -0.5546  0.7310  0.2101
    1PA    H15R 9628   1.512   4.831   5.106  1.3743  0.7641 -1.6597
    1PA    H15S 9629   1.383   4.772   5.020 -0.7123  0.3146  3.1542
    1PA    C114 9630   1.493   4.924   4.902  0.4382 -0.3247  0.0010
    1PA    H14R 9631   1.407   4.941   4.837  0.8748 -3.2474 -1.4987
    1PA    H14S 9632   1.521   5.027   4.925 -2.1410  0.5066 -0.2304
    1PA    C113 9633   1.588   4.828   4.833 -0.3004  0.2142 -0.1394
    1PA    H13R 9634   1.677   4.807   4.893  1.6425  3.7642 -1.4062
    1PA    H13S 9635   1.530   4.738   4.813 -0.0362  0.3229 -1.5555
    1PA    C112 9636   1.647   4.886   4.706 -0.8987 -0.3601 -0.2212
    1PA    H12R 9637   1.567   4.874   4.634 -0.8321 -2.8922  0.0415
    1PA    H12S 9638   1.688   4.986   4.723 -1.1731 -0.0482 -1.3731
    1PA    C111 9639   1.767   4.814   4.641 -0.6117  0.4407 -0.4037
    1PA    H11R 9640   1.779   4.868   4.547 -0.5868 -0.2251 -0.7878
    1PA    H11S 9641   1.850   4.813   4.712 -1.5420  1.0636  0.7309
    1PA    C110 9642   1.741   4.672   4.606  0.0380 -0.6362  0.2731
    1PA    H10R 9643   1.703   4.609   4.687 -2.0784 -0.5431 -0.5800
    1PA    H10S 9644   1.664   4.678   4.529 -1.2177 -1.7136  1.3901
    1PA     C19 9645   1.864   4.606   4.538  0.4098  0.0221 -0.3050
    1PA     H9R 9646   1.888   4.667   4.451  1.7658  2.8343  1.8579
    1PA     H9S 9647   1.953   4.614   4.601  1.1124 -2.7042 -0.8272
    1PA     C18 9648   1.856   4.455   4.503 -0.4303 -0.2615 -0.0686
    1PA     H8R 9649   1.956   4.442   4.459 -0.7921 -2.0189 -0.4308
    1PA     H8S 9650   1.837   4.387   4.586  0.4610 -1.5524 -0.8638
    1PA     C17 9651   1.751   4.433   4.396 -0.0771  0.9983  0.2375
    1PA     H7R 9652   1.752   4.324   4.386 -2.7369  1.1018 -2.2969
    1PA     H7S 9653   1.653   4.450   4.440 -0.3478  0.3538 -0.1125
    1PA     C16 9654   1.760   4.494   4.261  0.7572 -0.1178  0.7114
    1PA     H6R 9655   1.669   4.471   4.205 -0.6169  3.1706  1.3632
    1PA     H6S 9656   1.746   4.601   4.277 -1.9419 -0.1526 -0.8334
    1PA     C15 9657   1.892   4.473   4.180  0.1402 -0.1072  0.1460
    1PA     H5R 9658   1.977   4.529   4.220 -1.2964  0.6913  2.2543
    1PA     H5S 9659   1.915   4.367   4.189  1.2168  0.1893  1.1298
    1PA     C14 9660   1.865   4.522   4.034  0.3966 -0.5787  0.2865
    1PA     H4R 9661   1.775   4.479   3.990  0.4143  0.2548 -0.6017
    1PA     H4S 9662   1.858   4.631   4.034  1.4861 -0.4828 -0.5751
    1PA     C13 9663   1.978   4.480   3.938  0.2430  0.7022 -0.3028
    1PA     H3R 9664   2.070   4.517   3.983 -1.1935  0.2068  3.3744
    1PA     H3S 9665   1.991   4.371   3.935 -0.2241  0.4758  2.7234
    1PA     C12 9666   1.949   4.538   3.794  0.7354  0.7954 -0.8304
    1PA     H2R 9667   1.884   4.468   3.741  0.0065  2.3064 -2.0292
    1PA     H2S 9668   1.897   4.634   3.794 -0.3796  0.2104 -1.0649
    1PC     C11 9669   2.069   4.542   3.707  0.1435 -0.4726 -0.5579
    1PC     O12 9670   2.162   4.623   3.729  0.2965 -0.0254 -0.6653
    1PC     O11 9671   2.075   4.447   3.615  0.1388 -0.0163 -0.1766
    1PC      C1 9672   2.185   4.445   3.518  0.7790  0.5501  0.3389
    1PC      HR 9673   2.277   4.473   3.570  0.4727 -2.9017  3.0858
    1PC      HS 9674   2.208   4.346   3.479  0.3580  0.2577  0.8292
    1PC      C2 9675   2.163   4.537   3.393 -0.4105 -0.4277 -0.1406
    1PC      HX 9676   2.079   4.491   3.340 -1.9579 -2.3096  3.5550
    1PC      C3 9677   2.295   4.541   3.309  0.0509  0.4583 -0.4367
    1PC      HA 9678   2.364   4.612   3.355  0.8169 -0.7763  0.4112
    1PC      HB 9679   2.333   4.440   3.326  0.7907  0.9759  1.2156
    1PC     O31 9680   2.262   4.541   3.168  0.0132  0.1322  0.5074
    1PC     P31 9681   2.256   4.677   3.081  0.4142 -0.3150  0.0188
    1PC     O32 9682   2.109   4.731   3.111 -0.5033  0.4361  0.2352
    1PC     C31 9683   1.998   4.679   3.048  0.1961 -0.6348  1.0296
    1PC     H1A 9684   1.996   4.570   3.048  1.1483 -0.6740  0.3005
    1PC     H1B 9685   1.910   4.701   3.108  1.1000  0.2954  2.0741
    1PC     C32 9686   1.990   4.737   2.901 -0.5525  0.5774  0.0142
    1PC     H2A 9687   2.075   4.693   2.846 -1.7040  0.9150 -2.1614
    1PC     H2B 9688   1.902   4.704   2.846 -0.0822 -2.5795  0.9533
    1PC     N31 9689   1.994   4.882   2.878  0.2926  0.4986 -0.0230
    1PC     C33 9690   2.095   4.965   2.960 -0.1218  1.3477  0.1372
    1PC     H3A 9691   2.098   4.936   3.065  2.6468  1.2919  0.1301
    1PC     H3B 9692   2.197   4.951   2.924 -0.3852 -3.5633  0.5381
    1PC     H3C 9693   2.070   5.070   2.945 -1.3785  0.8405 -1.6293
    1PC     C34 9694   2.010   4.904   2.731 -0.4186  0.0072 -0.8878
    1PC     H4A 9695   1.925   4.871   2.672 -0.6080 -1.0607 -0.0548
    1PC     H4B 9696   2.037   5.008   2.713  0.4875 -0.0750 -0.0747
    1PC     H4C 9697   2.089   4.834   2.705 -1.4280 -1.8521  0.8014
    1PC     C35 9698   1.862   4.935   2.917  0.1359  0.0474 -0.4797
    1PC     H5A 9699   1.856   4.950   3.025 -2.3544  0.0474 -0.5629
    1PC     H5B 9700   1.787   4.859   2.894  0.0256  0.3358 -1.1036
    1PC     H5C 9701   1.830   5.027   2.867  0.8329  0.2034 -0.6396
    1PC     O33 9702   2.351   4.777   3.144 -0.2160 -0.0105  0.4163
    1PC     O34 9703   2.273   4.632   2.941  0.1097 -0.4694 -0.1441
    1PC     O21 9704   2.139   4.671   3.432  0.1139 -0.1160  0.2029
    1PC     C21 9705   2.016   4.725   3.435  0.3111 -0.0883  0.1267
    1PC     O22 9706   1.913   4.666   3.407 -0.2940 -0.2115 -0.6552
    1OL     C12 9707   2.015   4.865   3.485 -0.0752 -0.1014  0.2375
    1OL     H2R 9708   1.972   4.934   3.413  2.2555  1.3075  0.0818
    1OL     H2S 9709   2.121   4.890   3.492 -0.2115  1.2271 -1.7295
    1OL     C13 9710   1.943   4.882   3.620 -0.1678 -0.4477 -0.1211
    1OL     H3R 9711   1.999   4.812   3.682  0.5952 -0.5405 -0.8892
    1OL     H3S 9712   1.838   4.853   3.610 -0.4528  0.9327 -1.4589
    1OL     C14 9713   1.959   5.016   3.691  0.6601 -0.0111 -0.3020
    1OL     H4R 9714   1.910   5.014   3.788  4.0135 -1.9487  1.5301
    1OL     H4S 9715   1.905   5.089   3.630 -1.9434 -1.2075  0.4464
    1OL     C15 9716   2.103   5.066   3.724 -0.3744  0.4068 -0.9140
    1OL     H5R 9717   2.096   5.168   3.763 -0.9259 -0.1058  0.3820
    1OL     H5S 9718   2.161   5.057   3.632  1.8504 -1.1107  0.5427
    1OL     C16 9719   2.182   5.002   3.844  0.1470  0.3596 -0.1937
    1OL     H6R 9720   2.287   5.025   3.830  0.4179  1.0779  2.4255
    1OL     H6S 9721   2.178   4.894   3.829 -1.8035  0.4365 -0.4608
    1OL     C17 9722   2.145   5.042   3.982  0.2557 -0.5178 -0.2357
    1OL     H7R 9723   2.042   5.017   4.008  0.5130 -0.0345  1.3732
    1OL     H7S 9724   2.154   5.151   3.985 -0.6674 -0.4449  0.3026
    1OL     C18 9725   2.233   4.984   4.089 -0.1272  0.3775  0.5647
    1OL     H8R 9726   2.219   5.039   4.182 -1.3657  0.9144  0.0761
    1OL     H8S 9727   2.338   5.004   4.064 -0.8223  1.0542 -2.1804
    1OL     C19 9728   2.205   4.833   4.092  0.1202  0.7763  0.5220
    1OL     H9R 9729   2.235   4.773   4.007 -0.2563 -0.8790  1.5037
    1OL    C110 9730   2.149   4.768   4.191 -0.1810 -0.0002 -0.4563
    1OL    H10R 9731   2.129   4.662   4.183  0.7151 -0.3015  0.9761
    1OL    C111 9732   2.085   4.837   4.316 -0.3489  0.2323  0.5672
    1OL    H11R 9733   2.005   4.768   4.344  0.7280 -1.3846 -0.1304
    1OL    H11S 9734   2.042   4.933   4.287 -0.9331 -0.4504 -0.9153
    1OL    C112 9735   2.203   4.843   4.418 -0.2175  0.1115  0.1169
    1OL    H12R 9736   2.279   4.908   4.373  0.0280  1.2122  2.0223
    1OL    H12S 9737   2.256   4.751   4.442 -1.9703 -1.1502 -0.5913
    1OL    C113 9738   2.152   4.909   4.545  0.1672  0.2918 -0.6965
    1OL    H13R 9739   2.075   4.840   4.580 -0.4252  1.2903  0.0129
    1OL    H13S 9740   2.111   5.008   4.524  0.4111  0.3961 -0.6902
    1OL    C114 9741   2.252   4.917   4.667 -0.8509 -0.9935 -0.0971
    1OL    H14R 9742   2.286   4.820   4.703 -1.3256 -0.5220  1.7084
    1OL    H14S 9743   2.188   4.965   4.742  0.5951 -0.9821  1.1761
    1OL    C115 9744   2.371   5.012   4.642  0.1034 -0.1419  0.3604
    1OL    H15R 9745   2.331   5.103   4.597  2.3583  0.5165 -0.4479
    1OL    H15S 9746   2.433   4.963   4.566  1.5043 -1.4716  2.2673
    1OL    C116 9747   2.471   5.050   4.760  0.1934  1.1139 -0.0612
    1OL    H16R 9748   2.512   4.964   4.812  1.0349  1.6749  0.2255
    1OL    H16S 9749   2.415   5.109   4.833 -0.3713 -0.2097  0.6082
    1OL    C117 9750   2.597   5.136   4.724  0.0159  0.6878 -0.2128
    1OL    H17R 9751   2.571   5.238   4.695  0.6689  0.8663 -0.1843
    1OL    H17S 9752   2.651   5.094   4.639 -3.7940 -2.1368 -1.4989
    1OL    C118 9753   2.695   5.148   4.844 -0.0194  0.7421  0.1652
    1OL    H18R 9754   2.775   5.223   4.840  1.8788 -1.1410  0.9784
    1OL    H18S 9755   2.747   5.052   4.851 -0.4097  0.3872 -1.4356
    1OL    H18T 9756   2.642   5.169   4.937  0.2687 -0.6527  0.6667
    1PA    C116 9757   0.370   1.447   4.779  0.3382  0.6718  0.4802
    1PA    H16R 9758   0.308   1.533   4.751  0.6609  1.3452  1.7837
    1PA    H16S 9759   0.460   1.488   4.825  0.9939 -2.2529  2.0758
    1PA    H16T 9760   0.314   1.381   4.846 -0.6860 -1.8146 -2.5661
    1PA    C115 9761   0.415   1.362   4.659 -0.7140  0.2747  0.0300
    1PA    H15R 9762   0.464   1.428   4.588 -2.9716  1.2084 -0.7194
    1PA    H15S 9763   0.490   1.286   4.682 -0.3812  0.6425  0.1695
    1PA    C114 9764   0.289   1.312   4.588 -0.5536  0.1305 -0.4061
    1PA    H14R 9765   0.223   1.269   4.664 -0.8786  0.6662 -0.3790
    1PA    H14S 9766   0.232   1.396   4.547 -1.9732 -0.5342  0.1586
    1PA    C113 9767   0.312   1.187   4.495  0.8283 -0.5794  0.3149
    1PA    H13R 9768   0.372   1.113   4.547 -0.0347 -2.3450 -1.0935
    1PA    H13S 9769   0.219   1.141   4.462  0.4898  0.5760 -0.4201
    1PA    C112 9770   0.387   1.210   4.361  0.8599  0.6152 -0.4790
    1PA    H12R 9771   0.324   1.282   4.309  0.4849  2.6357  2.4771
    1PA    H12S 9772   0.484   1.256   4.384  0.6856  0.7148  0.0882
    1PA    C111 9773   0.390   1.084   4.283 -0.2749 -0.4386 -0.3408
    1PA    H11R 9774   0.428   1.007   4.350 -0.8874 -1.0084 -0.6361
    1PA    H11S 9775   0.289   1.051   4.258  0.0327 -1.1876 -0.6123
    1PA    C110 9776   0.463   1.090   4.149  0.2565  0.0225  0.0235
    1PA    H10R 9777   0.425   1.169   4.084 -1.2365 -1.0010 -0.3976
    1PA    H10S 9778   0.570   1.104   4.169  0.0299  0.5584  0.9006
    1PA     C19 9779   0.449   0.961   4.069 -0.0039 -0.0451 -0.6457
    1PA     H9R 9780   0.504   0.879   4.116  0.0660 -0.4673 -1.4465
    1PA     H9S 9781   0.345   0.930   4.062  0.2803 -1.2107  0.0730
    1PA     C18 9782   0.502   0.971   3.927 -0.5896 -0.2229 -0.4251
    1PA     H8R 9783   0.452   1.053   3.876 -0.1056  0.3830  0.0594
    1PA     H8S 9784   0.609   0.994   3.925 -0.5230 -0.4016 -3.3186
    1PA     C17 9785   0.450   0.840   3.852  0.1724 -0.2243 -0.1328
    1PA     H7R 9786   0.459   0.752   3.915  1.5994  1.2409  1.8413
    1PA     H7S 9787   0.343   0.840   3.828 -0.0271 -1.4154  0.7063
    1PA     C16 9788   0.543   0.832   3.726 -0.3033  0.2030 -0.0037
    1PA     H6R 9789   0.524   0.918   3.660 -2.3958 -0.0028  0.2689
    1PA     H6S 9790   0.648   0.822   3.756 -0.3721 -0.9697 -0.1086
    1PA     C15 9791   0.508   0.712   3.634  0.3930  0.2095 -1.2697
    1PA     H5R 9792   0.543   0.623   3.686  0.3830  0.8650 -0.1150
    1PA     H5S 9793   0.399   0.703   3.636  0.3583  0.7757  0.0884
    1PA     C14 9794   0.557   0.700   3.492  0.7963  0.0549  0.7201
    1PA     H4R 9795   0.554   0.595   3.461  3.1646  1.2641 -4.8375
    1PA     H4S 9796   0.486   0.763   3.436 -2.0624 -0.7771  3.1299
    1PA     C13 9797   0.707   0.737   3.470  0.7057  0.3936  0.2687
    1PA     H3R 9798   0.739   0.830   3.519 -0.7202  1.3811 -0.5771
    1PA     H3S 9799   0.764   0.655   3.515  0.0982  0.2149  0.7311
    1PA     C12 9800   0.742   0.753   3.318  0.2333 -0.4324  0.4677
    1PA     H2R 9801   0.672   0.814   3.260 -3.0686 -1.5536  2.9721
    1PA     H2S 9802   0.832   0.814   3.318 -0.3909  0.5084  0.9978
    1PC     C11 9803   0.768   0.624   3.250 -1.0593  0.3541  0.2903
    1PC     O12 9804   0.877   0.573   3.246  0.2222 -0.0815  0.0081
    1PC     O11 9805   0.655   0.580   3.191  0.0317 -0.3556  0.0338
    1PC      C1 9806   0.661   0.470   3.095 -0.1123  0.0869 -0.5644
    1PC      HR 9807   0.720   0.511   3.012  0.2919  0.2713 -0.1918
    1PC      HS 9808   0.711   0.386   3.143 -0.4228  0.4719  0.4563
    1PC      C2 9809   0.520   0.427   3.051 -0.5918  0.1212  0.2373
    1PC      HX 9810   0.533   0.343   2.983 -0.1645  1.1365 -0.9717
    1PC      C3 9811   0.452   0.537   2.973 -1.0909  0.0735 -0.2483
    1PC      HA 9812   0.349   0.505   2.952 -0.5156 -3.0482  1.1718
    1PC      HB 9813   0.454   0.629   3.032 -0.4035 -0.0991  0.0019
    1PC     O31 9814   0.525   0.552   2.845 -0.0859  0.2958 -0.2423
    1PC     P31 9815   0.484   0.464   2.716 -0.2581 -0.0127  0.5429
    1PC     O32 9816   0.605   0.366   2.691 -0.4157  0.1758 -0.2323
    1PC     C31 9817   0.725   0.397   2.609 -0.0671 -0.7180  0.3600
    1PC     H1A 9818   0.743   0.505   2.607 -0.6677 -0.6245 -0.5847
    1PC     H1B 9819   0.809   0.352   2.663  1.5504 -0.9559 -2.2195
    1PC     C32 9820   0.697   0.359   2.463 -0.0705  0.4543  1.4716
    1PC     H2A 9821   0.604   0.404   2.428 -0.0128  0.4149  1.2707
    1PC     H2B 9822   0.783   0.395   2.406 -0.1343 -0.3685  0.8325
    1PC     N31 9823   0.682   0.213   2.427  0.8176 -0.4659 -0.7453
    1PC     C33 9824   0.672   0.189   2.282  0.2930  0.2553  0.5640
    1PC     H3A 9825   0.668   0.081   2.267  2.3826  0.3999 -1.5676
    1PC     H3B 9826   0.584   0.241   2.243  1.3707  1.0426 -0.9026
    1PC     H3C 9827   0.766   0.228   2.243 -0.2070 -0.5098 -1.5249
    1PC     C34 9828   0.797   0.131   2.469 -0.6381 -0.9571  0.3935
    1PC     H4A 9829   0.790   0.035   2.417 -0.2067 -1.7898  1.8196
    1PC     H4B 9830   0.890   0.185   2.451  0.0495 -1.5964  1.8501
    1PC     H4C 9831   0.783   0.116   2.576  1.1313 -1.9584  0.5331
    1PC     C35 9832   0.549   0.163   2.477  0.3464  0.4532 -0.2074
    1PC     H5A 9833   0.538   0.180   2.584  1.9459  2.7255 -0.3215
    1PC     H5B 9834   0.545   0.056   2.456 -1.3752  0.2726  0.8376
    1PC     H5C 9835   0.469   0.218   2.427  0.2173  1.0989  0.6904
    1PC     O33 9836   0.373   0.381   2.754 -0.3260 -0.1517  0.2713
    1PC     O34 9837   0.476   0.559   2.602 -0.7809  0.5555  0.5056
    1PC     O21 9838   0.440   0.383   3.157 -0.2688  0.1450 -0.0182
    1PC     C21 9839   0.472   0.270   3.228  0.4463  0.4294 -0.7935
    1PC     O22 9840   0.563   0.196   3.200 -0.1768  0.1551  0.1557
    1OL     C12 9841   0.391   0.267   3.352 -0.4071  0.4699 -0.7404
    1OL     H2R 9842   0.324   0.181   3.348 -0.1742  0.3087 -1.2457
    1OL     H2S 9843   0.330   0.358   3.351 -1.0888  0.0596  0.6142
    1OL     C13 9844   0.486   0.262   3.471 -0.5097 -0.9450 -0.4497
    1OL     H3R 9845   0.554   0.347   3.462  1.4628 -2.3816  0.1449
    1OL     H3S 9846   0.553   0.176   3.482  1.3058  0.5623  0.9011
    1OL     C14 9847   0.399   0.271   3.597 -0.3098  0.5321  0.1573
    1OL     H4R 9848   0.328   0.189   3.611 -0.9241  0.5456 -2.4233
    1OL     H4S 9849   0.334   0.358   3.586  0.0328  0.6741 -0.8249
    1OL     C15 9850   0.489   0.294   3.719  0.2341 -0.3103 -0.6938
    1OL     H5R 9851   0.515   0.400   3.720 -0.8727 -0.0162 -1.5300
    1OL     H5S 9852   0.586   0.243   3.709  0.1008 -1.8641  3.7286
    1OL     C16 9853   0.428   0.262   3.857 -0.1679  0.3807 -0.5410
    1OL     H6R 9854   0.501   0.282   3.937 -0.1750 -2.0182  0.1518
    1OL     H6S 9855   0.414   0.154   3.868 -2.0099  0.8144  2.8016
    1OL     C17 9856   0.292   0.328   3.888  0.1853  0.5008 -0.2733
    1OL     H7R 9857   0.252   0.294   3.984  0.4195 -0.1655 -0.4062
    1OL     H7S 9858   0.214   0.298   3.817  0.2852 -0.0666 -0.1524
    1OL     C18 9859   0.295   0.481   3.889  0.1525 -0.7013  0.4256
    1OL     H8R 9860   0.195   0.519   3.911  0.6386  1.5759 -0.8967
    1OL     H8S 9861   0.318   0.531   3.795  1.1263 -0.0293  1.0024
    1OL     C19 9862   0.388   0.539   3.995  0.1620  0.0452  0.4479
    1OL     H9R 9863   0.488   0.539   3.953 -0.6627 -0.3730 -1.6598
    1OL    C110 9864   0.344   0.591   4.110  0.0758 -0.0814  0.1562
    1OL    H10R 9865   0.415   0.644   4.174  1.2036 -0.5641 -0.6614
    1OL    C111 9866   0.204   0.584   4.168  0.3170  0.0148 -0.3619
    1OL    H11R 9867   0.136   0.527   4.104  0.2803  1.9166 -2.1111
    1OL    H11S 9868   0.153   0.678   4.190 -1.6371 -0.5108 -2.3108
    1OL    C112 9869   0.210   0.507   4.299 -0.8051  0.8554  0.3765
    1OL    H12R 9870   0.245   0.565   4.384  1.4465 -1.7236  1.3498
    1OL    H12S 9871   0.283   0.427   4.283 -3.6045 -1.7030 -0.8895
    1OL    C113 9872   0.071   0.449   4.349  0.0531  0.3085 -0.3811
    1OL    H13R 9873  -0.011   0.521   4.347 -1.2120 -1.0887 -0.3983
    1OL    H13S 9874   0.086   0.418   4.453 -1.6390 -1.2369 -0.5479
    1OL    C114 9875   0.027   0.319   4.274 -0.1768 -0.4070 -0.3017
    1OL    H14R 9876  -0.031   0.350   4.187 -1.4407 -2.4188 -0.2215
    1OL    H14S 9877  -0.045   0.275   4.343 -0.5476 -0.9847 -1.0536
    1OL    C115 9878   0.137   0.214   4.237  0.2342 -0.0595  0.5307
    1OL    H15R 9879   0.219   0.253   4.177  0.0525  0.0855  0.3744
    1OL    H15S 9880   0.082   0.144   4.173 -1.3329  1.2520  0.3649
    1OL    C116 9881   0.184   0.138   4.365 -0.2601 -0.5928 -0.4990
    1OL    H16R 9882   0.099   0.113   4.428  0.5139  0.5161  1.0547
    1OL    H16S 9883   0.251   0.204   4.421 -3.1013  0.9015  1.4057
    1OL    C117 9884   0.247   0.006   4.329 -0.4338 -0.3840  0.5087
    1OL    H17R 9885   0.307   0.031   4.242 -2.3894  0.5775 -0.6315
    1OL    H17S 9886   0.174  -0.071   4.303 -0.2750 -0.2170 -0.4468
    1OL    C118 9887   0.332  -0.054   4.441 -0.5443 -0.4785  0.7009
    1OL    H18R 9888   0.383   0.017   4.506  0.7793 -1.0827  0.3593
    1OL    H18S 9889   0.421  -0.104   4.403 -0.2724 -1.9574  3.0543
    1OL    H18T 9890   0.262  -0.120   4.493 -1.2038  0.3972  0.9390
    1PA    C116 9891   0.405   2.588   4.800 -0.0806 -0.0996  0.5413
    1PA    H16R 9892   0.481   2.610   4.725 -0.3421 -1.0015 -0.0029
    1PA    H16S 9893   0.314   2.539   4.764  0.6246 -1.8384  1.0553
    1PA    H16T 9894   0.450   2.516   4.869  0.2682 -0.5282 -0.1210
    1PA    C115 9895   0.363   2.708   4.872 -0.4050 -0.5021  0.3400
    1PA    H15R 9896   0.257   2.689   4.890 -0.3891 -1.5593 -0.5343
    1PA    H15S 9897   0.426   2.716   4.961 -0.7701  0.5832  0.5123
    1PA    C114 9898   0.369   2.836   4.790 -0.1701  0.3817  0.6284
    1PA    H14R 9899   0.463   2.847   4.736 -0.0123 -1.4174  0.4570
    1PA    H14S 9900   0.305   2.818   4.704  3.4708 -1.6806 -1.9537
    1PA    C113 9901   0.339   2.967   4.860 -0.4846  0.0967 -0.5798
    1PA    H13R 9902   0.241   2.965   4.908  0.6928  0.7912  2.0180
    1PA    H13S 9903   0.408   2.967   4.944 -1.7755 -1.9194  0.5478
    1PA    C112 9904   0.335   3.098   4.776  0.0223  0.0382  0.0725
    1PA    H12R 9905   0.252   3.099   4.705 -0.9838 -2.2175  1.0970
    1PA    H12S 9906   0.311   3.180   4.844 -1.0686  0.8294 -1.2425
    1PA    C111 9907   0.463   3.129   4.698 -0.3036 -0.0178 -0.5926
    1PA    H11R 9908   0.551   3.133   4.763 -0.6123  0.5538 -0.1994
    1PA    H11S 9909   0.485   3.063   4.614  0.7242 -0.9578  0.3707
    1PA    C110 9910   0.452   3.272   4.640 -0.4163  0.5220 -0.7751
    1PA    H10R 9911   0.358   3.274   4.585 -0.8315 -0.9110 -0.1738
    1PA    H10S 9912   0.456   3.346   4.720  0.5756 -0.9221  0.5777
    1PA     C19 9913   0.562   3.320   4.538 -0.1842  0.2735 -0.5650
    1PA     H9R 9914   0.553   3.428   4.526 -0.4671  0.0939 -2.2270
    1PA     H9S 9915   0.663   3.294   4.570  0.7981  1.4329 -2.5059
    1PA     C18 9916   0.553   3.263   4.401 -0.2985  0.2451 -0.5361
    1PA     H8R 9917   0.616   3.174   4.397 -0.4542  0.0979  0.1262
    1PA     H8S 9918   0.452   3.246   4.363  0.2899 -1.1918 -1.5544
    1PA     C17 9919   0.613   3.363   4.299 -0.1161  0.1712  0.2265
    1PA     H7R 9920   0.560   3.458   4.303  0.7754  0.7441 -0.8416
    1PA     H7S 9921   0.714   3.389   4.331  0.3366  0.4173 -1.3193
    1PA     C16 9922   0.627   3.308   4.158  0.1107 -0.3965  0.2236
    1PA     H6R 9923   0.704   3.231   4.154 -0.1276 -0.7761  1.9114
    1PA     H6S 9924   0.527   3.266   4.145 -0.8069  0.3315  3.7150
    1PA     C15 9925   0.657   3.423   4.055  0.7325  0.1395  0.0755
    1PA     H5R 9926   0.583   3.503   4.055 -0.7192 -1.1246 -1.6210
    1PA     H5S 9927   0.746   3.477   4.090 -0.3756  0.5542  2.4471
    1PA     C14 9928   0.668   3.365   3.913 -0.3219 -0.1489  0.2038
    1PA     H4R 9929   0.686   3.446   3.842  0.5705 -0.3086  0.2422
    1PA     H4S 9930   0.761   3.310   3.900 -0.5783 -0.7375  0.8085
    1PA     C13 9931   0.550   3.277   3.869 -0.3293 -0.4297  0.0410
    1PA     H3R 9932   0.523   3.199   3.941  0.8842  0.9804  2.1151
    1PA     H3S 9933   0.466   3.343   3.844  0.4374  0.4925 -0.1551
    1PA     C12 9934   0.585   3.209   3.732  0.0985 -0.4262 -0.1234
    1PA     H2R 9935   0.617   3.287   3.663  0.2019 -0.3257  0.0394
    1PA     H2S 9936   0.668   3.139   3.745  0.7859  0.3211 -0.4045
    1PC     C11 9937   0.467   3.134   3.667 -0.3851 -0.3054 -0.9727
    1PC     O12 9938   0.370   3.103   3.730  0.0362 -0.3199  0.4429
    1PC     O11 9939   0.482   3.096   3.541  0.3130 -0.2253 -0.4266
    1PC      C1 9940   0.359   3.049   3.473  0.4815  0.1567  0.2959
    1PC      HR 9941   0.387   2.982   3.392  3.7021  2.1019 -0.3841
    1PC      HS 9942   0.294   2.996   3.543  1.0527  1.8095  2.1757
    1PC      C2 9943   0.276   3.168   3.407  0.2306  0.5855  0.3709
    1PC      HX 9944   0.188   3.130   3.355  0.7308  1.7481 -1.4544
    1PC      C3 9945   0.368   3.238   3.297  0.2718 -0.0660  0.2566
    1PC      HA 9946   0.335   3.339   3.274  1.2481  0.4558  1.1263
    1PC      HB 9947   0.470   3.239   3.334  0.1420 -0.2564  0.6286
    1PC     O31 9948   0.377   3.160   3.175 -0.2161 -0.3595  0.0840
    1PC     P31 9949   0.279   3.198   3.049 -0.5341 -0.2481 -0.2159
    1PC     O32 9950   0.140   3.148   3.092  0.1086 -0.1380 -0.5176
    1PC     C31 9951   0.112   3.010   3.105 -0.1090  0.7275  0.2219
    1PC     H1A 9952   0.187   2.941   3.064 -1.0901 -0.1484 -0.1422
    1PC     H1B 9953   0.103   2.981   3.210  0.1587  0.4605  0.1725
    1PC     C32 9954  -0.026   2.975   3.039 -0.1701 -0.0510 -0.6790
    1PC     H2A 9955  -0.049   2.872   3.068 -0.9211 -0.4045 -2.3896
    1PC     H2B 9956  -0.099   3.035   3.093  0.8576  0.5340  0.0905
    1PC     N31 9957  -0.054   2.996   2.891 -0.2088  0.0946 -0.3555
    1PC     C33 9958  -0.178   2.917   2.856  0.7142  0.6569  0.8004
    1PC     H3A 9959  -0.217   2.961   2.765  0.4292 -0.5142  0.3379
    1PC     H3B 9960  -0.146   2.813   2.847  0.7406  0.6861  0.5534
    1PC     H3C 9961  -0.251   2.919   2.937  1.6148  1.2599  1.6293
    1PC     C34 9962  -0.089   3.143   2.877  0.3041  0.1044  0.3012
    1PC     H4A 9963  -0.164   3.174   2.950  1.1757  1.7686  0.5529
    1PC     H4B 9964   0.002   3.196   2.905  0.7449  0.4006 -1.5637
    1PC     H4C 9965  -0.134   3.165   2.780 -0.2274 -3.3653 -0.3620
    1PC     C35 9966   0.054   2.980   2.784  0.5154 -0.4408  0.1080
    1PC     H5A 9967   0.129   3.055   2.808  0.3495  0.0435 -0.8443
    1PC     H5B 9968   0.008   2.989   2.685  0.7144 -2.0604 -0.1510
    1PC     H5C 9969   0.099   2.882   2.797  1.1178 -0.0323  1.1816
    1PC     O33 9970   0.266   3.346   3.044  0.0362 -0.3572 -0.9496
    1PC     O34 9971   0.322   3.123   2.931  0.1466  0.0242  0.2311
    1PC     O21 9972   0.234   3.269   3.495 -0.8427  0.2802 -0.1301
    1PC     C21 9973   0.118   3.254   3.560  0.2145 -0.0066 -0.1738
    1PC     O22 9974   0.050   3.154   3.551 -0.7594  0.0225 -0.4151
    1OL     C12 9975   0.077   3.371   3.646 -0.6231  0.1878 -0.0326
    1OL     H2R 9976  -0.022   3.350   3.685 -0.5781 -0.0454 -0.0426
    1OL     H2S 9977   0.082   3.463   3.587 -1.3349  1.0924  1.2609
    1OL     C13 9978   0.169   3.393   3.765  0.0304 -0.2458  0.4158
    1OL     H3R 9979   0.177   3.501   3.781  1.5976  0.0735 -1.9819
    1OL     H3S 9980   0.270   3.366   3.733 -0.8961 -1.4315 -1.7251
    1OL     C14 9981   0.140   3.317   3.898 -0.1611  0.2466  1.0864
    1OL     H4R 9982   0.174   3.213   3.901  0.4719  0.4250  0.4025
    1OL     H4S 9983   0.035   3.319   3.928 -0.3592  0.1877  0.4168
    1OL     C15 9984   0.210   3.387   4.010  0.0232  0.5330 -0.6952
    1OL     H5R 9985   0.184   3.493   4.001  1.7311  0.8137 -3.6638
    1OL     H5S 9986   0.318   3.386   3.990 -0.2548  2.4541 -2.6148
    1OL     C16 9987   0.184   3.333   4.152 -0.0866  0.0308  0.4038
    1OL     H6R 9988   0.084   3.367   4.178 -0.3970 -0.6029  0.0756
    1OL     H6S 9989   0.241   3.385   4.229 -2.7255  0.4985  2.1650
    1OL     C17 9990   0.189   3.178   4.161  0.3785  0.0506 -0.8430
    1OL     H7R 9991   0.295   3.155   4.155  0.8235  0.7369  2.5737
    1OL     H7S 9992   0.143   3.141   4.069  0.0336  0.1191 -0.7026
    1OL     C18 9993   0.115   3.107   4.281 -0.2708  0.2801 -0.0527
    1OL     H8R 9994   0.155   3.006   4.291  0.7688  0.5352 -1.4491
    1OL     H8S 9995   0.007   3.105   4.263 -0.4634  0.4006  0.9797
    1OL     C19 9996   0.144   3.174   4.418  0.3531  0.1910  1.0819
    1OL     H9R 9997   0.238   3.141   4.462 -0.4300 -0.2376  2.4966
    1OL    C110 9998   0.066   3.255   4.482  0.7698 -0.1877 -0.2598
    1OL    H10R 9999   0.110   3.301   4.571 -1.2524 -2.0380  1.8375
    1OL    C11110000  -0.070   3.309   4.428 -0.1864 -0.0433 -0.1635
    1OL    H11R10001  -0.150   3.300   4.501 -1.5944  1.6764 -1.4168
    1OL    H11S10002  -0.102   3.267   4.333 -0.6674 -0.7545  0.3039
    1OL    C11210003  -0.058   3.463   4.405  0.1602  0.2952  0.2838
    1OL    H12R10004  -0.160   3.493   4.379 -1.4501 -3.3083  1.7215
    1OL    H12S10005   0.024   3.485   4.337  0.7856 -0.7243  0.6935
    1OL    C11310006  -0.021   3.545   4.531  0.0013  0.2165  0.2642
    1OL    H13R10007   0.079   3.509   4.555 -0.9377 -2.1618  0.9143
    1OL    H13S10008  -0.082   3.509   4.614 -0.2742 -0.1493 -0.0970
    1OL    C11410009  -0.043   3.694   4.515  0.0459  0.7284  0.2303
    1OL    H14R10010  -0.000   3.722   4.419 -1.9397 -1.2892 -1.3411
    1OL    H14S10011   0.014   3.751   4.589 -0.2434 -0.0360  1.0594
    1OL    C11510012  -0.188   3.748   4.511  0.5552 -0.1452  0.1993
    1OL    H15R10013  -0.202   3.777   4.616  4.2432  1.3864  0.4278
    1OL    H15S10014  -0.258   3.677   4.467 -1.5421  2.2554 -0.6278
    1OL    C11610015  -0.197   3.880   4.426  0.1313  0.1394 -1.1253
    1OL    H16R10016  -0.303   3.892   4.404  0.0724  0.3231 -0.7458
    1OL    H16S10017  -0.146   3.860   4.331  0.1042 -1.7452 -0.7661
    1OL    C11710018  -0.127   3.999   4.494  0.0679  0.4461  0.6432
    1OL    H17R10019  -0.121   4.082   4.423 -3.8857  1.4257  1.2054
    1OL    H17S10020  -0.025   3.966   4.514 -0.1865 -1.5216 -0.9842
    1OL    C11810021  -0.217   4.046   4.615  0.4838 -0.4225  0.7762
    1OL    H18R10022  -0.323   4.062   4.593  0.7587  1.3836  0.5507
    1OL    H18S10023  -0.172   4.142   4.643  1.0502 -0.6639  0.7156
    1OL    H18T10024  -0.215   3.982   4.704 -0.5903 -0.5061  0.7454
    1PA    C11610025   1.715   1.220   4.780  0.2392 -0.4518 -0.1235
    1PA    H16R10026   1.763   1.154   4.707  0.4480 -0.2286 -0.1923
    1PA    H16S10027   1.777   1.258   4.861  0.2152 -0.3207 -0.1652
    1PA    H16T10028   1.702   1.313   4.724  3.6802  1.3384  1.7022
    1PA    C11510029   1.589   1.155   4.837 -0.1966  0.2192 -0.6079
    1PA    H15R10030   1.624   1.064   4.887 -1.5697  0.9470  1.8970
    1PA    H15S10031   1.551   1.225   4.913  0.1983 -2.1452  1.9357
    1PA    C11410032   1.483   1.131   4.727 -0.3225  0.1690 -0.1019
    1PA    H14R10033   1.527   1.073   4.645 -0.6134  0.9605 -0.8301
    1PA    H14S10034   1.408   1.058   4.758  0.2270 -0.2020  0.3736
    1PA    C11310035   1.420   1.255   4.662 -0.6184  0.4042 -0.2193
    1PA    H13R10036   1.507   1.309   4.624  1.4395 -2.5719 -0.1320
    1PA    H13S10037   1.356   1.219   4.581  1.0593  0.8146 -1.8022
    1PA    C11210038   1.342   1.332   4.768  0.0185  0.1181 -0.7657
    1PA    H12R10039   1.265   1.267   4.808 -0.0782  0.9435  0.4564
    1PA    H12S10040   1.401   1.355   4.857 -2.9457 -1.0374  1.6649
    1PA    C11110041   1.285   1.456   4.708 -0.4621  0.1464 -0.0816
    1PA    H11R10042   1.229   1.502   4.790 -1.0664 -0.6413 -0.0347
    1PA    H11S10043   1.373   1.515   4.686  0.3482 -0.7838  0.5657
    1PA    C11010044   1.197   1.432   4.578  0.0124 -0.3788 -0.4096
    1PA    H10R10045   1.250   1.408   4.486  0.4394  1.4503 -0.6814
    1PA    H10S10046   1.139   1.345   4.611  0.7736 -0.2719  1.3583
    1PA     C1910047   1.105   1.561   4.554 -0.6075  0.0650 -0.3978
    1PA     H9R10048   1.051   1.537   4.462  0.7179  0.3590 -1.2815
    1PA     H9S10049   1.031   1.575   4.633 -0.3671  0.4919 -0.2445
    1PA     C1810050   1.169   1.695   4.528  0.1638  0.0013  0.0951
    1PA     H8R10051   1.084   1.763   4.523 -1.2747 -1.8055 -1.2252
    1PA     H8S10052   1.244   1.716   4.605 -0.5270  0.8099  0.5687
    1PA     C1710053   1.240   1.707   4.392  0.0584  0.2012  0.3480
    1PA     H7R10054   1.327   1.772   4.390  0.8527 -0.7890  1.5475
    1PA     H7S10055   1.278   1.606   4.372  1.5978  0.0600  3.4422
    1PA     C1610056   1.148   1.731   4.276  0.5042  0.6395  0.2577
    1PA     H6R10057   1.057   1.671   4.279 -0.6753  2.2914 -0.7810
    1PA     H6S10058   1.103   1.829   4.291  0.9357  0.5822  2.1965
    1PA     C1510059   1.215   1.731   4.138 -0.3015 -0.0044  0.2290
    1PA     H5R10060   1.145   1.788   4.077  0.3426  0.9041  0.3164
    1PA     H5S10061   1.305   1.792   4.150 -1.6764  2.1592  0.0199
    1PA     C1410062   1.240   1.597   4.071 -0.1970 -0.1156 -0.5099
    1PA     H4R10063   1.308   1.526   4.119 -0.9714  0.6211  1.7613
    1PA     H4S10064   1.153   1.532   4.068  0.2687 -0.7274 -1.2727
    1PA     C1310065   1.290   1.606   3.923  0.4417  0.1065 -0.0329
    1PA     H3R10066   1.307   1.508   3.880  0.4805 -0.2000  0.6679
    1PA     H3S10067   1.223   1.669   3.864  0.6881  0.6630  0.2625
    1PA     C1210068   1.425   1.678   3.904  0.3758  0.3179  0.0299
    1PA     H2R10069   1.416   1.777   3.950 -0.9543 -0.5049  1.6355
    1PA     H2S10070   1.504   1.621   3.952 -1.0753 -2.4546 -0.6411
    1PC     C1110071   1.469   1.691   3.755  0.2519 -0.2586 -0.2914
    1PC     O1210072   1.412   1.765   3.678  0.1017 -0.3604  0.2456
    1PC     O1110073   1.574   1.610   3.725  0.3408  0.0047 -0.2001
    1PC      C110074   1.629   1.631   3.588  0.5188 -0.3663 -0.5610
    1PC      HR10075   1.556   1.609   3.510 -0.7944 -0.8227  0.7604
    1PC      HS10076   1.654   1.737   3.579 -2.1430  0.4013  0.4717
    1PC      C210077   1.764   1.546   3.563 -0.4347  0.2422 -0.2164
    1PC      HX10078   1.826   1.581   3.480  1.2260 -1.4782  0.2311
    1PC      C310079   1.720   1.398   3.536  0.5026  0.3493 -0.1971
    1PC      HA10080   1.813   1.343   3.525 -0.6655 -1.3332 -2.5711
    1PC      HB10081   1.670   1.360   3.625 -0.5524  1.8206 -0.1122
    1PC     O3110082   1.647   1.382   3.411  0.2335  0.3088 -0.1825
    1PC     P3110083   1.698   1.434   3.261  0.3360  0.4396 -0.4082
    1PC     O3210084   1.848   1.389   3.250 -0.1479 -0.1502 -0.0324
    1PC     C3110085   1.895   1.252   3.241  0.1634 -0.6649  0.0786
    1PC     H1A10086   1.994   1.242   3.285  0.2729  0.3390  0.0698
    1PC     H1B10087   1.824   1.178   3.281  1.3871 -1.0749  1.5860
    1PC     C3210088   1.898   1.226   3.090 -0.3003  0.7109 -0.1313
    1PC     H2A10089   1.794   1.204   3.067 -0.3268  0.5179  0.1710
    1PC     H2B10090   1.937   1.311   3.032 -0.1799 -0.3805 -1.7117
    1PC     N3110091   1.984   1.096   3.056  0.2354 -0.5962  0.2153
    1PC     C3310092   2.133   1.131   3.049 -0.3101  0.1120 -0.0354
    1PC     H3A10093   2.156   1.205   2.973  1.9040 -1.3088 -0.8553
    1PC     H3B10094   2.171   1.147   3.150  1.9140  1.4226 -1.0133
    1PC     H3C10095   2.189   1.040   3.023  0.7221  0.3003  1.4270
    1PC     C3410096   1.974   0.979   3.154  0.6962  0.7186 -0.1264
    1PC     H4A10097   1.867   0.961   3.167  0.4507  1.5824 -0.8170
    1PC     H4B10098   2.014   0.898   3.092  0.4927  1.0771 -0.7273
    1PC     H4C10099   2.019   1.005   3.249 -3.3001  0.1314  2.1595
    1PC     C3510100   1.954   1.046   2.921 -0.6337  0.0008 -0.3506
    1PC     H5A10101   2.039   0.987   2.887 -0.1316 -0.7367  2.0373
    1PC     H5B10102   1.953   1.139   2.864 -0.0188  1.9954  2.6661
    1PC     H5C10103   1.859   0.993   2.915 -0.1865 -0.8143 -0.3831
    1PC     O3310104   1.615   1.364   3.162  0.0288 -0.0659 -0.0405
    1PC     O3410105   1.701   1.581   3.259 -0.2417 -0.1934 -0.0497
    1PC     O2110106   1.853   1.539   3.677 -0.3050 -0.1421 -0.5305
    1PC     C2110107   1.953   1.632   3.690  0.4054  0.2075 -0.2223
    1PC     O2210108   1.973   1.717   3.605 -0.2436  0.1643  0.0661
    1OL     C1210109   2.024   1.610   3.821  0.4026  0.8535  0.8985
    1OL     H2R10110   2.101   1.533   3.814 -0.3793  0.1711 -0.7764
    1OL     H2S10111   1.946   1.570   3.887 -1.9431  0.6531 -1.8252
    1OL     C1310112   2.085   1.743   3.868  0.3633  0.1567  0.5487
    1OL     H3R10113   2.011   1.823   3.864 -0.9597 -1.0106  0.8455
    1OL     H3S10114   2.176   1.771   3.814  0.2009  0.0323  0.2085
    1OL     C1410115   2.117   1.732   4.017  0.1184  0.4759 -0.2503
    1OL     H4R10116   2.200   1.661   4.028  0.2166  0.3892 -1.4582
    1OL     H4S10117   2.034   1.693   4.077  0.5746  0.8020  0.6185
    1OL     C1510118   2.164   1.865   4.079  0.4006  0.2861  0.6333
    1OL     H5R10119   2.089   1.940   4.055  0.4734 -0.5475 -2.6841
    1OL     H5S10120   2.248   1.896   4.017  0.1215 -0.0979  0.0578
    1OL     C1610121   2.206   1.876   4.219 -0.7708 -0.1689 -0.1256
    1OL     H6R10122   2.238   1.976   4.247 -1.1888  0.4413 -1.7186
    1OL     H6S10123   2.285   1.801   4.231 -0.9747 -0.4580 -0.5560
    1OL     C1710124   2.101   1.841   4.326  0.1225 -0.0552  0.3943
    1OL     H7R10125   2.052   1.747   4.300  0.7152 -0.2525 -0.0167
    1OL     H7S10126   2.014   1.907   4.335  0.9007  0.7483  2.6221
    1OL     C1810127   2.169   1.834   4.460  0.2365 -0.0270  0.3725
    1OL     H8R10128   2.087   1.826   4.531  0.5773 -1.1835  0.6477
    1OL     H8S10129   2.227   1.923   4.489 -3.0483  1.9419  1.4251
    1OL     C1910130   2.257   1.711   4.463 -0.3972  0.0952 -0.2596
    1OL     H9R10131   2.354   1.727   4.417  0.1131 -3.3903 -0.6527
    1OL    C11010132   2.227   1.594   4.512 -0.2310  0.1005 -0.1378
    1OL    H10R10133   2.282   1.502   4.496 -4.2759 -2.5954  0.1454
    1OL    C11110134   2.106   1.556   4.590  0.4167 -0.0575  0.5062
    1OL    H11R10135   2.020   1.614   4.555  1.1923  1.4819  1.0347
    1OL    H11S10136   2.127   1.578   4.695 -1.7996 -0.1298  1.0162
    1OL    C11210137   2.078   1.403   4.580  0.5545  0.1180  0.3427
    1OL    H12R10138   2.073   1.374   4.475  0.5134 -2.0413  0.8887
    1OL    H12S10139   1.983   1.376   4.626 -0.7239  0.3105 -2.0298
    1OL    C11310140   2.190   1.313   4.647  0.6573  0.4471  0.4537
    1OL    H13R10141   2.183   1.316   4.756 -2.3886  0.5909  0.3239
    1OL    H13S10142   2.291   1.343   4.616  0.9214  0.2077  1.0675
    1OL    C11410143   2.155   1.172   4.599 -0.4272  0.3569 -0.1733
    1OL    H14R10144   2.148   1.161   4.490  2.9699 -0.2191 -0.4298
    1OL    H14S10145   2.052   1.152   4.631 -0.7134  0.1030 -1.2119
    1OL    C11510146   2.253   1.067   4.651 -0.2048 -0.6339 -0.1956
    1OL    H15R10147   2.353   1.080   4.610  0.0409 -1.3754  0.1589
    1OL    H15S10148   2.225   0.977   4.594  1.2002 -0.1254 -1.7727
    1OL    C11610149   2.249   1.038   4.805  0.1682 -0.2452 -0.3553
    1OL    H16R10150   2.148   1.005   4.829  0.2785 -1.2356 -1.1867
    1OL    H16S10151   2.260   1.129   4.863 -1.4588 -0.7421  0.8030
    1OL    C11710152   2.349   0.927   4.847  0.0654 -0.5810 -0.9884
    1OL    H17R10153   2.321   0.834   4.798  0.2265 -0.4754 -1.2795
    1OL    H17S10154   2.346   0.910   4.955 -3.3684 -0.1682 -0.8830
    1OL    C11810155   2.502   0.954   4.813 -0.3271 -0.1184 -1.2059
    1OL    H18R10156   2.518   1.060   4.830  1.3327 -0.8275  2.5545
    1OL    H18S10157   2.539   0.935   4.712  1.5543  0.1083 -0.6028
    1OL    H18T10158   2.565   0.897   4.881  1.3034  0.9216 -1.7933
    1PA    C11610159   0.440   3.681   5.103  0.0077  0.6690  0.2568
    1PA    H16R10160   0.502   3.592   5.095 -0.2224  0.4462  0.8969
    1PA    H16S10161   0.369   3.672   5.186 -0.0756 -0.7575  0.0676
    1PA    H16T10162   0.498   3.773   5.105 -0.4642  0.9657  0.9176
    1PA    C11510163   0.370   3.664   4.959  0.5268  0.3080 -0.2283
    1PA    H15R10164   0.322   3.566   4.957 -1.9804  1.4521 -0.1035
    1PA    H15S10165   0.292   3.737   4.940 -0.8004 -0.8221  0.6851
    1PA    C11410166   0.466   3.678   4.841 -0.1739  0.2771 -0.4004
    1PA    H14R10167   0.535   3.762   4.857 -0.2332  0.2933 -0.2335
    1PA    H14S10168   0.511   3.579   4.830 -1.4206 -0.5077  1.2353
    1PA    C11310169   0.390   3.715   4.706 -0.2221  0.1687 -0.4095
    1PA    H13R10170   0.324   3.629   4.690  0.0642 -0.7907  2.7464
    1PA    H13S10171   0.319   3.795   4.725 -1.2840 -0.5952 -1.0435
    1PA    C11210172   0.497   3.737   4.585  0.0253 -0.1744 -0.0755
    1PA    H12R10173   0.549   3.829   4.612  0.7770 -1.0471  1.5175
    1PA    H12S10174   0.565   3.653   4.574 -1.3143 -1.4917  1.2381
    1PA    C11110175   0.418   3.757   4.455  0.2260  0.6738 -0.2281
    1PA    H11R10176   0.356   3.671   4.430  0.3843  0.0109  1.5033
    1PA    H11S10177   0.347   3.838   4.476 -0.8724 -0.0855 -0.8976
    1PA    C11010178   0.499   3.791   4.327  0.0241 -0.3798 -0.4895
    1PA    H10R10179   0.558   3.702   4.303  1.2031  0.1927  0.2149
    1PA    H10S10180   0.429   3.811   4.246  0.5626 -1.1663 -1.1654
    1PA     C1910181   0.598   3.905   4.339 -0.1603  0.0118  0.0425
    1PA     H9R10182   0.550   4.003   4.351  2.2433  1.1863  0.7839
    1PA     H9S10183   0.653   3.902   4.433 -1.2096  1.8668  0.7645
    1PA     C1810184   0.696   3.923   4.226  0.3330  0.1360 -0.6050
    1PA     H8R10185   0.777   3.850   4.228  0.1130 -0.1133  1.7107
    1PA     H8S10186   0.642   3.903   4.132 -0.5012 -0.9343  0.0799
    1PA     C1710187   0.759   4.068   4.214  0.3865  0.7621  0.2284
    1PA     H7R10188   0.685   4.148   4.210  0.8473  1.1414 -1.8966
    1PA     H7S10189   0.817   4.089   4.304 -0.4048  2.3710  0.4121
    1PA     C1610190   0.853   4.078   4.091 -0.0526  0.0628  0.2830
    1PA     H6R10191   0.936   4.009   4.107  0.1466 -0.0148 -0.9485
    1PA     H6S10192   0.795   4.046   4.004 -0.3835  1.9224 -0.2330
    1PA     C1510193   0.897   4.223   4.050 -0.3016  0.1357  0.3238
    1PA     H5R10194   0.803   4.279   4.045 -0.0592  0.5783  0.6941
    1PA     H5S10195   0.960   4.270   4.125  1.0464  4.1618 -2.9723
    1PA     C1410196   0.972   4.226   3.917  0.1485  1.0966  0.2634
    1PA     H4R10197   1.079   4.221   3.938 -0.1259  0.6395  1.6176
    1PA     H4S10198   0.943   4.138   3.858  1.1696  1.6961 -1.1963
    1PA     C1310199   0.953   4.355   3.841  0.0112  0.4793 -0.1335
    1PA     H3R10200   0.849   4.368   3.809 -0.2036 -1.2678 -0.2630
    1PA     H3S10201   0.984   4.438   3.904 -0.4247 -0.3669  1.2182
    1PA     C1210202   1.046   4.349   3.724  0.0748 -0.0824  0.9269
    1PA     H2R10203   1.149   4.369   3.753 -0.1174  0.3380  1.3246
    1PA     H2S10204   1.038   4.258   3.664 -0.7611  0.7189 -0.2207
    1PC     C1110205   1.024   4.470   3.626  0.0233 -0.0369 -0.8218
    1PC     O1210206   0.930   4.553   3.634 -0.1262  0.3637  0.2701
    1PC     O1110207   1.108   4.469   3.523  0.2632 -0.5389  0.2122
    1PC      C110208   1.096   4.572   3.415  0.0785  0.3914  0.1187
    1PC      HR10209   0.998   4.563   3.368  0.2707 -0.1840 -0.1750
    1PC      HS10210   1.089   4.670   3.463 -1.9156  0.3358  0.0254
    1PC      C210211   1.223   4.563   3.320 -0.3672  0.2542 -0.4311
    1PC      HX10212   1.211   4.637   3.241 -0.2042  0.7619  0.0098
    1PC      C310213   1.236   4.417   3.269 -0.3383 -0.3654  0.2441
    1PC      HA10214   1.267   4.346   3.346  0.8107  1.7643  1.8527
    1PC      HB10215   1.141   4.379   3.228 -0.3529  1.6575 -1.8008
    1PC     O3110216   1.339   4.414   3.166  0.5090 -0.4657  0.2328
    1PC     P3110217   1.312   4.475   3.024  0.4198 -0.3385 -0.1347
    1PC     O3210218   1.282   4.346   2.943 -0.2103 -0.1485  0.0592
    1PC     C3110219   1.382   4.241   2.924  0.6225  0.7454 -0.3286
    1PC     H1A10220   1.435   4.237   3.019 -0.1598  2.4001  0.2247
    1PC     H1B10221   1.335   4.143   2.916  1.8581 -0.0307  1.2927
    1PC     C3210222   1.454   4.272   2.792 -0.3714  0.7030 -0.8521
    1PC     H2A10223   1.385   4.268   2.708  0.0636 -1.4613 -1.1446
    1PC     H2B10224   1.499   4.372   2.797  1.8122 -0.1902 -1.6172
    1PC     N3110225   1.574   4.184   2.752 -0.4013 -0.1426  0.1980
    1PC     C3310226   1.614   4.235   2.616  0.5200 -0.0725 -0.5325
    1PC     H3A10227   1.634   4.341   2.634  1.2330 -0.2541 -0.2383
    1PC     H3B10228   1.702   4.184   2.577  0.6073  0.2731 -0.7936
    1PC     H3C10229   1.531   4.215   2.548  0.3108  0.6260 -0.4903
    1PC     C3410230   1.685   4.206   2.851  0.0378 -0.6441  0.4374
    1PC     H4A10231   1.714   4.311   2.842  1.1978 -1.0092 -0.2811
    1PC     H4B10232   1.655   4.179   2.952  0.6210 -0.3233  0.7000
    1PC     H4C10233   1.773   4.150   2.818  0.9428  0.8261  0.2495
    1PC     C3510234   1.560   4.038   2.745  0.7217 -0.5078  0.5967
    1PC     H5A10235   1.502   4.013   2.656  1.1746  0.0623  0.1283
    1PC     H5B10236   1.526   4.006   2.843  1.7437  0.4347  1.2810
    1PC     H5C10237   1.655   3.987   2.728  1.0906  0.1550  0.6560
    1PC     O3310238   1.185   4.556   3.012  0.3313  0.4745  0.3617
    1PC     O3410239   1.435   4.533   2.970 -0.2602 -0.4047  0.0286
    1PC     O2110240   1.340   4.604   3.401  0.1614  0.1426  0.6791
    1PC     C2110241   1.367   4.741   3.422  0.3876  0.3832 -0.3099
    1PC     O2210242   1.289   4.825   3.405  0.4174 -0.6367  0.0789
    1OL     C1210243   1.496   4.768   3.480  0.1284 -0.0959 -0.0977
    1OL     H2R10244   1.538   4.865   3.450 -0.7905  0.5710  0.6861
    1OL     H2S10245   1.556   4.682   3.451 -0.0533 -0.4837  0.6581
    1OL     C1310246   1.496   4.766   3.637  0.4044 -0.2062 -0.1616
    1OL     H3R10247   1.598   4.747   3.672  0.0945  0.7871  1.3972
    1OL     H3S10248   1.441   4.676   3.665 -1.1613  0.4446 -1.0161
    1OL     C1410249   1.442   4.892   3.709  0.0976  0.0623  0.0371
    1OL     H4R10250   1.337   4.911   3.685 -0.7193 -2.3534  1.3604
    1OL     H4S10251   1.509   4.973   3.680  1.6530 -0.7352  1.2097
    1OL     C1510252   1.457   4.880   3.858 -0.3690  0.3586  0.5010
    1OL     H5R10253   1.560   4.876   3.892 -0.9926  3.0709  3.0780
    1OL     H5S10254   1.406   4.793   3.900 -0.3562  1.6704  3.4857
    1OL     C1610255   1.392   5.011   3.913 -0.3592 -0.4442  0.1745
    1OL     H6R10256   1.294   5.024   3.868 -0.2191  1.2133  0.2890
    1OL     H6S10257   1.458   5.095   3.891 -2.5053  1.2267 -0.2619
    1OL     C1710258   1.370   5.010   4.069 -0.3821  0.4294 -0.8815
    1OL     H7R10259   1.332   4.913   4.102  1.3019 -0.2292 -0.7689
    1OL     H7S10260   1.280   5.067   4.092 -0.7023  0.9887 -3.2768
    1OL     C1810261   1.486   5.050   4.162 -0.5631 -0.1501 -0.3743
    1OL     H8R10262   1.437   5.051   4.260 -0.1200 -0.0148 -0.1498
    1OL     H8S10263   1.521   5.153   4.149  0.7585 -0.4106  0.7717
    1OL     C1910264   1.609   4.960   4.160 -0.0287 -0.3311  0.4001
    1OL     H9R10265   1.596   4.853   4.172 -0.0292 -0.3359  0.3553
    1OL    C11010266   1.731   4.991   4.122 -0.4980 -0.8710  0.4568
    1OL    H10R10267   1.813   4.920   4.112  0.8700  0.5486  1.1214
    1OL    C11110268   1.772   5.138   4.091  0.1494  0.5896 -0.5363
    1OL    H11R10269   1.689   5.206   4.073 -1.6549 -0.3456  3.2003
    1OL    H11S10270   1.822   5.124   3.995 -1.1539 -1.8861 -0.9429
    1OL    C11210271   1.880   5.198   4.179 -0.2913  0.3538 -0.2481
    1OL    H12R10272   1.881   5.303   4.150  2.3636  0.5686  0.4002
    1OL    H12S10273   1.979   5.159   4.157  0.1132  0.1977  1.7291
    1OL    C11310274   1.846   5.175   4.330  0.2890 -0.3505  0.6385
    1OL    H13R10275   1.843   5.067   4.342 -2.1356 -0.5608 -0.9983
    1OL    H13S10276   1.743   5.210   4.347  0.0920 -0.3516 -0.4875
    1OL    C11410277   1.934   5.249   4.429  0.1079  0.4216 -0.4043
    1OL    H14R10278   1.910   5.356   4.427 -0.2400  0.3765  0.6467
    1OL    H14S10279   2.041   5.235   4.415 -0.2741 -1.3055 -1.8796
    1OL    C11510280   1.897   5.197   4.572  0.0193 -0.1581 -0.3984
    1OL    H15R10281   1.892   5.088   4.577  0.7559 -0.2785 -1.7262
    1OL    H15S10282   1.793   5.224   4.592 -0.6755 -1.8566 -1.4678
    1OL    C11610283   1.997   5.248   4.681  0.7548 -0.1270  0.6602
    1OL    H16R10284   1.983   5.356   4.692 -0.7206 -0.3822  1.6295
    1OL    H16S10285   2.098   5.224   4.649  0.2601  0.1303 -1.2145
    1OL    C11710286   1.957   5.184   4.818  0.1648 -0.1289 -0.3766
    1OL    H17R10287   1.981   5.077   4.821  0.1583 -0.1592  3.3016
    1OL    H17S10288   1.850   5.194   4.837  0.0625 -1.9335  0.2797
    1OL    C11810289   2.032   5.238   4.943 -0.0240 -0.6613 -0.1134
    1OL    H18R10290   2.013   5.345   4.955 -4.2342 -1.3404  1.1072
    1OL    H18S10291   2.137   5.212   4.933 -0.0835 -0.7944 -0.4109
    1OL    H18T10292   1.989   5.190   5.031  0.7154  1.1813  1.3031
    1PA    C11610293   3.497   3.167   4.992 -0.4158 -0.3775 -0.2831
    1PA    H16R10294   3.551   3.255   4.958  0.7562 -1.2555 -0.7386
    1PA    H16S10295   3.536   3.083   4.935 -2.2779 -1.5080  0.0413
    1PA    H16T10296   3.523   3.166   5.099  2.6128  1.1327 -0.8887
    1PA    C11510297   3.346   3.165   4.962  0.2475 -0.7998 -0.3562
    1PA    H15R10298   3.329   3.147   4.856 -1.5356 -1.4319 -0.0050
    1PA    H15S10299   3.313   3.071   5.008  0.0824 -0.4953  0.1605
    1PA    C11410300   3.289   3.290   5.028  0.1116 -0.3859 -0.1131
    1PA    H14R10301   3.303   3.284   5.136 -0.6889 -0.9025 -0.0304
    1PA    H14S10302   3.350   3.373   4.993  0.2596 -0.5930 -0.3441
    1PA    C11310303   3.140   3.313   4.989  0.0536  0.3495 -0.5226
    1PA    H13R10304   3.077   3.226   5.011 -0.4750  1.2250  1.7080
    1PA    H13S10305   3.105   3.389   5.059  2.5896  1.1382 -0.0198
    1PA    C11210306   3.119   3.350   4.837  0.7923  0.1602 -0.1372
    1PA    H12R10307   3.178   3.438   4.811  0.2947  0.8950  1.1091
    1PA    H12S10308   3.153   3.267   4.775  0.9508  1.4685 -1.8716
    1PA    C11110309   2.972   3.372   4.793  0.2895 -0.1673  0.3304
    1PA    H11R10310   2.903   3.293   4.820 -0.9605  1.0064  0.6818
    1PA    H11S10311   2.922   3.460   4.836 -2.5167 -1.5435  0.0837
    1PA    C11010312   2.961   3.380   4.640  0.1071  0.3751 -0.3917
    1PA    H10R10313   2.872   3.437   4.613  0.8160  1.1070 -1.2660
    1PA    H10S10314   3.035   3.447   4.597  0.7769 -1.1265 -1.7105
    1PA     C1910315   2.959   3.243   4.564 -0.4620 -0.1124 -1.0690
    1PA     H9R10316   3.058   3.198   4.561 -0.4731 -0.1313 -1.1777
    1PA     H9S10317   2.896   3.181   4.628  0.4840 -0.6037 -0.6002
    1PA     C1810318   2.901   3.248   4.423  0.3482  0.3607 -0.1916
    1PA     H8R10319   2.915   3.152   4.373  1.1801  0.2842  0.1761
    1PA     H8S10320   2.793   3.265   4.416  0.5488  1.4069 -1.0414
    1PA     C1710321   2.962   3.359   4.327  0.5480 -1.2510 -0.3068
    1PA     H7R10322   2.918   3.342   4.229  0.0710  2.5644 -0.9063
    1PA     H7S10323   2.930   3.460   4.353  0.8678 -1.0135 -0.8120
    1PA     C1610324   3.117   3.359   4.330 -0.0550 -0.1456 -0.3602
    1PA     H6R10325   3.152   3.390   4.428 -1.8977 -0.4152  0.4159
    1PA     H6S10326   3.145   3.258   4.300 -0.3923  0.4201 -2.8922
    1PA     C1510327   3.185   3.456   4.227  0.1173 -0.6120  0.1740
    1PA     H5R10328   3.161   3.558   4.259 -0.3763 -1.0447  1.2558
    1PA     H5S10329   3.294   3.443   4.227  0.0308 -1.7332  2.0400
    1PA     C1410330   3.136   3.422   4.088 -0.0392 -0.3719 -0.1043
    1PA     H4R10331   3.142   3.313   4.087 -1.5422 -0.4830 -1.2076
    1PA     H4S10332   3.030   3.448   4.083 -0.1161 -0.3205  1.3250
    1PA     C1310333   3.218   3.472   3.966  0.3225 -0.3128 -0.0541
    1PA     H3R10334   3.325   3.457   3.977  0.2054 -1.1857 -0.0323
    1PA     H3S10335   3.179   3.414   3.882  0.1591  0.1061 -0.2652
    1PA     C1210336   3.194   3.625   3.948 -0.2826  0.5312  0.0414
    1PA     H2R10337   3.091   3.651   3.973 -0.3137  0.4483  0.0018
    1PA     H2S10338   3.252   3.686   4.017  0.6442 -0.3678  0.0795
    1PC     C1110339   3.229   3.671   3.811 -0.4108 -0.1495 -0.1028
    1PC     O1210340   3.331   3.644   3.748 -0.4236  0.4264 -0.0740
    1PC     O1110341   3.132   3.753   3.763 -0.3048  0.2409  0.0906
    1PC      C110342   3.132   3.794   3.621  0.1101  0.1483  0.2705
    1PC      HR10343   3.231   3.770   3.582  0.7356  1.3120  1.0932
    1PC      HS10344   3.056   3.733   3.571 -0.8890  0.3725  1.4609
    1PC      C210345   3.120   3.944   3.606  0.7581 -0.4627 -0.0637
    1PC      HX10346   3.027   3.981   3.650 -0.0893 -0.9858 -1.3387
    1PC      C310347   3.130   3.987   3.462  0.0110 -1.3265 -0.6610
    1PC      HA10348   3.030   4.015   3.427 -0.3801  0.6462  1.7281
    1PC      HB10349   3.181   4.083   3.456  1.8008 -2.1560  0.3939
    1PC     O3110350   3.195   3.892   3.373 -0.0758  0.2812 -0.2646
    1PC     P3110351   3.217   3.913   3.220  0.1862  0.2190 -0.3037
    1PC     O3210352   3.085   3.852   3.145  0.1658 -0.5515 -0.2420
    1PC     C3110353   3.102   3.736   3.058 -0.3773  0.1497 -0.4810
    1PC     H1A10354   3.156   3.659   3.114 -1.8127 -1.2938 -1.0017
    1PC     H1B10355   3.003   3.690   3.054  0.3083 -2.0738  3.2734
    1PC     C3210356   3.172   3.769   2.928 -0.3549 -0.5302 -0.2009
    1PC     H2A10357   3.150   3.867   2.887  0.8314 -0.7161 -1.3702
    1PC     H2B10358   3.280   3.780   2.939 -0.0294 -1.7158 -1.8017
    1PC     N3110359   3.158   3.679   2.807 -0.3581  0.4482  0.7178
    1PC     C3310360   3.164   3.537   2.834 -0.0231 -0.6315 -0.7577
    1PC     H3A10361   3.247   3.518   2.902 -1.0129  0.0375  0.6876
    1PC     H3B10362   3.070   3.500   2.876 -0.0425  0.1168 -0.1264
    1PC     H3C10363   3.177   3.480   2.741 -1.4316  0.4572 -1.6659
    1PC     C3410364   3.027   3.707   2.743 -0.0322 -0.2787  1.1984
    1PC     H4A10365   2.944   3.662   2.796 -2.1767  2.3706  0.3220
    1PC     H4B10366   3.018   3.815   2.731  0.3946 -0.3313  0.3018
    1PC     H4C10367   3.037   3.657   2.647 -1.1813  1.1386  0.2919
    1PC     C3510368   3.266   3.713   2.712  0.2169  0.3180  0.1147
    1PC     H5A10369   3.265   3.818   2.679  0.1418  1.1660  2.6201
    1PC     H5B10370   3.253   3.652   2.622 -0.2775  1.5978 -0.7216
    1PC     H5C10371   3.364   3.690   2.753  0.3530  2.2889  1.0444
    1PC     O3310372   3.208   4.062   3.191 -0.1897  0.5403 -0.4606
    1PC     O3410373   3.337   3.832   3.184  0.2886  0.5713  0.1496
    1PC     O2110374   3.236   4.007   3.667  0.8396  0.2351  0.1597
    1PC     C2110375   3.234   4.136   3.709  0.4294  0.5585 -0.4173
    1PC     O2210376   3.130   4.197   3.728  0.4556 -0.1395 -0.5973
    1OL     C1210377   3.373   4.178   3.753 -0.1456  0.1023  0.3525
    1OL     H2R10378   3.349   4.259   3.823  0.0166 -0.0862  0.6306
    1OL     H2S10379   3.423   4.208   3.661 -0.7359  0.1538  0.0441
    1OL     C1310380   3.449   4.080   3.835  0.2745  0.7826  0.3578
    1OL     H3R10381   3.539   4.130   3.871 -0.3623  1.5525  0.8985
    1OL     H3S10382   3.489   4.005   3.766 -0.3999  1.0410 -0.3288
    1OL     C1410383   3.369   4.020   3.956  0.5654 -0.2038 -0.5964
    1OL     H4R10384   3.270   3.986   3.925 -1.3304  2.0756  2.3545
    1OL     H4S10385   3.348   4.093   4.034 -0.2428 -1.7840  0.7106
    1OL     C1510386   3.455   3.909   4.014  0.3964  0.1117 -0.3357
    1OL     H5R10387   3.475   3.839   3.933  3.3877 -0.9956  1.2163
    1OL     H5S10388   3.385   3.855   4.078  0.0837 -0.0786 -0.8274
    1OL     C1610389   3.578   3.942   4.102  0.0860  0.2928  0.4358
    1OL     H6R10390   3.645   3.997   4.035 -0.2635 -0.2319 -0.3514
    1OL     H6S10391   3.619   3.847   4.140  2.1120  0.8949 -0.0960
    1OL     C1710392   3.550   4.034   4.217  0.3688  0.3985  0.1545
    1OL     H7R10393   3.470   3.991   4.277  0.1094 -0.0349 -0.4894
    1OL     H7S10394   3.510   4.127   4.176  1.0145  0.3464 -0.6204
    1OL     C1810395   3.669   4.073   4.309  0.0429 -0.0126  0.4054
    1OL     H8R10396   3.765   4.069   4.257  0.5581 -0.5071  1.3689
    1OL     H8S10397   3.678   3.984   4.371  2.1830 -0.1062  0.0296
    1OL     C1910398   3.621   4.187   4.393 -0.0113  1.1546 -0.2609
    1OL     H9R10399   3.534   4.238   4.352 -1.8666 -0.9878  0.7260
    1OL    C11010400   3.667   4.215   4.511  0.1784  0.2754  0.0048
    1OL    H10R10401   3.624   4.304   4.557 -1.4274  0.1744 -1.2056
    1OL    C11110402   3.772   4.145   4.589  0.0792  0.4636 -0.4042
    1OL    H11R10403   3.870   4.188   4.565 -0.5961  1.7816 -0.9018
    1OL    H11S10404   3.787   4.040   4.566  1.3517  0.7396 -0.9071
    1OL    C11210405   3.737   4.142   4.737 -0.0777  0.8623  0.1886
    1OL    H12R10406   3.709   4.240   4.776 -0.3841  1.4370 -1.4084
    1OL    H12S10407   3.829   4.114   4.790  0.2957 -0.5073 -1.1171
    1OL    C11310408   3.634   4.026   4.773 -0.0681  0.1165  0.2723
    1OL    H13R10409   3.684   3.937   4.736 -2.4423 -0.7973 -0.9934
    1OL    H13S10410   3.547   4.028   4.707 -0.5684  2.6299  0.8958
    1OL    C11410411   3.600   4.024   4.919  0.1696 -0.0918 -0.2097
    1OL    H14R10412   3.687   3.989   4.974  0.2156  1.2418  0.6056
    1OL    H14S10413   3.531   3.943   4.946 -0.8155  1.1570  1.1669
    1OL    C11510414   3.547   4.154   4.986 -0.9618 -0.6416 -0.3028
    1OL    H15R10415   3.455   4.188   4.938 -1.2908  0.3141  0.9346
    1OL    H15S10416   3.626   4.230   4.982 -1.0110 -0.3532  2.2054
    1OL    C11610417   3.489   4.127   5.127 -0.5349  0.6629 -0.9590
    1OL    H16R10418   3.561   4.071   5.188 -0.7750 -0.2612 -1.5100
    1OL    H16S10419   3.401   4.063   5.118 -0.3373  0.4134 -1.1656
    1OL    C11710420   3.440   4.246   5.206  0.4533  0.4192  0.1156
    1OL    H17R10421   3.362   4.293   5.145  2.0923  1.5248 -1.2062
    1OL    H17S10422   3.512   4.326   5.224 -0.2137  0.8613  0.9106
    1OL    C11810423   3.376   4.207   5.341 -0.2482 -0.7573  0.7924
    1OL    H18R10424   3.424   4.118   5.384 -1.5806 -1.9374 -0.0999
    1OL    H18S10425   3.269   4.186   5.333 -0.2181 -0.1110 -3.9359
    1OL    H18T10426   3.387   4.290   5.411 -1.8731  0.1581  0.0083
    1PA    C11610427   1.265   0.022   4.924  0.5646  0.5881 -0.3783
    1PA    H16R10428   1.187   0.045   4.997  2.6298  1.3489  1.7335
    1PA    H16S10429   1.314  -0.065   4.967 -0.1170  0.4712  0.1744
    1PA    H16T10430   1.201  -0.003   4.839 -2.6284  1.3053  1.6192
    1PA    C11510431   1.364   0.141   4.921  0.1035 -0.1934  0.0428
    1PA    H15R10432   1.334   0.231   4.866  4.1345  0.8311 -0.8217
    1PA    H15S10433   1.380   0.179   5.022  2.1294 -0.7527 -0.0147
    1PA    C11410434   1.506   0.088   4.871  0.5620 -0.3144  1.1752
    1PA    H14R10435   1.581   0.167   4.886  2.6630 -1.4858 -2.1690
    1PA    H14S10436   1.534  -0.004   4.924 -0.2684 -1.1949  0.1196
    1PA    C11310437   1.517   0.043   4.722 -0.4423 -0.0679 -0.6499
    1PA    H13R10438   1.626   0.045   4.716 -0.4416  0.6321 -0.5521
    1PA    H13S10439   1.484  -0.059   4.700 -2.2922  0.1547  0.8332
    1PA    C11210440   1.471   0.142   4.614  0.0319 -0.4020  0.1840
    1PA    H12R10441   1.363   0.151   4.626 -0.3371 -2.2790 -1.2164
    1PA    H12S10442   1.518   0.235   4.645  1.0898 -1.1959  1.0133
    1PA    C11110443   1.525   0.096   4.473  0.0392  0.6383 -0.3990
    1PA    H11R10444   1.630   0.063   4.473 -0.5354 -1.5058  1.8970
    1PA    H11S10445   1.467   0.009   4.442  0.3749  0.1964  0.1885
    1PA    C11010446   1.514   0.211   4.364 -0.1331  0.6170  0.8357
    1PA    H10R10447   1.594   0.284   4.374  1.0835 -0.5637  0.1334
    1PA    H10S10448   1.531   0.176   4.262 -0.0108  0.4084  0.9242
    1PA     C1910449   1.383   0.285   4.363  0.3899 -0.3534  0.2468
    1PA     H9R10450   1.381   0.352   4.449  3.7962 -1.5454  1.3981
    1PA     H9S10451   1.389   0.352   4.278  0.6633  0.7443  1.1056
    1PA     C1810452   1.248   0.205   4.351  0.3787  0.0219 -0.0352
    1PA     H8R10453   1.228   0.130   4.429  2.2612  0.9587  1.4525
    1PA     H8S10454   1.173   0.281   4.374 -0.9724 -1.2982  0.0669
    1PA     C1710455   1.230   0.147   4.206  0.3501 -0.2647 -0.6035
    1PA     H7R10456   1.238   0.229   4.135  1.3599  0.0376 -0.1599
    1PA     H7S10457   1.300   0.065   4.192  0.1290 -0.0590 -3.3359
    1PA     C1610458   1.091   0.099   4.188  0.4711  0.6976 -0.0018
    1PA     H6R10459   1.075   0.018   4.260 -0.1971 -0.8303 -1.7690
    1PA     H6S10460   1.027   0.182   4.218  0.7038  0.2470  1.8548
    1PA     C1510461   1.062   0.032   4.051  0.7555  0.8383  0.7431
    1PA     H5R10462   1.137  -0.044   4.028 -3.2203 -2.7703 -1.7198
    1PA     H5S10463   0.971  -0.026   4.063  2.1228 -1.6138 -0.0109
    1PA     C1410464   1.054   0.138   3.936 -0.4374  0.4769 -0.1519
    1PA     H4R10465   0.968   0.202   3.954  0.7806  1.6664  1.9442
    1PA     H4S10466   1.139   0.206   3.939 -0.1683  0.2347 -1.6250
    1PA     C1310467   1.043   0.058   3.808  0.1646 -0.2714 -0.1294
    1PA     H3R10468   1.138   0.017   3.772  1.6019  1.5511  1.3832
    1PA     H3S10469   0.980  -0.029   3.829 -0.2106 -0.2258 -1.0217
    1PA     C1210470   0.979   0.134   3.688  0.2604 -0.4392  0.2750
    1PA     H2R10471   0.873   0.144   3.708  0.1716  1.9435 -0.9136
    1PA     H2S10472   1.014   0.237   3.678 -0.5098 -0.1062  0.9289
    1PC     C1110473   0.991   0.064   3.551  0.0240 -0.6251  0.0783
    1PC     O1210474   1.077   0.090   3.469  0.1840 -0.2035  0.0977
    1PC     O1110475   0.899  -0.024   3.552  0.2220  0.5431  0.6322
    1PC      C110476   0.879  -0.108   3.436  0.1102  0.7821  0.1244
    1PC      HR10477   0.787  -0.164   3.450 -0.3138  1.3944 -0.1623
    1PC      HS10478   0.866  -0.041   3.350  0.9285  1.8668  0.8165
    1PC      C210479   0.992  -0.213   3.409  0.4416  0.2876  0.3080
    1PC      HX10480   1.095  -0.177   3.415  0.2682  0.5912  1.8353
    1PC      C310481   0.959  -0.295   3.278 -0.6383  0.4314 -0.0969
    1PC      HA10482   0.975  -0.220   3.200  0.5312  2.2233  1.7721
    1PC      HB10483   1.029  -0.378   3.265 -0.9921  0.0491  0.3956
    1PC     O3110484   0.819  -0.339   3.285  0.0122 -0.3729 -0.8037
    1PC     P3110485   0.734  -0.368   3.157  0.2843  0.2365  0.3266
    1PC     O3210486   0.733  -0.230   3.074  0.6774 -0.1825 -0.2993
    1PC     C3110487   0.642  -0.128   3.125  0.9049 -0.0386  0.3964
    1PC     H1A10488   0.627  -0.153   3.230  0.3364 -2.9375 -0.2998
    1PC     H1B10489   0.688  -0.031   3.107  0.3884  0.2627  0.6783
    1PC     C3210490   0.505  -0.141   3.055 -0.2395  0.1285  0.5997
    1PC     H2A10491   0.444  -0.219   3.100 -0.0307 -0.5910 -0.3318
    1PC     H2B10492   0.455  -0.046   3.076  1.9956  1.2939  0.9097
    1PC     N3110493   0.491  -0.146   2.904 -0.4823 -0.6494  0.3293
    1PC     C3310494   0.553  -0.265   2.839  0.4894 -0.3440  0.0246
    1PC     H3A10495   0.659  -0.258   2.865  0.3184  0.4163  0.5362
    1PC     H3B10496   0.498  -0.350   2.881  0.4322 -1.7189 -2.6204
    1PC     H3C10497   0.539  -0.262   2.731  1.8879  0.1806 -0.1597
    1PC     C3410498   0.349  -0.144   2.863 -0.2240  0.2923  0.5722
    1PC     H4A10499   0.293  -0.054   2.887  0.2496  0.3048  1.6912
    1PC     H4B10500   0.350  -0.172   2.757  0.5462 -0.6010  0.7995
    1PC     H4C10501   0.302  -0.231   2.910  1.6720 -1.9667 -1.3804
    1PC     C3510502   0.547  -0.018   2.850 -0.6043  0.0718  0.7119
    1PC     H5A10503   0.641  -0.012   2.905 -0.6097  0.4409  0.6814
    1PC     H5B10504   0.487   0.068   2.880  1.3814  1.0324  2.1537
    1PC     H5C10505   0.576  -0.035   2.746  4.0860 -1.2743  1.9936
    1PC     O3310506   0.808  -0.462   3.075 -0.4815  0.4535  0.1384
    1PC     O3410507   0.595  -0.400   3.195 -0.0481 -0.2332  0.0227
    1PC     O2110508   0.969  -0.319   3.514 -0.2448 -0.3499  0.0081
    1PC     C2110509   1.057  -0.316   3.612 -0.1298  0.3965 -0.0015
    1PC     O2210510   1.128  -0.222   3.639  0.0479  1.2373  0.0441
    1OL     C1210511   1.039  -0.434   3.705  0.2610  0.0194 -0.2989
    1OL     H2R10512   1.135  -0.473   3.741  0.0293 -0.1982  0.0836
    1OL     H2S10513   0.990  -0.511   3.645  1.5376 -0.4063 -0.8420
    1OL     C1310514   0.949  -0.403   3.826 -0.4651  0.2170 -0.1356
    1OL     H3R10515   0.845  -0.403   3.791 -0.1373 -2.1205 -1.3266
    1OL     H3S10516   0.972  -0.307   3.872 -2.7882 -0.1057  1.9745
    1OL     C1410517   0.954  -0.523   3.926  0.5051 -0.7299  0.9677
    1OL     H4R10518   1.053  -0.541   3.967  0.6096  1.7236  1.9805
    1OL     H4S10519   0.910  -0.601   3.863  1.9785 -0.4434 -0.4647
    1OL     C1510520   0.862  -0.499   4.048  0.3689  0.1869  0.5845
    1OL     H5R10521   0.843  -0.589   4.106  0.1330 -0.5225 -0.5659
    1OL     H5S10522   0.765  -0.469   4.007 -0.9826 -2.9202  1.1839
    1OL     C1610523   0.918  -0.391   4.150  0.8699  0.5823 -0.1567
    1OL     H6R10524   0.832  -0.368   4.213  0.2589 -0.9530 -0.4072
    1OL     H6S10525   0.944  -0.299   4.096  0.0323  1.2263  0.5050
    1OL     C1710526   1.040  -0.420   4.232 -0.0698  0.2515  0.1589
    1OL     H7R10527   1.132  -0.426   4.173  0.3782 -0.8587  0.9273
    1OL     H7S10528   1.028  -0.524   4.262  1.8495 -0.2375 -0.6138
    1OL     C1810529   1.064  -0.314   4.346  0.0041 -0.1147 -0.2901
    1OL     H8R10530   1.062  -0.211   4.311  0.5223 -0.0483 -0.1344
    1OL     H8S10531   1.167  -0.319   4.381 -0.1063  1.0441  0.2550
    1OL     C1910532   0.988  -0.334   4.475  0.5720  0.2078 -0.7487
    1OL     H9R10533   1.003  -0.427   4.528 -3.1975 -0.9067 -1.2891
    1OL    C11010534   0.901  -0.246   4.524 -0.6448 -0.2858 -0.2006
    1OL    H10R10535   0.853  -0.274   4.618  0.0691  0.8759  0.5290
    1OL    C11110536   0.862  -0.109   4.464 -0.5381 -0.0650  0.2215
    1OL    H11R10537   0.753  -0.099   4.466 -0.4712  1.1892 -1.0624
    1OL    H11S10538   0.882  -0.117   4.357  1.0939  0.3043  0.4773
    1OL    C11210539   0.924   0.010   4.542  0.4092 -0.4736  0.1493
    1OL    H12R10540   0.907   0.093   4.473 -1.9370  1.0047  2.3066
    1OL    H12S10541   1.031  -0.008   4.549  0.3197 -1.2225 -0.3281
    1OL    C11310542   0.852   0.044   4.671  0.1535  0.7514  0.2832
    1OL    H13R10543   0.913   0.115   4.726 -0.2346  0.4003  1.1844
    1OL    H13S10544   0.844  -0.047   4.732  0.4047  1.0815  0.8114
    1OL    C11410545   0.711   0.108   4.659  0.2915  0.2634  0.1283
    1OL    H14R10546   0.647   0.043   4.599  2.8650  1.5427 -4.5539
    1OL    H14S10547   0.722   0.197   4.597  0.4065 -1.0999 -1.9276
    1OL    C11510548   0.645   0.139   4.801 -0.0685  0.7425  0.5425
    1OL    H15R10549   0.706   0.210   4.857  0.4419 -0.4995  1.6101
    1OL    H15S10550   0.642   0.042   4.852  0.8362  0.9899  1.0896
    1OL    C11610551   0.504   0.197   4.766 -0.0786  0.7002  0.2504
    1OL    H16R10552   0.447   0.125   4.706  1.0183  0.2611 -0.2827
    1OL    H16S10553   0.516   0.289   4.708 -1.4905  1.6819  1.4447
    1OL    C11710554   0.429   0.232   4.899 -0.5911 -0.2573  0.4871
    1OL    H17R10555   0.489   0.292   4.968 -0.7351  0.9430 -0.3892
    1OL    H17S10556   0.415   0.140   4.955  1.5568 -0.4296  0.8169
    1OL    C11810557   0.288   0.294   4.861 -0.4513  0.1552 -0.1255
    1OL    H18R10558   0.303   0.391   4.813  0.0265  0.7310  1.1407
    1OL    H18S10559   0.232   0.323   4.950 -0.3280  0.9158 -0.2845
    1OL    H18T10560   0.231   0.217   4.810 -0.0927  0.6671 -1.3375
    1PA    C11610561   4.766   4.385   4.729  0.6406 -0.1525 -0.3513
    1PA    H16R10562   4.844   4.445   4.680 -1.2760  1.1859 -1.9199
    1PA    H16S10563   4.807   4.323   4.808 -1.0171  0.3180  0.9325
    1PA    H16T10564   4.698   4.457   4.776 -0.4787  0.1808 -2.3404
    1PA    C11510565   4.688   4.303   4.625  0.3859  0.0567  0.3495
    1PA    H15R10566   4.746   4.222   4.581  0.4270 -0.2841  1.0325
    1PA    H15S10567   4.608   4.250   4.677 -0.1510 -0.5848 -1.0724
    1PA    C11410568   4.626   4.388   4.510 -0.0372  0.1774  0.1236
    1PA    H14R10569   4.701   4.457   4.470  0.2322 -0.8559 -1.2434
    1PA    H14S10570   4.592   4.321   4.430  2.3338 -0.7448 -0.2183
    1PA    C11310571   4.499   4.462   4.562  0.1990 -0.0489 -0.0418
    1PA    H13R10572   4.422   4.401   4.610 -1.6970  0.7866 -1.8489
    1PA    H13S10573   4.524   4.534   4.640  0.6009  0.3441 -0.5232
    1PA    C11210574   4.418   4.526   4.445  0.5987  0.4907  0.4755
    1PA    H12R10575   4.380   4.448   4.378 -0.3498 -1.0918  2.7098
    1PA    H12S10576   4.336   4.582   4.490 -0.0017 -0.9222  1.2132
    1PA    C11110577   4.493   4.624   4.356  0.2488 -0.2079  0.6330
    1PA    H11R10578   4.520   4.705   4.424 -2.1490  0.3970  0.9562
    1PA    H11S10579   4.583   4.580   4.313 -0.5121 -1.0095 -0.1893
    1PA    C11010580   4.408   4.669   4.236  0.3549  0.4814  0.0685
    1PA    H10R10581   4.392   4.581   4.172  1.2814  0.3071  0.0688
    1PA    H10S10582   4.310   4.714   4.253  0.8991  1.7676 -0.1091
    1PA     C1910583   4.474   4.786   4.153  0.1881 -0.5594  0.3850
    1PA     H9R10584   4.416   4.812   4.064 -0.1402  1.3675  1.1246
    1PA     H9S10585   4.483   4.881   4.206  0.6971 -0.0161 -0.6297
    1PA     C1810586   4.611   4.750   4.094  0.0715  0.0099 -0.3048
    1PA     H8R10587   4.682   4.744   4.177 -0.1089 -2.0590 -0.2419
    1PA     H8S10588   4.620   4.647   4.059  0.9150 -0.7187  1.8552
    1PA     C1710589   4.658   4.864   4.000 -0.8361 -0.0932 -0.3247
    1PA     H7R10590   4.576   4.935   3.987  0.1143  0.9987 -0.5350
    1PA     H7S10591   4.727   4.922   4.061 -1.2566  0.6742 -0.5539
    1PA     C1610592   4.718   4.818   3.872  0.0557  0.3166 -0.6276
    1PA     H6R10593   4.664   4.731   3.834  0.2312 -1.6917  3.2869
    1PA     H6S10594   4.713   4.898   3.797 -0.0460 -0.1911 -1.1732
    1PA     C1510595   4.863   4.784   3.902  0.2754 -0.2482 -0.3387
    1PA     H5R10596   4.920   4.871   3.934 -0.7625  0.7363 -1.0882
    1PA     H5S10597   4.862   4.713   3.986 -0.7185  1.6216  1.3151
    1PA     C1410598   4.933   4.718   3.784  0.0422 -0.2601  0.4356
    1PA     H4R10599   4.942   4.792   3.704  0.8148 -0.5889  0.2089
    1PA     H4S10600   5.033   4.701   3.825 -0.5138 -1.6320  1.2903
    1PA     C1310601   4.896   4.584   3.726  0.4845 -0.6830  0.3123
    1PA     H3R10602   4.864   4.516   3.805 -1.2140  1.3778  1.5000
    1PA     H3S10603   4.813   4.597   3.656 -0.3728 -0.0669  1.4206
    1PA     C1210604   5.021   4.527   3.642  0.9485 -0.4487 -0.2347
    1PA     H2R10605   5.057   4.609   3.580 -1.1508  1.0716  0.4383
    1PA     H2S10606   5.097   4.491   3.711  1.5964 -0.3671 -0.8946
    1PC     C1110607   4.982   4.406   3.563 -1.0786 -0.3961 -0.2350
    1PC     O1210608   4.995   4.398   3.442 -0.0981 -0.2749  0.3346
    1PC     O1110609   4.949   4.301   3.643  0.2006  0.4134  0.2664
    1PC      C110610   4.934   4.164   3.590  0.1729 -0.4105 -0.1038
    1PC      HR10611   4.863   4.109   3.653 -0.6771  1.6421  0.8177
    1PC      HS10612   4.884   4.172   3.494 -2.9601  0.1049  1.4598
    1PC      C210613   5.070   4.097   3.583 -0.0762 -0.2894 -0.1552
    1PC      HX10614   5.127   4.125   3.494 -1.2164  2.8111 -0.0392
    1PC      C310615   5.067   3.942   3.578 -0.5605 -0.0743 -0.7975
    1PC      HA10616   5.165   3.905   3.547 -0.5084  0.4873 -1.3167
    1PC      HB10617   5.040   3.902   3.676 -0.7742  0.5714 -0.5901
    1PC     O3110618   4.962   3.901   3.485 -0.1890 -0.1989  0.2273
    1PC     P3110619   5.007   3.823   3.361 -0.0633 -0.0580 -0.2899
    1PC     O3210620   5.073   3.925   3.262 -0.0308  1.0367  0.5502
    1PC     C3110621   4.990   4.022   3.195 -0.1039 -0.1769  0.5837
    1PC     H1A10622   4.909   3.974   3.141  0.6600  2.2778 -3.1259
    1PC     H1B10623   4.947   4.088   3.271 -0.9427  0.5297 -0.4670
    1PC     C3210624   5.079   4.102   3.100  0.4126 -0.6378 -0.4592
    1PC     H2A10625   5.025   4.196   3.084  0.0775 -0.4565  1.4023
    1PC     H2B10626   5.168   4.123   3.161  0.2905 -1.8520  0.1630
    1PC     N3110627   5.128   4.059   2.968  0.6028 -0.5799 -0.0144
    1PC     C3310628   5.237   3.964   2.986  0.1672  0.5008 -0.3018
    1PC     H3A10629   5.263   3.916   2.891  1.7388 -1.6086  1.1039
    1PC     H3B10630   5.330   3.996   3.034  0.7602 -1.9163  0.2902
    1PC     H3C10631   5.194   3.883   3.044  0.6564 -1.1242 -2.1141
    1PC     C3410632   5.023   4.001   2.890  0.4877 -0.4303 -0.2897
    1PC     H4A10633   4.953   4.082   2.866  1.1571  0.6748  1.2902
    1PC     H4B10634   5.076   3.961   2.804  1.2879 -3.0404  1.3316
    1PC     H4C10635   4.977   3.918   2.943 -0.1782 -0.7178 -1.2886
    1PC     C3510636   5.172   4.176   2.890 -0.1167  0.8811  0.4124
    1PC     H5A10637   5.238   4.152   2.807  0.4357  0.1011  1.0662
    1PC     H5B10638   5.220   4.248   2.956 -0.8935  1.2180  0.6236
    1PC     H5C10639   5.074   4.215   2.861 -1.1181 -0.9684  1.1993
    1PC     O3310640   5.116   3.731   3.400  0.2150 -0.2539  0.6596
    1PC     O3410641   4.885   3.766   3.303 -0.0899  0.2908  0.7051
    1PC     O2110642   5.152   4.127   3.702  0.5484  0.0833 -0.1516
    1PC     C2110643   5.230   4.234   3.706 -0.5399  0.5131 -0.0585
    1PC     O2210644   5.247   4.307   3.609 -0.3770  0.1588 -0.4684
    1OL     C1210645   5.309   4.250   3.837 -0.3940  0.0698  0.9003
    1OL     H2R10646   5.418   4.245   3.822 -0.4989 -2.1989  0.5094
    1OL     H2S10647   5.283   4.164   3.899 -0.9901 -0.2885  0.1722
    1OL     C1310648   5.270   4.375   3.903 -0.5560 -0.7000 -0.5869
    1OL     H3R10649   5.161   4.378   3.909 -0.5105 -1.0487  1.1212
    1OL     H3S10650   5.315   4.455   3.843 -1.3559  2.0784  2.1927
    1OL     C1410651   5.328   4.377   4.047  0.2628  0.7939  0.1520
    1OL     H4R10652   5.436   4.367   4.031 -0.0139 -1.9068 -0.5042
    1OL     H4S10653   5.302   4.285   4.101  4.3143 -1.5328 -1.3959
    1OL     C1510654   5.288   4.511   4.113  0.3681  0.1314 -0.7171
    1OL     H5R10655   5.304   4.584   4.033 -1.2971  0.4601 -0.7965
    1OL     H5S10656   5.357   4.539   4.193  0.6105  0.2108 -0.9525
    1OL     C1610657   5.133   4.517   4.151  0.0183 -0.8940  0.2439
    1OL     H6R10658   5.072   4.495   4.063  2.5236  0.2759 -1.9434
    1OL     H6S10659   5.105   4.618   4.180  0.2221 -1.0106  0.8622
    1OL     C1710660   5.102   4.417   4.260  0.6043  0.6073  0.2854
    1OL     H7R10661   5.184   4.422   4.331 -0.7207 -1.8258  2.1577
    1OL     H7S10662   5.095   4.314   4.224 -1.8829  0.3637  1.2421
    1OL     C1810663   4.976   4.450   4.352  0.7702  0.1724  0.9940
    1OL     H8R10664   4.966   4.367   4.422 -0.1206 -0.9462 -0.3844
    1OL     H8S10665   4.890   4.441   4.284  1.4674  0.5957  0.0317
    1OL     C1910666   4.982   4.585   4.426  0.1444  0.6810 -0.1025
    1OL     H9R10667   4.923   4.669   4.390 -0.1656  0.4305 -0.1856
    1OL    C11010668   5.055   4.614   4.537 -0.0271  0.1352  0.3885
    1OL    H10R10669   5.055   4.717   4.571  1.2657  0.3371 -0.1457
    1OL    C11110670   5.126   4.508   4.625 -0.0839 -0.1210  0.0349
    1OL    H11R10671   5.088   4.413   4.587 -1.4724  0.6485 -0.6111
    1OL    H11S10672   5.091   4.506   4.728  1.5357  0.4103  0.6283
    1OL    C11210673   5.282   4.514   4.594  0.0767  0.5205  0.0329
    1OL    H12R10674   5.297   4.497   4.487 -0.4003 -0.4278  0.1109
    1OL    H12S10675   5.336   4.434   4.644  1.4780 -0.3358 -2.6341
    1OL    C11310676   5.337   4.649   4.646  0.1028 -0.9904  0.4389
    1OL    H13R10677   5.269   4.734   4.633  2.4874  1.0009  0.2528
    1OL    H13S10678   5.420   4.676   4.581  1.5638  0.7228  2.8391
    1OL    C11410679   5.395   4.634   4.790  0.1594 -0.7020 -0.9247
    1OL    H14R10680   5.452   4.540   4.794 -0.0974 -0.8488 -0.7214
    1OL    H14S10681   5.318   4.632   4.866 -1.1125 -1.5735 -2.1826
    1OL    C11510682   5.496   4.743   4.838 -0.5651 -0.4158 -0.2972
    1OL    H15R10683   5.579   4.749   4.768 -1.3441  0.6870 -1.1683
    1OL    H15S10684   5.539   4.706   4.932  2.4569 -0.8681 -1.7576
    1OL    C11610685   5.453   4.891   4.864  0.4037  0.1215  0.6149
    1OL    H16R10686   5.373   4.899   4.938 -0.1629 -0.8200  0.1243
    1OL    H16S10687   5.418   4.943   4.774  0.1277  0.5587  0.9692
    1OL    C11710688   5.564   4.978   4.917 -0.5896 -0.2810 -0.2384
    1OL    H17R10689   5.633   4.986   4.833 -1.1111 -2.9375 -1.0304
    1OL    H17S10690   5.615   4.937   5.005 -1.1389 -1.3101 -0.3812
    1OL    C11810691   5.520   5.123   4.935 -0.0247  0.4675 -0.2181
    1OL    H18R10692   5.601   5.194   4.950  0.4510  0.1245 -1.0809
    1OL    H18S10693   5.445   5.135   5.013 -1.2805  0.7981 -1.4433
    1OL    H18T10694   5.472   5.151   4.841  0.1254 -0.3188 -0.5423
    1PA    C11610695   0.450   2.182   4.823  0.4515 -0.1291  0.8216
    1PA    H16R10696   0.435   2.284   4.859 -0.4814  0.2892 -0.6711
    1PA    H16S10697   0.392   2.110   4.881  0.6064 -1.2048 -0.3342
    1PA    H16T10698   0.403   2.188   4.725 -1.4957  2.3186  1.7694
    1PA    C11510699   0.602   2.149   4.824  0.7662  0.1131  0.0356
    1PA    H15R10700   0.632   2.130   4.928  2.5157 -0.0039 -0.4460
    1PA    H15S10701   0.636   2.065   4.763 -1.5076  0.0207 -1.1952
    1PA    C11410702   0.687   2.259   4.772  0.3700 -0.5111  0.2405
    1PA    H14R10703   0.663   2.359   4.810  1.6074  0.5506 -1.5947
    1PA    H14S10704   0.793   2.237   4.785  0.0425 -2.7038 -0.3937
    1PA    C11310705   0.667   2.271   4.620 -0.4124 -0.8145 -0.0603
    1PA    H13R10706   0.703   2.179   4.574 -0.9346 -0.4093 -1.3045
    1PA    H13S10707   0.560   2.279   4.600 -0.7380  1.0926  1.9713
    1PA    C11210708   0.734   2.393   4.565 -0.2025  0.4887 -0.1474
    1PA    H12R10709   0.703   2.483   4.617  1.7207  1.0716  0.0554
    1PA    H12S10710   0.837   2.394   4.599 -0.6242 -2.0457  1.4721
    1PA    C11110711   0.720   2.407   4.407  0.7528  0.1830 -0.2671
    1PA    H11R10712   0.771   2.328   4.351 -1.4947 -1.0831 -0.6867
    1PA    H11S10713   0.615   2.400   4.376  1.0254  0.9106 -1.4170
    1PA    C11010714   0.782   2.542   4.356  0.3649  0.2817 -0.2408
    1PA    H10R10715   0.739   2.631   4.403 -1.3134 -1.6788  2.2146
    1PA    H10S10716   0.885   2.554   4.389  0.0165  2.8047  0.1032
    1PA     C1910717   0.777   2.549   4.203  0.2794  0.1616 -0.7747
    1PA     H9R10718   0.674   2.554   4.169 -0.9683  1.5506  2.7176
    1PA     H9S10719   0.823   2.643   4.171  0.0604  0.7175  0.4918
    1PA     C1810720   0.842   2.433   4.121  0.6850 -0.1878 -0.0268
    1PA     H8R10721   0.794   2.339   4.147  0.0657  0.7095  2.3727
    1PA     H8S10722   0.821   2.465   4.018 -3.2212 -2.3786 -0.1033
    1PA     C1710723   0.996   2.423   4.131  0.1095 -0.3532  0.0761
    1PA     H7R10724   1.026   2.528   4.139  2.0379 -0.8574 -0.0852
    1PA     H7S10725   1.023   2.382   4.229 -1.5727 -2.7218 -0.3614
    1PA     C1610726   1.057   2.345   4.017  0.2165  0.2245 -0.8025
    1PA     H6R10727   1.015   2.247   4.039 -1.5305  1.0947 -0.0968
    1PA     H6S10728   1.022   2.382   3.920 -1.0011  0.8901 -0.1215
    1PA     C1510729   1.217   2.327   4.015  0.7980  0.3106 -0.4695
    1PA     H5R10730   1.271   2.420   4.038  0.9937 -0.3591  2.1006
    1PA     H5S10731   1.262   2.260   4.090  0.6325 -2.4521 -2.6782
    1PA     C1410732   1.265   2.250   3.886 -0.1243 -0.4649 -0.8370
    1PA     H4R10733   1.225   2.310   3.804 -1.9115  0.2100  0.4565
    1PA     H4S10734   1.374   2.247   3.879  0.1487  2.5480  0.5469
    1PA     C1310735   1.197   2.112   3.879 -0.1654 -0.1047 -0.0896
    1PA     H3R10736   1.216   2.052   3.968  2.1592 -0.1530 -0.5675
    1PA     H3S10737   1.088   2.116   3.869 -0.3085 -1.2000  0.8513
    1PA     C1210738   1.253   2.023   3.765 -0.1343  0.1714 -0.0774
    1PA     H2R10739   1.361   2.016   3.778 -0.1222 -2.2899 -1.0613
    1PA     H2S10740   1.216   1.922   3.776 -0.4742  0.0196 -2.1716
    1PC     C1110741   1.225   2.079   3.626  0.2401 -0.6777 -0.3065
    1PC     O1210742   1.122   2.045   3.572  0.2765  0.0351  0.5810
    1PC     O1110743   1.317   2.168   3.584 -0.1688 -0.1004 -0.2386
    1PC      C110744   1.316   2.194   3.444 -0.3333 -0.5326  0.2467
    1PC      HR10745   1.295   2.100   3.394 -1.5262 -0.8216  1.2415
    1PC      HS10746   1.227   2.249   3.413  0.2190  0.9736  1.2128
    1PC      C210747   1.450   2.265   3.392 -0.5846 -0.2691  0.1604
    1PC      HX10748   1.465   2.364   3.435  2.5419 -0.3658 -0.4662
    1PC      C310749   1.449   2.285   3.241 -0.0348 -0.0779 -0.4401
    1PC      HA10750   1.372   2.349   3.197  0.1765  0.8489  0.4996
    1PC      HB10751   1.542   2.323   3.198  0.1357  0.4610  0.3851
    1PC     O3110752   1.438   2.156   3.184 -0.3539 -0.2045 -0.2602
    1PC     P3110753   1.450   2.140   3.028 -0.0002 -0.1776  0.3322
    1PC     O3210754   1.605   2.106   3.012 -0.0233 -0.0326 -0.5604
    1PC     C3110755   1.661   1.975   3.010  0.1817  0.3583  0.0414
    1PC     H1A10756   1.659   1.939   3.113  0.7319  1.9322  0.6347
    1PC     H1B10757   1.603   1.906   2.948  0.4273 -0.9933  1.2788
    1PC     C3210758   1.802   1.984   2.945  0.3112  0.0998  0.0001
    1PC     H2A10759   1.839   1.882   2.936 -0.4915 -0.1285 -0.9272
    1PC     H2B10760   1.780   2.010   2.841 -1.8686 -2.0382 -0.1746
    1PC     N3110761   1.904   2.073   2.993 -0.1285 -0.1546  0.0842
    1PC     C3310762   2.041   2.033   2.944  0.0314 -0.1949 -0.3326
    1PC     H3A10763   2.118   2.088   2.997  0.7803  2.5769 -3.9093
    1PC     H3B10764   2.053   1.933   2.986  1.8463  0.8754  1.8901
    1PC     H3C10765   2.054   2.037   2.836  0.9239 -1.9065 -0.3243
    1PC     C3410766   1.877   2.216   2.966  0.2019  0.3186  0.9311
    1PC     H4A10767   1.964   2.270   3.004  1.2132 -0.1905 -0.6211
    1PC     H4B10768   1.865   2.241   2.861 -0.6480  0.8659  1.1451
    1PC     H4C10769   1.786   2.242   3.021  0.8650  2.3017  1.1751
    1PC     C3510770   1.909   2.063   3.138 -0.3948 -1.1774  0.1523
    1PC     H5A10771   1.909   1.958   3.166 -1.4560 -1.6737 -1.5110
    1PC     H5B10772   1.821   2.116   3.174 -1.1350 -1.6969 -0.8226
    1PC     H5C10773   2.000   2.112   3.173 -1.1040 -0.4265  1.0047
    1PC     O3310774   1.382   2.014   2.988  0.1018 -0.4894  0.3616
    1PC     O3410775   1.415   2.269   2.964 -0.4190 -0.4100 -0.3848
    1PC     O2110776   1.570   2.180   3.415  0.2220 -0.4190 -0.1934
    1PC     C2110777   1.636   2.191   3.534  0.2467  0.4971 -0.7274
    1PC     O2210778   1.620   2.287   3.612  0.4622 -0.2482  0.2636
    1OL     C1210779   1.730   2.083   3.555 -0.7054 -0.1256 -0.0365
    1OL     H2R10780   1.816   2.102   3.490  2.2140 -0.1874  3.4810
    1OL     H2S10781   1.678   1.993   3.520  1.8155 -1.5494 -0.3955
    1OL     C1310782   1.763   2.066   3.706 -0.2613 -0.3911 -0.0107
    1OL     H3R10783   1.781   2.164   3.753  0.9851 -1.6801  2.4126
    1OL     H3S10784   1.854   2.006   3.709 -0.1798 -0.2882 -0.4114
    1OL     C1410785   1.655   1.999   3.791  0.3308 -0.2571 -0.0141
    1OL     H4R10786   1.610   1.927   3.724  0.6149 -0.4739  0.0280
    1OL     H4S10787   1.575   2.065   3.825  0.0840 -1.3950  1.7526
    1OL     C1510788   1.715   1.939   3.921  0.1499  0.0872 -0.4059
    1OL     H5R10789   1.786   1.859   3.899 -1.7624 -1.9513  0.4273
    1OL     H5S10790   1.631   1.889   3.971 -0.1346  0.2016 -0.7597
    1OL     C1610791   1.780   2.031   4.026 -0.2176  0.4111 -0.0445
    1OL     H6R10792   1.866   2.082   3.981 -0.0783 -0.3804 -0.6967
    1OL     H6S10793   1.812   1.976   4.114 -2.7981  1.0221  1.3538
    1OL     C1710794   1.684   2.145   4.070 -1.0401  0.3623  0.5323
    1OL     H7R10795   1.683   2.224   3.995  0.5392  0.8048  0.9453
    1OL     H7S10796   1.709   2.188   4.167 -2.6204 -0.6977  1.4639
    1OL     C1810797   1.543   2.101   4.099  0.1285 -0.2132  0.2737
    1OL     H8R10798   1.497   2.054   4.012  2.2134 -1.6145 -0.1519
    1OL     H8S10799   1.483   2.185   4.135  2.2545  0.9211  1.3589
    1OL     C1910800   1.549   1.990   4.211 -0.2561 -0.2557 -0.1755
    1OL     H9R10801   1.599   1.898   4.182 -0.9379 -0.4992 -0.6182
    1OL    C11010802   1.485   1.996   4.325  0.1985  1.0162 -0.2072
    1OL    H10R10803   1.486   1.911   4.394 -1.0907 -0.4684 -1.9063
    1OL    C11110804   1.409   2.113   4.385  0.4824 -0.0686  0.7936
    1OL    H11R10805   1.441   2.196   4.322  0.3073 -1.9702 -1.9950
    1OL    H11S10806   1.421   2.124   4.493 -0.3444 -1.1647  1.0173
    1OL    C11210807   1.260   2.111   4.362 -0.1528 -0.2488 -0.0098
    1OL    H12R10808   1.219   2.025   4.415 -0.3979 -0.0458  0.1331
    1OL    H12S10809   1.240   2.097   4.255  0.7470  3.2844 -0.7855
    1OL    C11310810   1.183   2.236   4.415  0.3715 -0.7078 -0.9328
    1OL    H13R10811   1.085   2.236   4.367 -0.6348 -2.5954  0.9895
    1OL    H13S10812   1.243   2.320   4.379  0.0025  1.1555  2.4414
    1OL    C11410813   1.175   2.241   4.566  0.2430  0.0958 -0.3604
    1OL    H14R10814   1.121   2.330   4.600  0.3961  0.1863 -0.3571
    1OL    H14S10815   1.274   2.253   4.611 -0.3245 -0.2850  1.0478
    1OL    C11510816   1.113   2.118   4.632 -0.0704 -0.1966  0.3134
    1OL    H15R10817   1.176   2.029   4.641 -0.2512 -0.4334 -0.5962
    1OL    H15S10818   1.028   2.083   4.573 -0.3696  0.9652  0.0364
    1OL    C11610819   1.074   2.146   4.778  0.0769 -0.2887 -0.5178
    1OL    H16R10820   1.031   2.244   4.797 -0.0723 -0.2265 -1.1597
    1OL    H16S10821   1.166   2.153   4.836 -0.6162 -0.2117  0.6054
    1OL    C11710822   0.990   2.041   4.862  0.0341 -0.1991 -0.0294
    1OL    H17R10823   1.039   1.944   4.847  1.2608  0.4952 -0.6634
    1OL    H17S10824   0.890   2.034   4.818 -0.2547  1.5075  0.2891
    1OL    C11810825   0.984   2.084   5.009  0.6372 -0.2232 -0.3844
    1OL    H18R10826   1.082   2.103   5.053 -0.2304  0.1255  1.5122
    1OL    H18S10827   0.936   2.001   5.063  0.0519  1.6187  2.1218
    1OL    H18T10828   0.924   2.171   5.037  1.2492 -0.2449  1.0909
    1PA    C11610829   1.496   3.426   5.337  0.1807 -0.5730  0.1652
    1PA    H16R10830   1.553   3.334   5.327 -0.8332 -1.0106 -2.5299
    1PA    H16S10831   1.446   3.431   5.434  1.6495 -0.5536  0.9497
    1PA    H16T10832   1.572   3.504   5.324 -0.0052 -0.5290 -0.7421
    1PA    C11510833   1.407   3.441   5.212 -1.0862  0.0628 -0.0877
    1PA    H15R10834   1.333   3.360   5.213  0.1886 -1.1600 -0.7415
    1PA    H15S10835   1.349   3.531   5.234 -2.1321  0.0189 -2.4213
    1PA    C11410836   1.487   3.452   5.086  0.1644  0.3839  0.4655
    1PA    H14R10837   1.565   3.525   5.104  0.4081 -0.1627  1.8267
    1PA    H14S10838   1.548   3.362   5.073  3.3841  2.6074 -0.8247
    1PA    C11310839   1.423   3.487   4.953 -0.0677  0.5402 -0.3064
    1PA    H13R10840   1.337   3.423   4.933 -0.9465  0.6317  2.7778
    1PA    H13S10841   1.381   3.585   4.972  0.2505  0.4379  1.0159
    1PA    C11210842   1.519   3.483   4.829 -0.2236 -0.1712 -0.0929
    1PA    H12R10843   1.602   3.551   4.852 -0.9406 -0.2456  3.3027
    1PA    H12S10844   1.559   3.384   4.808 -0.6951 -0.4036  0.0960
    1PA    C11110845   1.448   3.549   4.710 -0.4204  0.3601  0.1379
    1PA    H11R10846   1.349   3.505   4.694 -0.7046  1.0124  0.0965
    1PA    H11S10847   1.413   3.641   4.756 -0.1068  0.5356  0.0292
    1PA    C11010848   1.529   3.566   4.580  0.3869 -0.0745 -0.4139
    1PA    H10R10849   1.598   3.650   4.596  1.9104 -1.1496 -1.1865
    1PA    H10S10850   1.592   3.477   4.579  1.8637  0.9243 -0.9457
    1PA     C1910851   1.458   3.582   4.442  0.9057 -0.1469 -0.7453
    1PA     H9R10852   1.361   3.531   4.443  0.3300  0.9253 -0.1655
    1PA     H9S10853   1.441   3.690   4.439  1.3356  0.4028  4.8123
    1PA     C1810854   1.550   3.550   4.327 -0.1641  0.2645 -0.3523
    1PA     H8R10855   1.646   3.601   4.340  1.0512 -1.6813 -1.1346
    1PA     H8S10856   1.575   3.444   4.328 -1.6271 -0.1027 -0.6134
    1PA     C1710857   1.485   3.589   4.192 -0.1084  0.0161  0.1291
    1PA     H7R10858   1.402   3.529   4.153 -0.1622  1.1389 -1.5734
    1PA     H7S10859   1.445   3.690   4.202 -0.8766 -0.2322 -0.2751
    1PA     C1610860   1.600   3.588   4.096  0.4345 -0.5001 -0.5654
    1PA     H6R10861   1.669   3.667   4.126 -2.4262  1.9296  0.1430
    1PA     H6S10862   1.653   3.493   4.103  0.2834 -0.7618 -2.4491
    1PA     C1510863   1.568   3.630   3.949 -0.0703 -0.1564 -0.1845
    1PA     H5R10864   1.478   3.577   3.917 -1.3974  1.1390  1.2661
    1PA     H5S10865   1.541   3.736   3.948 -1.5538 -0.5072 -0.1182
    1PA     C1410866   1.682   3.620   3.854 -0.1428 -0.2816 -0.0102
    1PA     H4R10867   1.760   3.688   3.891 -1.2570  0.7911  0.4341
    1PA     H4S10868   1.708   3.514   3.845  0.7326 -0.2639  1.7470
    1PA     C1310869   1.638   3.674   3.716 -0.0244 -0.0817  0.1699
    1PA     H3R10870   1.545   3.624   3.688 -0.8760 -0.3846  3.1584
    1PA     H3S10871   1.618   3.780   3.727 -0.8572 -0.2626  0.4402
    1PA     C1210872   1.744   3.645   3.602 -0.4798 -0.2556 -0.0325
    1PA     H2R10873   1.840   3.697   3.611 -0.0448 -0.7800 -1.4625
    1PA     H2S10874   1.767   3.538   3.600 -0.3538 -0.3127  2.0505
    1PC     C1110875   1.686   3.690   3.469  0.4177 -0.7561 -0.7298
    1PC     O1210876   1.655   3.612   3.380  0.0449 -0.3517  0.5940
    1PC     O1110877   1.673   3.823   3.472  0.3896  0.4098  0.4958
    1PC      C110878   1.615   3.897   3.355  0.2279  0.1026 -0.1063
    1PC      HR10879   1.665   3.990   3.326 -0.1440  0.1923 -0.4705
    1PC      HS10880   1.623   3.830   3.268 -1.7732  0.3269 -0.5056
    1PC      C210881   1.466   3.924   3.377  0.3560 -0.9190  0.2688
    1PC      HX10882   1.407   3.832   3.368 -3.2447  1.3500 -2.3746
    1PC      C310883   1.409   4.031   3.284  0.1035 -0.3190 -0.0162
    1PC      HA10884   1.306   4.054   3.311  0.7970  0.8091  1.8331
    1PC      HB10885   1.467   4.124   3.282  0.9019 -0.8110 -0.3339
    1PC     O3110886   1.411   3.983   3.146 -0.6120 -0.1050  0.2121
    1PC     P3110887   1.316   3.870   3.096  0.1629 -0.2732 -0.0063
    1PC     O3210888   1.393   3.735   3.121  0.1281  0.3501  0.3277
    1PC     C3110889   1.514   3.697   3.051 -0.5389  0.1867  0.8241
    1PC     H1A10890   1.561   3.791   3.022 -1.2777  0.4737  0.5153
    1PC     H1B10891   1.572   3.638   3.122 -1.4355  0.1271  1.5228
    1PC     C3210892   1.473   3.622   2.920  1.1857  0.5780  0.2549
    1PC     H2A10893   1.423   3.684   2.845 -0.2863 -1.7739 -0.8121
    1PC     H2B10894   1.566   3.584   2.879  1.8360 -0.5122  2.5864
    1PC     N3110895   1.389   3.499   2.929  0.0248  0.3758 -0.7915
    1PC     C3310896   1.384   3.441   2.793 -0.3393  0.2547 -0.1845
    1PC     H3A10897   1.369   3.516   2.715  1.0504 -0.5521 -1.2623
    1PC     H3B10898   1.479   3.390   2.774 -0.3090  0.6083 -1.0136
    1PC     H3C10899   1.305   3.368   2.806  0.6367 -0.3962  3.2416
    1PC     C3410900   1.457   3.398   3.015  0.5921 -0.2918 -0.1761
    1PC     H4A10901   1.533   3.346   2.957  0.1968 -0.2513 -0.7435
    1PC     H4B10902   1.486   3.443   3.111 -0.5538 -1.9383  0.9942
    1PC     H4C10903   1.379   3.322   3.022 -0.4291  0.1573 -4.0817
    1PC     C3510904   1.254   3.521   2.982  0.1219  0.0022 -0.3733
    1PC     H5A10905   1.257   3.583   3.072 -0.0840  0.3537 -0.6094
    1PC     H5B10906   1.207   3.424   2.999 -0.2393  0.1165 -0.7224
    1PC     H5C10907   1.198   3.573   2.905 -0.8768  0.3547  0.5690
    1PC     O3310908   1.197   3.865   3.183  0.5837 -0.3315 -0.0783
    1PC     O3410909   1.292   3.893   2.954 -0.1283 -0.5155  0.1467
    1PC     O2110910   1.463   3.980   3.507  0.3806 -0.8922 -0.1471
    1PC     C2110911   1.420   3.910   3.612 -0.2412 -0.9532  0.1148
    1PC     O2210912   1.392   3.792   3.608  0.3794  0.2879  0.0549
    1OL     C1210913   1.423   3.987   3.738  0.3295  0.1775  0.5250
    1OL     H2R10914   1.391   4.090   3.718 -3.4767 -0.8532  0.5159
    1OL     H2S10915   1.527   3.994   3.769  0.1349 -0.5913  1.3907
    1OL     C1310916   1.329   3.935   3.849  0.3643  0.6684 -0.0039
    1OL     H3R10917   1.364   3.836   3.876  0.6435  0.8673  0.3840
    1OL     H3S10918   1.233   3.940   3.797  0.0273 -2.1049  0.2003
    1OL     C1410919   1.324   4.027   3.977 -0.6288  0.3668  0.4572
    1OL     H4R10920   1.268   4.113   3.939  0.3165  1.2444  0.9842
    1OL     H4S10921   1.423   4.055   4.013 -0.5806 -0.6954  1.1806
    1OL     C1510922   1.245   3.960   4.088 -0.2850  0.0618 -0.1667
    1OL     H5R10923   1.276   3.855   4.086 -1.1019 -0.1714 -1.0527
    1OL     H5S10924   1.139   3.975   4.068 -0.3428 -0.0956  0.0237
    1OL     C1610925   1.253   4.018   4.232 -0.0195 -0.3136 -0.3870
    1OL     H6R10926   1.217   4.121   4.237 -3.0053 -1.2377 -0.9497
    1OL     H6S10927   1.355   4.034   4.268 -1.1702 -1.4035  3.8572
    1OL     C1710928   1.178   3.925   4.332 -0.1426  1.1094  0.1214
    1OL     H7R10929   1.218   3.823   4.325  0.4317  1.2376  1.2570
    1OL     H7S10930   1.074   3.925   4.301 -1.2191  0.2961  3.3935
    1OL     C1810931   1.179   3.959   4.480 -0.6258  0.9280 -0.4523
    1OL     H8R10932   1.172   4.068   4.488  1.9657  1.1015  0.4554
    1OL     H8S10933   1.279   3.933   4.516 -0.9820 -0.3581 -0.3718
    1OL     C1910934   1.086   3.874   4.568 -0.2945  0.7341  0.5818
    1OL     H9R10935   1.118   3.772   4.585  0.5803  1.2491  2.1984
    1OL    C11010936   0.976   3.916   4.624  0.3048  0.9992  0.2294
    1OL    H10R10937   0.918   3.846   4.683 -0.6557  1.5918  0.0038
    1OL    C11110938   0.916   4.054   4.604  0.0354  0.1241 -0.1644
    1OL    H11R10939   0.835   4.047   4.530 -0.2307 -0.6810  0.1872
    1OL    H11S10940   0.993   4.117   4.559 -0.0426  0.2708 -0.0901
    1OL    C11210941   0.874   4.114   4.738 -0.0551 -0.1900  0.2160
    1OL    H12R10942   0.884   4.222   4.725  0.8747 -0.3442 -0.4327
    1OL    H12S10943   0.955   4.080   4.803 -1.0861 -3.8646 -0.2185
    1OL    C11310944   0.735   4.079   4.791  0.3988 -0.5386  0.0034
    1OL    H13R10945   0.746   3.984   4.844 -0.0872 -0.4877  0.2000
    1OL    H13S10946   0.669   4.066   4.706 -1.0774  0.1738  0.9925
    1OL    C11410947   0.665   4.177   4.890 -0.1541 -0.2277  0.1107
    1OL    H14R10948   0.677   4.282   4.865  0.5677 -0.3842 -0.2318
    1OL    H14S10949   0.723   4.166   4.982 -0.8427  1.1939  0.7492
    1OL    C11510950   0.516   4.156   4.912 -0.2275 -0.1982 -0.3357
    1OL    H15R10951   0.503   4.050   4.934 -0.0288 -0.6335 -2.1290
    1OL    H15S10952   0.452   4.182   4.827 -1.6274  0.3882  0.8729
    1OL    C11610953   0.458   4.244   5.030 -0.6003  0.5455 -0.3105
    1OL    H16R10954   0.541   4.266   5.097  1.1906 -0.7162 -2.0189
    1OL    H16S10955   0.389   4.177   5.082  0.2563 -2.1534 -2.4473
    1OL    C11710956   0.392   4.370   4.994 -0.0876 -0.4497 -0.1414
    1OL    H17R10957   0.324   4.348   4.912 -1.3192 -2.1454  1.2717
    1OL    H17S10958   0.467   4.435   4.948 -0.8151  0.6081  0.1380
    1OL    C11810959   0.320   4.444   5.110 -0.4821 -0.0279 -0.1100
    1OL    H18R10960   0.389   4.464   5.191  1.4112 -0.3817 -1.5632
    1OL    H18S10961   0.232   4.389   5.145  1.6533 -3.7866 -0.0781
    1OL    H18T10962   0.299   4.543   5.069  1.3347  0.0027 -1.0655
    1PA    C11610963   2.320   0.180   5.189 -0.2984  0.0591  1.1922
    1PA    H16R10964   2.353   0.238   5.276 -0.2920  1.0763  0.5242
    1PA    H16S10965   2.302   0.076   5.218  3.0543 -1.2646 -0.8007
    1PA    H16T10966   2.224   0.222   5.161  0.1534  2.0904  2.4981
    1PA    C11510967   2.417   0.199   5.071  0.4216  0.2514  0.1102
    1PA    H15R10968   2.456   0.301   5.069  0.9527  0.0516  0.3503
    1PA    H15S10969   2.500   0.131   5.086  0.2090  0.4124  2.3633
    1PA    C11410970   2.335   0.171   4.940  0.0601  0.6881 -0.5109
    1PA    H14R10971   2.295   0.070   4.945  3.3315 -0.6726  2.1203
    1PA    H14S10972   2.248   0.236   4.942 -0.6671 -0.2332  2.6234
    1PA    C11310973   2.425   0.188   4.818 -0.3273  0.3768  0.1974
    1PA    H13R10974   2.453   0.293   4.811 -0.4283  0.3383 -0.9296
    1PA    H13S10975   2.514   0.127   4.833  1.0274  2.5345  1.5075
    1PA    C11210976   2.336   0.147   4.700 -0.4067 -0.2005  0.2312
    1PA    H12R10977   2.319   0.041   4.681 -0.9257  0.0403 -0.7609
    1PA    H12S10978   2.246   0.209   4.695 -0.3619  0.0790  2.2859
    1PA    C11110979   2.411   0.184   4.577 -0.0256  0.2661  1.0462
    1PA    H11R10980   2.512   0.144   4.569  0.3627  1.4267 -0.2964
    1PA    H11S10981   2.348   0.140   4.499  1.0940 -1.3496  1.0050
    1PA    C11010982   2.423   0.338   4.545  1.1907  0.3200  0.0969
    1PA    H10R10983   2.326   0.382   4.571  0.7698 -0.0921 -0.7426
    1PA    H10S10984   2.491   0.394   4.610  0.9129  0.0686  0.6079
    1PA     C1910985   2.473   0.365   4.400 -0.2093 -0.1386 -0.3645
    1PA     H9R10986   2.567   0.313   4.377 -0.7352 -0.5402 -1.7250
    1PA     H9S10987   2.391   0.328   4.338 -0.1410 -0.6902 -0.1268
    1PA     C1810988   2.492   0.514   4.378  0.0725 -0.2511  0.4166
    1PA     H8R10989   2.398   0.568   4.384 -0.7638 -1.7808  2.2290
    1PA     H8S10990   2.566   0.548   4.451 -0.6687  0.5531  0.8131
    1PA     C1710991   2.561   0.550   4.242  0.1749 -0.1639  0.0697
    1PA     H7R10992   2.579   0.658   4.234 -1.2150 -0.0298 -2.0581
    1PA     H7S10993   2.656   0.499   4.227 -0.5205 -0.9810 -1.8914
    1PA     C1610994   2.475   0.519   4.125 -0.0595 -0.4237  0.0918
    1PA     H6R10995   2.442   0.415   4.123 -1.5872  0.0337  0.4216
    1PA     H6S10996   2.384   0.579   4.126  0.6385  0.6840  1.1374
    1PA     C1510997   2.542   0.553   3.987  0.2786  0.3878  0.0437
    1PA     H5R10998   2.540   0.661   3.972  2.2279  0.3528 -0.7639
    1PA     H5S10999   2.646   0.519   3.987 -0.3510 -1.6770  0.1065
    1PA     C1411000   2.474   0.479   3.865 -0.8578 -0.1747 -0.3024
    1PA     H4R11001   2.472   0.372   3.886  1.4250 -0.0259  1.0457
    1PA     H4S11002   2.370   0.510   3.857 -1.6355 -2.7566 -1.1280
    1PA     C1311003   2.553   0.496   3.735  0.1299  0.2769 -0.2423
    1PA     H3R11004   2.652   0.450   3.733  0.5694  1.2224 -1.4358
    1PA     H3S11005   2.494   0.458   3.652  1.4152  0.2633 -1.1851
    1PA     C1211006   2.584   0.643   3.694  0.1993 -0.4016 -0.3763
    1PA     H2R11007   2.496   0.707   3.695  1.3139  1.2288  1.0826
    1PA     H2S11008   2.652   0.692   3.765  0.0096  0.9524 -1.0968
    1PC     C1111009   2.654   0.656   3.557 -0.7621 -0.0764 -0.6524
    1PC     O1211010   2.601   0.692   3.456  0.6036 -0.4826 -0.2996
    1PC     O1111011   2.784   0.612   3.560 -0.3778  0.4133  0.2787
    1PC      C111012   2.858   0.625   3.430  0.6885  0.3284  0.2510
    1PC      HR11013   2.934   0.548   3.421  0.6333  0.4193 -1.1721
    1PC      HS11014   2.784   0.611   3.350 -0.8883  2.4381  1.2377
    1PC      C211015   2.927   0.763   3.413 -0.6615  0.7660 -0.3230
    1PC      HX11016   2.849   0.836   3.389  0.7682  1.8370 -1.9243
    1PC      C311017   3.044   0.767   3.312  0.4652 -0.0703  0.0183
    1PC      HA11018   3.058   0.876   3.305 -0.9312  0.0969 -0.4111
    1PC      HB11019   3.128   0.717   3.361  0.4144 -0.7862 -0.6156
    1PC     O3111020   3.016   0.699   3.185  0.4827 -0.0576  0.0886
    1PC     P3111021   2.934   0.769   3.075 -0.1881 -0.1538  0.3420
    1PC     O3211022   2.792   0.726   3.114  0.5116  0.3035  0.0515
    1PC     C3111023   2.715   0.628   3.040 -0.5131 -0.5949 -0.0268
    1PC     H1A11024   2.773   0.538   3.019  1.1329 -0.8895  4.5534
    1PC     H1B11025   2.628   0.610   3.103 -1.2058  3.0958  0.2936
    1PC     C3211026   2.667   0.696   2.913 -0.2265  0.0557 -0.1557
    1PC     H2A11027   2.606   0.783   2.940 -1.0455 -0.3391 -0.6992
    1PC     H2B11028   2.758   0.733   2.865  0.3284  0.4569  1.1601
    1PC     N3111029   2.589   0.627   2.808  0.2038  0.5866 -0.6894
    1PC     C3311030   2.470   0.562   2.869 -0.6590  0.3932 -0.1539
    1PC     H3A11031   2.414   0.516   2.787  3.2411 -1.4293 -2.0863
    1PC     H3B11032   2.493   0.488   2.945 -3.4217 -0.0224  0.3676
    1PC     H3C11033   2.422   0.646   2.919 -0.7032  0.0322  0.4122
    1PC     C3411034   2.553   0.722   2.706  0.0133  0.2968 -0.3366
    1PC     H4A11035   2.641   0.737   2.644  0.1382  1.3210  0.0653
    1PC     H4B11036   2.468   0.686   2.647 -0.6271  1.5740 -0.2311
    1PC     H4C11037   2.514   0.809   2.760 -1.1269 -1.1817  1.3406
    1PC     C3511038   2.669   0.520   2.746  0.2556 -0.7448  0.0635
    1PC     H5A11039   2.700   0.451   2.824  2.9060  1.3266  1.0047
    1PC     H5B11040   2.756   0.569   2.702 -0.6138  0.7577 -0.0756
    1PC     H5C11041   2.607   0.478   2.667  0.8603  0.3298 -1.0162
    1PC     O3311042   2.948   0.917   3.095 -0.1023  0.1006  0.0983
    1PC     O3411043   2.974   0.712   2.947 -0.0110  0.5479  0.0959
    1PC     O2111044   2.981   0.795   3.544  0.0771 -0.2225  0.0074
    1PC     C2111045   2.911   0.866   3.632  0.4972  0.0420 -0.1321
    1PC     O2211046   2.798   0.899   3.609  0.5316 -0.1844  0.4802
    1OL     C1211047   2.978   0.901   3.763  0.0302 -0.0274 -0.8353
    1OL     H2R11048   3.080   0.940   3.753  0.3350  0.1121  1.9521
    1OL     H2S11049   2.995   0.803   3.807 -1.5123  0.0243 -0.0486
    1OL     C1311050   2.892   0.987   3.855  0.6519  0.0711 -0.2913
    1OL     H3R11051   2.787   0.968   3.829 -0.2349  2.8346  0.9826
    1OL     H3S11052   2.894   1.094   3.833  0.2565 -0.1978 -1.7602
    1OL     C1411053   2.929   0.981   4.007 -0.2970 -0.0507 -0.2044
    1OL     H4R11054   3.030   1.015   4.032 -1.0943  1.7295  0.8700
    1OL     H4S11055   2.922   0.876   4.035 -2.6271  0.7905  3.0979
    1OL     C1511056   2.823   1.061   4.089  0.1606  0.0412 -0.4743
    1OL     H5R11057   2.726   1.018   4.063  0.4771 -0.8926 -0.1444
    1OL     H5S11058   2.833   1.163   4.052  0.6705 -0.4379 -1.7061
    1OL     C1611059   2.829   1.049   4.242 -0.4625 -0.5498  0.5028
    1OL     H6R11060   2.758   1.128   4.269  2.9623  3.5299 -1.1717
    1OL     H6S11061   2.924   1.079   4.285  0.0077 -1.5038  0.1544
    1OL     C1711062   2.783   0.915   4.308  0.0111  0.5407  0.4648
    1OL     H7R11063   2.841   0.832   4.267 -1.5958  0.7909 -2.5668
    1OL     H7S11064   2.678   0.896   4.286 -0.0258  0.1379  0.9622
    1OL     C1811065   2.790   0.898   4.461  0.2899  0.3631  0.1009
    1OL     H8R11066   2.889   0.889   4.507 -0.9790 -1.2585  2.7448
    1OL     H8S11067   2.747   0.802   4.491  0.5411  0.3120  0.3051
    1OL     C1911068   2.701   0.998   4.532 -0.1279  0.6201  0.6347
    1OL     H9R11069   2.596   0.969   4.533  0.0404 -0.0185  0.8496
    1OL    C11011070   2.744   1.111   4.588 -0.6346 -0.1889  0.4269
    1OL    H10R11071   2.671   1.174   4.638  0.3997  2.4629 -1.1768
    1OL    C11111072   2.879   1.180   4.595 -0.0578  0.2437 -0.3226
    1OL    H11R11073   2.961   1.114   4.565  0.2197 -0.4434  1.7813
    1OL    H11S11074   2.887   1.210   4.699 -0.6643 -2.4147  0.5601
    1OL    C11211075   2.879   1.307   4.509  0.3386 -0.0865  0.1566
    1OL    H12R11076   2.818   1.377   4.566  0.6455  0.9549 -0.7635
    1OL    H12S11077   2.841   1.291   4.409  0.9771 -0.8284  0.0261
    1OL    C11311078   3.016   1.373   4.504 -0.9647 -0.6552  0.0678
    1OL    H13R11079   3.087   1.299   4.466  0.9596  0.5686  1.1368
    1OL    H13S11080   3.040   1.387   4.609  1.5621 -0.7907 -0.4176
    1OL    C11411081   3.030   1.506   4.428  0.1240  0.1703 -0.4038
    1OL    H14R11082   3.125   1.557   4.447  0.4854 -0.8240  0.5505
    1OL    H14S11083   2.952   1.577   4.457 -0.1614 -0.4713  0.4232
    1OL    C11511084   3.014   1.484   4.279  0.4224 -0.3046  0.3702
    1OL    H15R11085   2.995   1.579   4.229 -0.5114 -0.9128 -0.4702
    1OL    H15S11086   2.921   1.428   4.266  0.2203 -0.3231  1.7588
    1OL    C11611087   3.140   1.418   4.210  0.4647  0.3545 -0.5246
    1OL    H16R11088   3.108   1.382   4.112  1.3743 -0.5894 -0.4920
    1OL    H16S11089   3.167   1.331   4.271  0.4723  0.4005 -0.4629
    1OL    C11711090   3.268   1.505   4.202 -0.0285  0.2116  0.1688
    1OL    H17R11091   3.329   1.495   4.293  1.6303 -0.5836 -0.9794
    1OL    H17S11092   3.245   1.611   4.204 -0.1008  0.2015  1.8163
    1OL    C11811093   3.365   1.477   4.079 -0.5259 -0.7801 -0.3477
    1OL    H18R11094   3.373   1.369   4.062  3.8142 -0.4065 -1.9075
    1OL    H18S11095   3.460   1.523   4.107  0.0035 -1.4627 -0.9618
    1OL    H18T11096   3.334   1.530   3.989  0.4931 -0.1523 -0.3498
    1PA    C11611097   4.451   3.047   4.492  0.0328  0.0536 -0.4413
    1PA    H16R11098   4.514   2.998   4.567 -1.0448  0.1056  0.5359
    1PA    H16S11099   4.494   3.142   4.460  1.9289 -0.4706  0.3965
    1PA    H16T11100   4.449   2.981   4.406  0.2234 -1.7054  0.8577
    1PA    C11511101   4.304   3.082   4.541 -0.0181  1.1455  0.2793
    1PA    H15R11102   4.268   3.164   4.480  0.0591  0.4752 -0.6885
    1PA    H15S11103   4.236   2.996   4.535 -0.8577  1.7771  0.6191
    1PA    C11411104   4.303   3.119   4.689 -0.8738  0.5646 -0.3292
    1PA    H14R11105   4.317   3.026   4.744 -1.7850  0.4019 -0.3438
    1PA    H14S11106   4.396   3.171   4.709 -1.6075  1.4299  0.9578
    1PA    C11311107   4.193   3.209   4.751  0.4333  0.5644 -0.6254
    1PA    H13R11108   4.097   3.159   4.739  0.7092 -0.6806  1.6608
    1PA    H13S11109   4.209   3.199   4.859  2.1457 -0.5032 -0.9229
    1PA    C11211110   4.181   3.359   4.707 -0.2211 -1.0307 -0.4629
    1PA    H12R11111   4.162   3.361   4.600  1.4021 -1.2362 -0.7793
    1PA    H12S11112   4.095   3.401   4.760  1.1306  0.1579  0.8771
    1PA    C11111113   4.308   3.451   4.721 -0.1504  0.1014  0.6059
    1PA    H11R11114   4.321   3.480   4.825 -3.3593  2.4234  0.5245
    1PA    H11S11115   4.390   3.387   4.688 -1.0830 -0.1984 -1.3141
    1PA    C11011116   4.309   3.574   4.628 -0.0636 -0.1347  0.3426
    1PA    H10R11117   4.279   3.544   4.527  1.4711 -0.1495 -0.1490
    1PA    H10S11118   4.240   3.651   4.662  2.4292  2.2772  0.3549
    1PA     C1911119   4.451   3.640   4.614 -0.2360  0.3819 -0.2367
    1PA     H9R11120   4.468   3.698   4.706  0.9363 -5.7265  4.0408
    1PA     H9S11121   4.527   3.563   4.624 -0.7318 -0.1583 -0.5783
    1PA     C1811122   4.464   3.730   4.488  1.3399 -0.3800 -0.4450
    1PA     H8R11123   4.450   3.662   4.404  2.7851 -1.1819 -0.0679
    1PA     H8S11124   4.382   3.802   4.482  0.8373 -0.9919 -1.1545
    1PA     C1711125   4.600   3.796   4.488  0.7336 -0.2573 -0.8428
    1PA     H7R11126   4.624   3.832   4.588 -0.4258 -2.7381  0.4168
    1PA     H7S11127   4.679   3.724   4.464  1.3136  0.7529 -2.1214
    1PA     C1611128   4.594   3.906   4.377  0.2809  0.3675 -0.0719
    1PA     H6R11129   4.564   3.849   4.289 -0.8752  1.4151 -0.3861
    1PA     H6S11130   4.512   3.974   4.403  0.1763  0.6882 -1.1945
    1PA     C1511131   4.721   3.984   4.347 -1.0143 -0.7722  0.2697
    1PA     H5R11132   4.756   4.048   4.429  1.0633  0.5403 -1.5481
    1PA     H5S11133   4.798   3.907   4.338 -1.1814 -0.7930 -1.0491
    1PA     C1411134   4.707   4.057   4.212  0.3288  0.3814 -0.2238
    1PA     H4R11135   4.670   3.976   4.148  0.6064 -1.6218  2.0019
    1PA     H4S11136   4.638   4.142   4.209 -0.9598 -0.5990  0.4881
    1PA     C1311137   4.841   4.112   4.158  0.3026 -0.4538 -0.4966
    1PA     H3R11138   4.899   4.151   4.242  2.3142  1.3283 -2.5547
    1PA     H3S11139   4.910   4.038   4.117  0.7090 -0.0412 -0.5634
    1PA     C1211140   4.830   4.225   4.056 -0.2206  0.8435  0.0423
    1PA     H2R11141   4.783   4.313   4.101 -0.1213 -0.7101  3.4693
    1PA     H2S11142   4.930   4.257   4.024 -0.5592  2.2112  0.2628
    1PC     C1111143   4.747   4.173   3.942 -0.2130 -0.0949  0.3126
    1PC     O1211144   4.750   4.055   3.902 -0.1689 -0.1425 -0.0742
    1PC     O1111145   4.658   4.260   3.891 -0.6785 -0.4944  0.1549
    1PC      C111146   4.581   4.223   3.774  0.2097 -0.0781  0.4385
    1PC      HR11147   4.639   4.203   3.683  0.4696 -0.0876  0.6062
    1PC      HS11148   4.519   4.134   3.783 -0.0488 -0.3408 -2.6779
    1PC      C211149   4.477   4.334   3.737  0.3166  0.0506 -0.1328
    1PC      HX11150   4.401   4.293   3.670  1.1550 -0.8175 -0.5612
    1PC      C311151   4.543   4.458   3.685  0.0595  0.0122  0.0242
    1PC      HA11152   4.469   4.536   3.664 -0.7408 -0.5097  0.8581
    1PC      HB11153   4.607   4.494   3.766  0.9533  1.2539 -1.1901
    1PC     O3111154   4.618   4.424   3.565 -0.0777 -0.6217 -0.1291
    1PC     P3111155   4.558   4.436   3.423  0.4043 -0.2106 -0.0393
    1PC     O3211156   4.525   4.598   3.409  0.4192 -0.2140 -0.0093
    1PC     C3111157   4.635   4.685   3.387 -0.1667  0.4096  0.1323
    1PC     H1A11158   4.667   4.706   3.489  1.3976  0.5653 -0.3651
    1PC     H1B11159   4.711   4.643   3.320 -1.3911  2.3888 -2.7178
    1PC     C3211160   4.576   4.821   3.327  0.3800  1.0976  0.5818
    1PC     H2A11161   4.492   4.859   3.385  0.0025 -1.5826  1.9394
    1PC     H2B11162   4.657   4.895   3.320 -1.0701  2.5698 -2.4301
    1PC     N3111163   4.542   4.816   3.176  0.9548 -0.5808 -0.5578
    1PC     C3311164   4.649   4.761   3.093  0.0233  0.0132  0.2065
    1PC     H3A11165   4.627   4.764   2.986  1.5921 -1.0545 -0.1820
    1PC     H3B11166   4.736   4.823   3.110 -0.1726  0.7527 -1.2822
    1PC     H3C11167   4.673   4.660   3.127  1.1757  0.2629  0.1605
    1PC     C3411168   4.420   4.738   3.148 -0.1795  0.1122 -0.1706
    1PC     H4A11169   4.336   4.781   3.203 -0.4665 -1.7412  0.9369
    1PC     H4B11170   4.408   4.736   3.040  3.7420  1.9990 -0.8252
    1PC     H4C11171   4.431   4.640   3.193 -4.0746 -0.1037  0.6480
    1PC     C3511172   4.524   4.952   3.125 -0.1461  0.7056  0.6183
    1PC     H5A11173   4.511   4.949   3.017  0.7899  0.3614  0.5157
    1PC     H5B11174   4.612   5.012   3.147 -0.4002  1.6346 -0.7232
    1PC     H5C11175   4.433   4.988   3.174 -0.4522 -0.0468  0.6170
    1PC     O3311176   4.647   4.402   3.313  0.1801 -0.0882 -0.0890
    1PC     O3411177   4.431   4.362   3.430  0.3484 -0.1925 -0.6694
    1PC     O2111178   4.412   4.371   3.863  0.0588  0.7472  0.8886
    1PC     C2111179   4.342   4.276   3.926  0.3021  0.2336  0.2609
    1PC     O2211180   4.304   4.170   3.878 -0.3613 -0.8820  1.0990
    1OL     C1211181   4.302   4.321   4.067 -0.1445 -0.1258  0.7013
    1OL     H2R11182   4.268   4.425   4.067 -0.8475 -0.3480  0.4718
    1OL     H2S11183   4.390   4.314   4.131 -0.1735  0.3870  0.7992
    1OL     C1311184   4.180   4.243   4.110 -0.8396 -0.0190  0.0626
    1OL     H3R11185   4.199   4.136   4.100 -0.0521  0.2205 -1.1398
    1OL     H3S11186   4.094   4.267   4.047 -2.1807 -2.7865  0.6895
    1OL     C1411187   4.143   4.264   4.256  0.3430  0.0086  0.1399
    1OL     H4R11188   4.044   4.226   4.282  1.2260 -1.2086  1.8969
    1OL     H4S11189   4.149   4.370   4.280  0.1291  0.0565 -0.0136
    1OL     C1511190   4.246   4.193   4.349  0.3358 -0.6930 -0.6008
    1OL     H5R11191   4.340   4.245   4.332 -0.4461 -0.1635 -3.9548
    1OL     H5S11192   4.259   4.090   4.318 -1.0860 -1.0038 -0.2414
    1OL     C1611193   4.193   4.191   4.497 -0.3922  0.1008  0.2759
    1OL     H6R11194   4.102   4.131   4.502 -0.7265  0.6989  2.8267
    1OL     H6S11195   4.168   4.294   4.524  0.0631  0.5792 -1.0465
    1OL     C1711196   4.298   4.135   4.597 -0.0952 -0.6325 -0.1841
    1OL     H7R11197   4.385   4.200   4.605 -0.9885  0.3274  3.0294
    1OL     H7S11198   4.330   4.034   4.569  1.9459  0.0115 -0.3553
    1OL     C1811199   4.232   4.134   4.743  0.1645 -0.9088 -0.4424
    1OL     H8R11200   4.132   4.090   4.746  0.3338 -1.4853 -2.2825
    1OL     H8S11201   4.220   4.241   4.764  2.6126 -0.5510 -0.5786
    1OL     C1911202   4.313   4.075   4.847  0.2873  0.1404  0.0722
    1OL     H9R11203   4.290   3.973   4.878 -0.0135  0.4522  0.9360
    1OL    C11011204   4.393   4.141   4.932  0.1202 -0.1557  0.4588
    1OL    H10R11205   4.436   4.085   5.014  2.9904  0.5743 -0.4358
    1OL    C11111206   4.417   4.285   4.918  0.4605  0.1290 -1.0576
    1OL    H11R11207   4.417   4.307   4.811 -1.0253  1.0025 -0.9047
    1OL    H11S11208   4.513   4.295   4.970 -0.5736 -1.3982  1.3374
    1OL    C11211209   4.313   4.364   5.004 -0.2958 -0.1063  0.3801
    1OL    H12R11210   4.324   4.325   5.106  0.8172  0.7166  0.5847
    1OL    H12S11211   4.216   4.338   4.960  0.7103  1.4275 -3.0910
    1OL    C11311212   4.337   4.516   5.011 -0.4215 -0.3725  0.1590
    1OL    H13R11213   4.327   4.551   4.908 -1.9681 -0.8119  0.1467
    1OL    H13S11214   4.435   4.545   5.049 -0.9988 -0.8319  2.1348
    1OL    C11411215   4.240   4.590   5.103  0.5224  0.2588 -0.7514
    1OL    H14R11216   4.247   4.535   5.197 -0.0447 -1.1340 -1.4995
    1OL    H14S11217   4.139   4.571   5.065  0.2851 -0.7014  0.3095
    1OL    C11511218   4.261   4.738   5.121 -0.3427  0.4370 -0.3511
    1OL    H15R11219   4.263   4.782   5.022 -0.2111 -1.8731 -1.4431
    1OL    H15S11220   4.357   4.761   5.168 -0.6408  0.8635  0.0660
    1OL    C11611221   4.161   4.821   5.207 -0.4396 -0.0342 -0.0908
    1OL    H16R11222   4.128   4.763   5.294 -2.6590 -3.2343 -2.8071
    1OL    H16S11223   4.065   4.821   5.155 -0.2290  3.5262 -0.6872
    1OL    C11711224   4.214   4.960   5.238 -0.5161 -0.4528 -0.1246
    1OL    H17R11225   4.217   5.024   5.150 -2.1652  1.1385  0.8900
    1OL    H17S11226   4.313   4.946   5.282 -0.5358  0.3771  0.2131
    1OL    C11811227   4.131   5.044   5.339 -0.1241 -0.2081  0.8040
    1OL    H18R11228   4.177   5.137   5.373 -0.2849  0.5799 -0.9911
    1OL    H18S11229   4.122   4.983   5.429  1.2118 -0.3787  0.8322
    1OL    H18T11230   4.026   5.059   5.311 -0.7713  0.2366  3.1909
    1PA    C11611231   3.091   4.242   4.990  0.2104 -0.2701 -0.2865
    1PA    H16R11232   3.118   4.334   5.042  0.5580  0.2688 -1.3843
    1PA    H16S11233   3.186   4.206   4.951  0.7700 -0.3935  1.1355
    1PA    H16T11234   3.050   4.173   5.065 -1.4865  0.1037 -0.8133
    1PA    C11511235   2.979   4.261   4.887 -0.0256  0.4119  0.6086
    1PA    H15R11236   2.886   4.298   4.931 -1.0283 -3.0374  1.6536
    1PA    H15S11237   3.015   4.340   4.820  0.7970 -0.8708 -0.5053
    1PA    C11411238   2.947   4.132   4.805 -0.7164  0.4352  0.1163
    1PA    H14R11239   2.935   4.165   4.702  3.0144  0.6941 -0.3678
    1PA    H14S11240   3.033   4.065   4.798 -0.9984  0.1379 -0.5815
    1PA    C11311241   2.839   4.051   4.887 -0.2958 -0.4507 -0.0389
    1PA    H13R11242   2.885   4.008   4.976 -1.1444  0.2688  0.7569
    1PA    H13S11243   2.745   4.102   4.906  0.2805  0.0491  1.6302
    1PA    C11211244   2.796   3.930   4.803 -0.0504  0.1578 -0.3824
    1PA    H12R11245   2.885   3.871   4.782 -0.0489 -0.0025  0.0579
    1PA    H12S11246   2.721   3.872   4.857 -1.5491  2.7590  0.5226
    1PA    C11111247   2.730   3.969   4.668 -0.1128 -0.7089  0.4311
    1PA    H11R11248   2.654   4.041   4.697 -0.2969 -1.3707  1.6583
    1PA    H11S11249   2.802   4.020   4.604 -0.5616 -0.5819  0.0230
    1PA    C11011250   2.661   3.854   4.588 -0.1927  0.5772  0.2087
    1PA    H10R11251   2.587   3.820   4.661  0.5042  2.6728  2.0075
    1PA    H10S11252   2.604   3.888   4.501  2.4326 -1.9285 -2.7400
    1PA     C1911253   2.749   3.739   4.544 -1.1537 -0.3477  0.8603
    1PA     H9R11254   2.762   3.684   4.638  0.4437 -1.3960  0.0628
    1PA     H9S11255   2.701   3.666   4.478 -1.6722  0.8786 -0.1602
    1PA     C1811256   2.886   3.772   4.480 -0.6133 -0.2574 -0.3466
    1PA     H8R11257   2.930   3.849   4.544 -2.6958  1.2208 -0.5960
    1PA     H8S11258   2.950   3.684   4.493 -1.5755 -0.6884  1.9641
    1PA     C1711259   2.887   3.818   4.338 -0.2297 -0.2695  0.4380
    1PA     H7R11260   2.866   3.732   4.273  0.6960  0.1705 -0.4806
    1PA     H7S11261   2.805   3.887   4.318 -1.3549 -1.8706 -0.8242
    1PA     C1611262   3.030   3.884   4.308 -0.4543 -0.6103  0.0909
    1PA     H6R11263   3.058   3.967   4.372  0.5080 -1.9425  1.4475
    1PA     H6S11264   3.110   3.811   4.324  1.5848  1.0754 -1.7276
    1PA     C1511265   3.043   3.940   4.159 -0.3265 -0.1076 -0.0546
    1PA     H5R11266   3.144   3.974   4.137 -1.1762  0.6148 -3.5165
    1PA     H5S11267   3.011   3.863   4.089  0.6952 -0.5379 -0.0656
    1PA     C1411268   2.961   4.064   4.124  0.9170 -0.3719  0.0193
    1PA     H4R11269   2.866   4.051   4.176  1.4612 -2.6928  0.5147
    1PA     H4S11270   3.007   4.154   4.165  1.0347 -1.1147  1.5642
    1PA     C1311271   2.946   4.084   3.971  0.0967  0.2917 -0.3470
    1PA     H3R11272   3.047   4.098   3.931 -0.0741  0.3385 -0.7694
    1PA     H3S11273   2.905   3.997   3.918 -0.4846  1.1045 -1.2612
    1PA     C1211274   2.858   4.213   3.946  0.5498  0.3810 -0.0440
    1PA     H2R11275   2.767   4.203   4.006 -0.2914 -1.9872 -1.5611
    1PA     H2S11276   2.924   4.298   3.965 -0.6234  1.5974 -1.2665
    1PC     C1111277   2.822   4.224   3.797 -0.4923  0.0897  0.3170
    1PC     O1211278   2.826   4.139   3.710  0.5112 -0.1767 -0.1107
    1PC     O1111279   2.789   4.353   3.781 -0.8271 -0.1950  0.2457
    1PC      C111280   2.744   4.393   3.651 -0.0460  0.4668 -0.3356
    1PC      HR11281   2.721   4.500   3.647 -2.1386  0.0380 -0.8531
    1PC      HS11282   2.814   4.373   3.569 -1.4613  0.3647 -1.5653
    1PC      C211283   2.603   4.330   3.613 -0.1520 -0.1211  0.1026
    1PC      HX11284   2.609   4.221   3.602  0.7337  0.0379 -1.2954
    1PC      C311285   2.550   4.378   3.484 -0.3376 -0.0046  0.0511
    1PC      HA11286   2.484   4.306   3.435 -1.0855  0.3395  0.5272
    1PC      HB11287   2.488   4.468   3.496  0.4532  0.6101 -0.3741
    1PC     O3111288   2.654   4.410   3.389  0.1835  0.1065  0.2183
    1PC     P3111289   2.676   4.308   3.269  0.1446 -0.0416  0.3335
    1PC     O3211290   2.545   4.324   3.175 -0.1162 -0.0141 -0.6024
    1PC     C3111291   2.547   4.427   3.075 -0.1945  0.2868 -0.3788
    1PC     H1A11292   2.446   4.459   3.048  0.9321  3.1510 -1.5512
    1PC     H1B11293   2.613   4.512   3.094  0.0963  0.1518 -0.7696
    1PC     C3211294   2.606   4.360   2.951  0.7307 -0.3953  0.3076
    1PC     H2A11295   2.710   4.328   2.961  0.4950 -2.3898 -2.4269
    1PC     H2B11296   2.551   4.270   2.925  0.2129 -0.6043  2.0416
    1PC     N3111297   2.613   4.438   2.820 -0.1669 -0.3043 -0.0279
    1PC     C3311298   2.674   4.573   2.842 -0.1096  0.2066 -0.1522
    1PC     H3A11299   2.613   4.621   2.919 -0.9965  1.1038 -1.3572
    1PC     H3B11300   2.769   4.555   2.892  0.1520 -0.2353 -0.8007
    1PC     H3C11301   2.673   4.637   2.754 -0.0212 -0.2950 -0.5208
    1PC     C3411302   2.693   4.357   2.730 -0.0626 -0.1208  0.0908
    1PC     H4A11303   2.657   4.257   2.706 -0.7818  0.3362 -0.8257
    1PC     H4B11304   2.690   4.417   2.638 -0.1578  0.4332  0.4531
    1PC     H4C11305   2.795   4.354   2.767 -0.4871  0.9280  1.4396
    1PC     C3511306   2.473   4.447   2.767 -0.6484 -0.1021  0.5149
    1PC     H5A11307   2.422   4.518   2.832 -1.3838  0.3534 -0.5188
    1PC     H5B11308   2.408   4.359   2.767 -0.0377 -0.5625  0.0398
    1PC     H5C11309   2.479   4.491   2.667  1.3222 -1.6700 -0.1194
    1PC     O3311310   2.805   4.334   3.205  0.2529  0.1868  0.8030
    1PC     O3411311   2.661   4.179   3.334  0.3874  0.1428  0.0005
    1PC     O2111312   2.521   4.382   3.712  0.6429  0.7202 -0.0696
    1PC     C2111313   2.462   4.297   3.796 -0.2548 -0.1839  0.6178
    1PC     O2211314   2.507   4.183   3.813 -0.3588  0.2503 -0.2627
    1OL     C1211315   2.343   4.354   3.867  0.3606 -0.0730 -0.6016
    1OL     H2R11316   2.271   4.277   3.895 -0.2493  0.1404 -1.5577
    1OL     H2S11317   2.291   4.415   3.793  0.5307  0.1514 -0.5398
    1OL     C1311318   2.377   4.433   3.991 -0.1308 -0.4064 -0.1578
    1OL     H3R11319   2.284   4.454   4.044  0.1216 -1.5573  0.7836
    1OL     H3S11320   2.433   4.521   3.959 -0.9042  0.2026  0.1297
    1OL     C1411321   2.468   4.356   4.094 -0.2862 -0.2999  0.2339
    1OL     H4R11322   2.570   4.346   4.055 -0.0348  1.6034  0.2884
    1OL     H4S11323   2.430   4.256   4.114 -0.5553  0.1065  1.8201
    1OL     C1511324   2.475   4.426   4.223  0.1985  0.2709  0.4074
    1OL     H5R11325   2.377   4.425   4.270 -1.0160 -3.4000 -1.7834
    1OL     H5S11326   2.512   4.527   4.205  0.4089 -0.0881 -1.2980
    1OL     C1611327   2.568   4.360   4.312 -0.2243 -0.4868 -0.2594
    1OL     H6R11328   2.663   4.359   4.259 -0.0290  0.0676  0.0753
    1OL     H6S11329   2.549   4.253   4.323  0.9667 -0.7922 -1.0689
    1OL     C1711330   2.596   4.421   4.455 -0.3698 -0.3060  0.5169
    1OL     H7R11331   2.496   4.424   4.501 -0.4482 -0.6261  0.3682
    1OL     H7S11332   2.638   4.521   4.441  1.0946 -1.0347 -0.4421
    1OL     C1811333   2.691   4.335   4.540  0.6486  0.5311  0.1529
    1OL     H8R11334   2.676   4.228   4.520  2.0607  0.0302  1.5916
    1OL     H8S11335   2.680   4.352   4.647  0.9750 -4.2342  1.1815
    1OL     C1911336   2.824   4.344   4.485 -1.0723 -0.2327 -0.4957
    1OL     H9R11337   2.853   4.278   4.403 -1.0701 -1.4550  0.4620
    1OL    C11011338   2.921   4.424   4.527  0.1275 -0.4753 -0.3844
    1OL    H10R11339   3.017   4.432   4.477  0.3956  1.9722  0.3637
    1OL    C11111340   2.899   4.538   4.631  0.4310 -0.1542  0.3547
    1OL    H11R11341   2.991   4.545   4.690 -0.2380  2.2164  1.2102
    1OL    H11S11342   2.816   4.515   4.698 -1.4891 -1.4952 -2.3219
    1OL    C11211343   2.891   4.676   4.563  0.4103 -0.0059  0.4851
    1OL    H12R11344   2.849   4.749   4.633  0.0059  0.7854 -0.5532
    1OL    H12S11345   2.810   4.668   4.490  1.4908 -0.7958 -0.6415
    1OL    C11311346   3.018   4.733   4.498 -0.4158 -0.5766  0.5666
    1OL    H13R11347   3.045   4.667   4.415 -2.0087 -1.4833  0.7373
    1OL    H13S11348   3.100   4.719   4.569  0.5169 -1.1388 -0.5769
    1OL    C11411349   3.016   4.877   4.444 -0.0048  1.0491 -0.1049
    1OL    H14R11350   2.917   4.886   4.398 -0.4740  0.7075  0.8243
    1OL    H14S11351   3.086   4.890   4.361 -1.1548 -0.3403 -1.3461
    1OL    C11511352   3.010   4.985   4.545 -0.7546 -0.4010 -0.0202
    1OL    H15R11353   3.093   4.978   4.615 -0.5968  1.0169 -0.0197
    1OL    H15S11354   2.923   4.964   4.608  0.9503 -1.0594  2.2346
    1OL    C11611355   3.012   5.126   4.477 -0.0519  0.5179  0.5666
    1OL    H16R11356   2.922   5.111   4.416  0.8301 -3.4400 -0.0211
    1OL    H16S11357   3.096   5.130   4.408 -1.1926  0.9863 -0.8678
    1OL    C11711358   3.016   5.250   4.575  0.4237 -0.3139  0.3287
    1OL    H17R11359   2.963   5.215   4.663  2.6561 -2.1320  1.0512
    1OL    H17S11360   2.959   5.334   4.533  0.4826  0.0051  0.8807
    1OL    C11811361   3.153   5.298   4.621 -0.2403  0.1750  0.0453
    1OL    H18R11362   3.146   5.364   4.708  1.6574 -0.1023  0.4560
    1OL    H18S11363   3.219   5.352   4.553 -0.7388  1.3679  0.4688
    1OL    H18T11364   3.217   5.213   4.642  0.5655  0.6377 -0.4967
    1PA    C11611365   3.375   2.086   4.920 -0.2321  0.1629  0.1429
    1PA    H16R11366   3.333   1.991   4.885  1.9000 -0.4660 -0.9140
    1PA    H16S11367   3.406   2.062   5.022 -0.3942 -1.1173 -0.0808
    1PA    H16T11368   3.463   2.098   4.857  0.5392 -2.8471  0.4694
    1PA    C11511369   3.276   2.197   4.907  0.8842 -0.1871  0.0172
    1PA    H15R11370   3.188   2.178   4.968  1.7291  1.6297  1.9406
    1PA    H15S11371   3.316   2.292   4.943 -1.7308  1.1665 -0.3970
    1PA    C11411372   3.233   2.209   4.759 -0.5567 -0.4311 -0.2360
    1PA    H14R11373   3.318   2.228   4.693  1.3648 -3.5315  1.1386
    1PA    H14S11374   3.191   2.112   4.731 -3.8794  1.1750 -1.3807
    1PA    C11311375   3.126   2.312   4.733 -0.0553 -0.0403 -0.2549
    1PA    H13R11376   3.036   2.287   4.789 -0.4877 -0.9894 -1.3238
    1PA    H13S11377   3.156   2.402   4.787  3.2564 -2.6242  2.6972
    1PA    C11211378   3.094   2.337   4.584 -0.1763 -0.1534  0.3966
    1PA    H12R11379   3.188   2.373   4.541 -0.7434  0.9282  0.0384
    1PA    H12S11380   3.066   2.244   4.535  0.4500 -0.2115  0.1362
    1PA    C11111381   2.973   2.435   4.554  0.4341  0.3715 -0.4153
    1PA    H11R11382   2.882   2.375   4.561  1.8078 -1.9023 -0.8114
    1PA    H11S11383   2.986   2.522   4.619  0.1901 -0.1815  0.4020
    1PA    C11011384   2.984   2.472   4.400 -0.4761 -0.2350  0.4043
    1PA    H10R11385   3.004   2.380   4.346 -0.8691 -0.5105  0.7219
    1PA    H10S11386   2.888   2.507   4.362 -1.1814 -2.8479 -0.3782
    1PA     C1911387   3.095   2.572   4.368 -0.2656 -0.3786  0.2898
    1PA     H9R11388   3.054   2.672   4.387 -2.3197 -0.6403 -2.2944
    1PA     H9S11389   3.181   2.561   4.435 -0.6717  1.3994  1.1856
    1PA     C1811390   3.146   2.560   4.220  0.8231  0.2994  0.0715
    1PA     H8R11391   3.220   2.639   4.203 -0.0349  1.3633  1.0925
    1PA     H8S11392   3.203   2.467   4.222  0.2919 -0.0210  1.7484
    1PA     C1711393   3.040   2.556   4.106  0.1803 -0.7031 -0.0582
    1PA     H7R11394   2.984   2.463   4.119 -0.7575 -0.1419  0.0123
    1PA     H7S11395   2.973   2.640   4.125  2.0088  0.4878  1.5667
    1PA     C1611396   3.108   2.571   3.971  0.3232  0.2200  0.4808
    1PA     H6R11397   3.175   2.657   3.965 -0.1143  0.5355  0.0297
    1PA     H6S11398   3.186   2.496   3.954  3.1287  2.9995  0.0480
    1PA     C1511399   3.003   2.567   3.858  0.3193 -0.1757  0.2234
    1PA     H5R11400   2.949   2.659   3.879 -1.4019 -0.8554 -1.0108
    1PA     H5S11401   3.046   2.574   3.758  0.5719 -0.0879  0.3381
    1PA     C1411402   2.908   2.445   3.838  0.8150  0.4431  0.1010
    1PA     H4R11403   2.856   2.430   3.933  0.1148  3.1790  0.2249
    1PA     H4S11404   2.832   2.470   3.764  1.0545  1.6440  0.2494
    1PA     C1311405   2.984   2.319   3.791 -0.2812  1.0136  0.8082
    1PA     H3R11406   3.055   2.343   3.712 -1.3404 -0.8119 -0.7953
    1PA     H3S11407   3.041   2.279   3.875  1.0425 -0.4977 -0.7490
    1PA     C1211408   2.885   2.202   3.755 -0.7107 -0.3081  0.6509
    1PA     H2R11409   2.835   2.181   3.850  2.8646 -1.2141  2.5165
    1PA     H2S11410   2.819   2.248   3.682  1.1592  3.5429  1.1516
    1PC     C1111411   2.932   2.077   3.685  0.3370  0.0826 -0.2488
    1PC     O1211412   2.952   2.075   3.565  0.4084 -0.1365 -0.0665
    1PC     O1111413   2.917   1.977   3.770 -0.5255 -0.0214  0.1198
    1PC      C111414   2.955   1.839   3.732 -0.6770  0.8107  1.1002
    1PC      HR11415   2.905   1.767   3.797 -0.5194 -1.9525 -1.5516
    1PC      HS11416   2.933   1.822   3.626  2.5614 -1.0468  0.5661
    1PC      C211417   3.114   1.839   3.754 -0.2427 -0.0295 -0.5419
    1PC      HX11418   3.154   1.912   3.684 -2.2489  1.1758 -0.5211
    1PC      C311419   3.175   1.695   3.728  0.4602 -0.6080 -0.4925
    1PC      HA11420   3.283   1.706   3.739  0.1542  1.9530  0.6998
    1PC      HB11421   3.132   1.629   3.804 -0.6047  1.0136  0.3741
    1PC     O3111422   3.142   1.648   3.597  0.7841  0.3240 -0.1034
    1PC     P3111423   3.214   1.700   3.467  0.2967 -0.1333  0.0456
    1PC     O3211424   3.302   1.578   3.415 -0.1290  0.0574  0.7733
    1PC     C3111425   3.250   1.470   3.332 -0.6326 -0.7885 -0.3615
    1PC     H1A11426   3.321   1.389   3.349 -0.0026 -0.1265  0.1796
    1PC     H1B11427   3.151   1.434   3.359 -0.6984 -0.6999 -0.4793
    1PC     C3211428   3.263   1.521   3.186  0.1720  0.1876 -0.2070
    1PC     H2A11429   3.271   1.630   3.179 -0.1490  0.3698  1.8503
    1PC     H2B11430   3.359   1.478   3.157  0.4334 -0.3054  1.3126
    1PC     N3111431   3.154   1.479   3.092 -0.5706  0.2935  1.1446
    1PC     C3311432   3.159   1.328   3.082 -0.1433  0.1765  0.1080
    1PC     H3A11433   3.220   1.299   2.996 -0.5687 -0.3205 -0.0328
    1PC     H3B11434   3.189   1.287   3.178 -0.8416  0.3676  0.4141
    1PC     H3C11435   3.057   1.293   3.063  0.0937 -0.5100  0.0789
    1PC     C3411436   3.014   1.519   3.151  0.2317  0.0410  0.1967
    1PC     H4A11437   2.935   1.485   3.083 -0.0716 -2.6917  1.7653
    1PC     H4B11438   2.990   1.472   3.246 -1.2848 -1.4332 -0.8518
    1PC     H4C11439   3.014   1.627   3.168 -1.4932 -0.0948  1.3634
    1PC     C3511440   3.180   1.546   2.960  0.4490 -0.9137  0.3271
    1PC     H5A11441   3.164   1.654   2.966 -0.5905 -0.8509 -2.2139
    1PC     H5B11442   3.115   1.495   2.888  0.2822 -0.1316 -0.0916
    1PC     H5C11443   3.282   1.518   2.935  0.9337  1.0498 -0.0986
    1PC     O3311444   3.114   1.719   3.362  0.2553  0.1708 -0.5687
    1PC     O3411445   3.299   1.818   3.503  0.3948 -0.2644 -0.2454
    1PC     O2111446   3.158   1.871   3.891  0.2152 -0.0620  0.2264
    1PC     C2111447   3.206   1.999   3.914  0.2740  0.4267  0.5042
    1PC     O2211448   3.196   2.095   3.838  0.0215  0.0913 -0.0824
    1OL     C1211449   3.250   2.008   4.054  0.0775 -0.1452  0.4221
    1OL     H2R11450   3.352   2.047   4.045 -0.1088  0.0548 -1.1635
    1OL     H2S11451   3.258   1.911   4.103 -0.0098 -0.8726 -0.9512
    1OL     C1311452   3.166   2.108   4.139 -0.4201 -0.3925 -0.7636
    1OL     H3R11453   3.058   2.094   4.130 -1.0564  1.9838  1.6753
    1OL     H3S11454   3.181   2.208   4.097  1.2283 -0.3478 -0.1337
    1OL     C1411455   3.186   2.120   4.288 -0.2486  0.1492 -0.0631
    1OL     H4R11456   3.107   2.181   4.333  0.3324  2.4278 -1.9428
    1OL     H4S11457   3.273   2.183   4.307  0.9737 -1.6130  0.3268
    1OL     C1511458   3.223   1.991   4.369 -0.6399  1.2173 -0.7073
    1OL     H5R11459   3.241   2.022   4.472  0.6495  1.7987 -1.0852
    1OL     H5S11460   3.321   1.956   4.337 -0.4076  0.9223  0.2790
    1OL     C1611461   3.115   1.877   4.374  0.2517 -0.9216  0.0996
    1OL     H6R11462   3.171   1.786   4.399  2.1328  0.4844  1.3424
    1OL     H6S11463   3.079   1.860   4.272  1.5804  0.8019 -0.7125
    1OL     C1711464   2.998   1.880   4.478 -0.9703  0.5751 -0.4398
    1OL     H7R11465   2.931   1.798   4.451  0.4384 -0.4459 -0.9679
    1OL     H7S11466   2.947   1.976   4.476  0.2064  1.2204 -0.0892
    1OL     C1811467   3.027   1.842   4.627 -0.8873 -0.1699 -0.3220
    1OL     H8R11468   3.074   1.922   4.684 -1.6248 -0.0675  0.1496
    1OL     H8S11469   3.099   1.760   4.635  0.2959  0.8664 -0.0610
    1OL     C1911470   2.908   1.785   4.699  0.9216  0.3595  0.5681
    1OL     H9R11471   2.835   1.732   4.639 -0.0850  1.5744  0.6674
    1OL    C11011472   2.880   1.803   4.825  0.5567 -0.3257 -0.7003
    1OL    H10R11473   2.788   1.761   4.865  2.0222 -2.3533  0.7643
    1OL    C11111474   2.964   1.880   4.925  0.3331 -0.5161 -0.8681
    1OL    H11R11475   3.071   1.872   4.905  1.3420 -0.4734  3.4281
    1OL    H11S11476   2.943   1.842   5.025 -0.3969  2.3758  0.1687
    1OL    C11211477   2.924   2.029   4.937  0.0569 -0.4112  0.1514
    1OL    H12R11478   2.938   2.068   4.836 -1.3137  1.6920  0.7251
    1OL    H12S11479   2.979   2.083   5.014  0.4377 -0.1150 -0.3240
    1OL    C11311480   2.778   2.050   4.970  0.6101  0.0478  0.0055
    1OL    H13R11481   2.765   1.985   5.056  0.1301  0.0851 -0.0359
    1OL    H13S11482   2.712   2.013   4.891  1.2766  0.3662 -0.7203
    1OL    C11411483   2.738   2.192   5.015  0.5392  0.1247 -0.2070
    1OL    H14R11484   2.776   2.271   4.950 -0.5888  1.0558  0.2264
    1OL    H14S11485   2.798   2.214   5.104  1.0108 -1.7985  0.0028
    1OL    C11511486   2.594   2.227   5.039  0.4799  0.1075  0.1761
    1OL    H15R11487   2.534   2.226   4.948  0.0604 -0.2444  0.4525
    1OL    H15S11488   2.579   2.327   5.079  1.3735 -0.0565  0.9643
    1OL    C11611489   2.529   2.130   5.137 -0.0695 -0.3420 -0.3274
    1OL    H16R11490   2.590   2.121   5.227 -0.8619 -1.0930  0.1512
    1OL    H16S11491   2.524   2.029   5.095 -2.1477 -0.8435  0.9868
    1OL    C11711492   2.382   2.168   5.167 -0.1385 -0.1777  0.1890
    1OL    H17R11493   2.386   2.237   5.251 -2.8336  1.2827 -0.7164
    1OL    H17S11494   2.323   2.089   5.214 -1.7648  0.3193 -0.8946
    1OL    C11811495   2.292   2.223   5.055 -0.0778 -0.0237 -0.0384
    1OL    H18R11496   2.319   2.320   5.012 -0.1229 -0.5535 -1.3094
    1OL    H18S11497   2.186   2.220   5.082 -0.0453 -1.8621 -0.0280
    1OL    H18T11498   2.303   2.153   4.972 -0.8397 -0.1906 -0.0078
    1PA    C11611499   4.048   1.932   5.146  0.3791 -0.7267 -0.3133
    1PA    H16R11500   3.984   1.843   5.143 -0.5678 -0.1444  1.3106
    1PA    H16S11501   3.991   2.004   5.205  0.6117 -1.0215  0.2812
    1PA    H16T11502   4.142   1.914   5.198  0.5293  0.2141 -0.2513
    1PA    C11511503   4.077   1.984   5.003  0.0637  0.1260  0.2984
    1PA    H15R11504   4.124   2.082   5.004  2.4932 -0.9867  0.5122
    1PA    H15S11505   4.148   1.918   4.954  0.3865  1.1637 -0.6911
    1PA    C11411506   3.946   2.000   4.920 -0.4567 -0.2799 -0.7490
    1PA    H14R11507   3.894   1.905   4.916 -0.3047 -0.3873 -0.1649
    1PA    H14S11508   3.883   2.076   4.965 -0.1387  0.3231 -1.2978
    1PA    C11311509   3.971   2.058   4.776  0.1513  0.2395  0.1954
    1PA    H13R11510   3.875   2.058   4.724  0.6578 -0.7190 -0.7691
    1PA    H13S11511   4.002   2.162   4.787  0.8523 -0.0480  1.1046
    1PA    C11211512   4.067   1.978   4.678  0.0248 -0.3041 -0.6636
    1PA    H12R11513   4.171   1.964   4.707 -0.7402 -2.9693  1.1372
    1PA    H12S11514   4.018   1.881   4.685  0.6750 -0.5842  0.1291
    1PA    C11111515   4.053   2.039   4.533  0.2228 -0.0339  0.3482
    1PA    H11R11516   3.949   2.033   4.501  0.1320  0.6556  0.4948
    1PA    H11S11517   4.074   2.145   4.548 -0.7612  0.4204 -1.2726
    1PA    C11011518   4.155   1.987   4.425 -0.6801 -0.2351 -0.0945
    1PA    H10R11519   4.116   2.002   4.324  2.1464  1.0291 -1.1029
    1PA    H10S11520   4.241   2.053   4.436 -1.8770  1.1339  1.7370
    1PA     C1911521   4.208   1.841   4.427 -0.1843 -0.6959 -0.4898
    1PA     H9R11522   4.298   1.834   4.365  0.1387  0.9959 -0.2581
    1PA     H9S11523   4.241   1.816   4.529 -0.8298 -0.7657 -0.2974
    1PA     C1811524   4.108   1.740   4.383 -0.2397 -0.6610 -1.0980
    1PA     H8R11525   4.012   1.735   4.434  0.2010 -2.3378 -0.3644
    1PA     H8S11526   4.100   1.755   4.275  0.8816 -0.9007 -1.2308
    1PA     C1711527   4.145   1.595   4.415 -0.1952  0.5617  0.3428
    1PA     H7R11528   4.147   1.584   4.523 -0.3831 -0.6866  0.2321
    1PA     H7S11529   4.063   1.535   4.376  0.9417 -0.3857 -0.7031
    1PA     C1611530   4.274   1.557   4.340 -0.1921  0.0256 -0.0685
    1PA     H6R11531   4.357   1.616   4.380 -0.6416 -0.2480  1.2965
    1PA     H6S11532   4.299   1.452   4.356  0.6626  0.1831 -0.2942
    1PA     C1511533   4.268   1.567   4.189 -0.4657 -0.0159  0.3223
    1PA     H5R11534   4.191   1.495   4.159  0.6813 -2.2500  2.3233
    1PA     H5S11535   4.233   1.664   4.154 -2.2088 -1.1979 -1.4469
    1PA     C1411536   4.395   1.523   4.118  0.3470  0.8665  0.0410
    1PA     H4R11537   4.481   1.574   4.161  1.0912 -0.0526 -0.3039
    1PA     H4S11538   4.411   1.416   4.135 -1.6779  0.7458  1.6870
    1PA     C1311539   4.394   1.548   3.965  0.2441 -0.4087 -0.1277
    1PA     H3R11540   4.321   1.479   3.923  1.2664 -1.7940  0.3010
    1PA     H3S11541   4.369   1.652   3.944 -0.1047 -0.1202  1.6155
    1PA     C1211542   4.518   1.498   3.895  0.4873  0.3926 -0.5489
    1PA     H2R11543   4.606   1.550   3.934  0.2074 -1.3456  2.7636
    1PA     H2S11544   4.540   1.392   3.910  1.4974  0.5203 -1.0347
    1PC     C1111545   4.513   1.518   3.747  0.4181  0.5047  0.3199
    1PC     O1211546   4.419   1.556   3.674 -0.2766  0.1845 -0.4721
    1PC     O1111547   4.634   1.479   3.696 -0.4999  0.2276  0.1556
    1PC      C111548   4.666   1.509   3.557 -0.4305  0.3993  0.0267
    1PC      HR11549   4.760   1.453   3.546 -1.0749 -0.3827 -2.1064
    1PC      HS11550   4.592   1.470   3.486  0.1228 -1.2597  0.3178
    1PC      C211551   4.688   1.654   3.519 -0.1512 -0.1494 -0.2895
    1PC      HX11552   4.595   1.705   3.544  0.5931  0.6401  0.9791
    1PC      C311553   4.714   1.678   3.368  0.2924 -0.3117 -0.1726
    1PC      HA11554   4.629   1.644   3.308 -0.3532  1.2264 -0.1705
    1PC      HB11555   4.734   1.785   3.361 -0.5417 -0.1087  0.4387
    1PC     O3111556   4.813   1.581   3.322  0.3620 -0.1154 -0.0035
    1PC     P3111557   4.867   1.580   3.172 -0.1520 -0.2606 -0.1488
    1PC     O3211558   4.945   1.721   3.148  0.8582 -0.0641 -0.2079
    1PC     C3111559   5.087   1.732   3.115  0.3847 -0.1265 -0.5694
    1PC     H1A11560   5.121   1.822   3.167 -4.5821  0.9829  1.3895
    1PC     H1B11561   5.133   1.640   3.152 -0.6480 -1.0417 -1.5002
    1PC     C3211562   5.116   1.743   2.969 -0.4860 -0.3875 -0.1333
    1PC     H2A11563   5.225   1.751   2.966 -0.4638  0.1158  1.3522
    1PC     H2B11564   5.092   1.650   2.917  1.2430 -2.1032  1.9301
    1PC     N3111565   5.064   1.857   2.885  0.0046  0.2933  0.6817
    1PC     C3311566   4.915   1.859   2.870 -0.0364 -0.4171 -0.2621
    1PC     H3A11567   4.882   1.930   2.794  0.2111 -1.7446 -1.6674
    1PC     H3B11568   4.880   1.760   2.838  0.4476 -0.6725 -0.0132
    1PC     H3C11569   4.872   1.869   2.970  1.9163 -1.9090  0.8016
    1PC     C3411570   5.107   1.994   2.941 -0.0989 -0.0273  0.1564
    1PC     H4A11571   5.059   2.063   2.871  1.1555  0.6999 -0.0143
    1PC     H4B11572   5.062   2.003   3.040 -3.4493  0.2155 -1.2364
    1PC     H4C11573   5.214   2.007   2.931  0.0015 -1.2460 -0.5187
    1PC     C3511574   5.122   1.844   2.743 -0.5474 -0.1676 -0.4800
    1PC     H5A11575   5.146   1.737   2.742 -0.5659 -0.1708 -0.5893
    1PC     H5B11576   5.207   1.911   2.733  0.6748 -1.6876 -0.6091
    1PC     H5C11577   5.043   1.870   2.672 -1.2647 -0.0385  0.3482
    1PC     O3311578   4.962   1.466   3.161 -0.0882  0.6185 -0.0835
    1PC     O3411579   4.743   1.587   3.093  0.2335  0.0945  0.2026
    1PC     O2111580   4.803   1.703   3.587  0.4654  0.0797 -0.3467
    1PC     C2111581   4.782   1.788   3.692  0.4610 -0.7183  0.4062
    1PC     O2211582   4.671   1.819   3.728 -0.0077 -0.3355 -0.3611
    1OL     C1211583   4.907   1.849   3.753  0.4665 -0.5185 -0.6889
    1OL     H2R11584   4.957   1.883   3.662 -0.7291  3.1809 -0.1330
    1OL     H2S11585   4.964   1.771   3.804  1.1400  0.8629  0.7315
    1OL     C1311586   4.877   1.961   3.843 -0.0030  0.2307 -0.0835
    1OL     H3R11587   4.816   1.924   3.926  0.2012  1.3769  0.6046
    1OL     H3S11588   4.826   2.043   3.793 -0.0094  0.1016 -0.2857
    1OL     C1411589   5.003   2.015   3.913 -0.3262  0.3736  0.1410
    1OL     H4R11590   4.975   2.105   3.968 -1.8927 -0.5030  0.8344
    1OL     H4S11591   5.079   2.045   3.840 -0.1335 -2.9644 -1.1798
    1OL     C1511592   5.074   1.914   4.003 -0.7880  0.4597 -0.0347
    1OL     H5R11593   5.119   1.840   3.936 -0.2566  0.4459  0.3287
    1OL     H5S11594   5.010   1.868   4.078  0.5727 -0.5260  0.5538
    1OL     C1611595   5.199   1.964   4.078 -0.7977  0.2022  0.6068
    1OL     H6R11596   5.279   1.990   4.009  0.2761  0.8998  2.0515
    1OL     H6S11597   5.242   1.883   4.139  0.6396  1.3202  1.1463
    1OL     C1711598   5.174   2.095   4.160  0.3668 -0.0464 -0.1000
    1OL     H7R11599   5.168   2.174   4.084  4.1436  0.9412  0.4389
    1OL     H7S11600   5.271   2.128   4.198 -0.7386  2.6483  0.5940
    1OL     C1811601   5.069   2.090   4.276 -0.2949  0.4005 -0.0019
    1OL     H8R11602   4.970   2.071   4.236 -0.6712  2.4192 -0.1383
    1OL     H8S11603   5.053   2.184   4.330  0.0515  0.6530 -0.3325
    1OL     C1911604   5.107   1.977   4.376 -0.0085 -0.4606  0.0910
    1OL     H9R11605   5.111   1.878   4.331 -0.6081 -1.1188  1.4459
    1OL    C11011606   5.134   1.990   4.509  0.3445  0.1243 -0.3136
    1OL    H10R11607   5.162   1.903   4.567 -1.7999 -1.4588 -1.4639
    1OL    C11111608   5.125   2.128   4.577  0.6263  0.0070  0.2888
    1OL    H11R11609   5.147   2.206   4.504 -0.8168  0.9351  0.7976
    1OL    H11S11610   5.212   2.141   4.641  1.8854 -1.8403 -0.9628
    1OL    C11211611   5.004   2.148   4.671 -0.5648  0.1604  0.3365
    1OL    H12R11612   4.910   2.171   4.621 -0.3670  2.3268  0.8469
    1OL    H12S11613   5.028   2.239   4.727 -0.4595  0.9473 -0.9407
    1OL    C11311614   4.971   2.026   4.756 -0.2265  0.3589 -0.2396
    1OL    H13R11615   5.064   2.011   4.812  0.5587  0.2664 -1.5344
    1OL    H13S11616   4.936   1.938   4.702  0.8159 -1.7957  2.3715
    1OL    C11411617   4.862   2.058   4.859 -0.4183 -0.6045 -0.1758
    1OL    H14R11618   4.767   2.088   4.816  0.0304 -1.1928 -1.6302
    1OL    H14S11619   4.892   2.140   4.924  0.3437  0.9388 -2.3721
    1OL    C11511620   4.856   1.933   4.948  0.1032 -0.3572  0.1076
    1OL    H15R11621   4.801   1.961   5.039 -0.8380 -1.4595 -0.1053
    1OL    H15S11622   4.950   1.897   4.990  1.0625  1.1824 -0.6424
    1OL    C11611623   4.775   1.817   4.890 -0.3578  0.4506  0.5107
    1OL    H16R11624   4.803   1.791   4.788 -2.2209 -0.5814  0.2025
    1OL    H16S11625   4.671   1.850   4.897 -1.1286 -1.9656  2.0829
    1OL    C11711626   4.771   1.682   4.964 -0.2509 -0.2422 -0.5078
    1OL    H17R11627   4.856   1.619   4.939 -0.5419 -1.4653  1.4040
    1OL    H17S11628   4.686   1.625   4.927 -0.2349 -0.4275 -0.2634
    1OL    C11811629   4.769   1.692   5.117 -0.8346 -0.3709  0.1147
    1OL    H18R11630   4.825   1.607   5.157 -0.3842 -0.6357 -1.0115
    1OL    H18S11631   4.668   1.703   5.155 -1.8223  1.6001 -2.7842
    1OL    H18T11632   4.825   1.782   5.144 -0.2778 -0.3107 -1.1486
    1PA    C11611633   5.221   1.686   4.925 -0.0406  0.3569  0.2837
    1PA    H16R11634   5.275   1.618   4.990 -0.1285  0.0549  0.0415
    1PA    H16S11635   5.186   1.632   4.837  1.3759 -1.6431  0.8776
    1PA    H16T11636   5.134   1.722   4.980 -0.4802 -0.8150  0.3667
    1PA    C11511637   5.319   1.801   4.896 -0.3166 -0.0645  0.1017
    1PA    H15R11638   5.264   1.887   4.856  2.9167  2.5793  0.8372
    1PA    H15S11639   5.366   1.838   4.987 -2.5915  2.4922  0.3757
    1PA    C11411640   5.414   1.774   4.784  0.5407 -0.8418 -0.3437
    1PA    H14R11641   5.477   1.690   4.815 -0.2569 -1.5375 -0.5629
    1PA    H14S11642   5.369   1.741   4.691  1.6945 -0.8065 -0.9275
    1PA    C11311643   5.488   1.905   4.759 -0.0294 -0.4961  0.4464
    1PA    H13R11644   5.419   1.972   4.707 -1.4411 -2.0953  0.1922
    1PA    H13S11645   5.518   1.958   4.850  0.9129  1.2857 -0.8458
    1PA    C11211646   5.616   1.880   4.676 -0.0141  0.3454  0.1016
    1PA    H12R11647   5.684   1.965   4.682  2.6022 -1.5899 -0.2295
    1PA    H12S11648   5.660   1.788   4.716 -2.2789 -0.8968 -0.1235
    1PA    C11111649   5.592   1.852   4.523  0.4849  0.4719  0.2706
    1PA    H11R11650   5.677   1.810   4.467 -1.9104 -2.2387 -1.6956
    1PA    H11S11651   5.508   1.784   4.506  1.2676 -0.0336 -1.9453
    1PA    C11011652   5.544   1.984   4.454  0.0005  0.0079 -0.0168
    1PA    H10R11653   5.462   2.034   4.507  1.6002  1.7751  0.8941
    1PA    H10S11654   5.632   2.048   4.458  0.8204 -1.1311  1.8296
    1PA     C1911655   5.502   1.971   4.304  0.1084  0.0812  0.3600
    1PA     H9R11656   5.417   1.903   4.296  0.3379 -0.0201 -2.1233
    1PA     H9S11657   5.467   2.065   4.260 -3.9221 -1.2234  0.3693
    1PA     C1811658   5.612   1.919   4.218  0.6704  0.2879  0.4990
    1PA     H8R11659   5.690   1.996   4.211  0.6453  0.1635 -3.0231
    1PA     H8S11660   5.661   1.832   4.261  0.4431  0.5800  1.3581
    1PA     C1711661   5.567   1.886   4.079  0.7335  0.2543 -0.3761
    1PA     H7R11662   5.478   1.822   4.078  0.8786 -0.0046 -2.6842
    1PA     H7S11663   5.534   1.980   4.034 -0.9061  0.4901  1.1930
    1PA     C1611664   5.664   1.820   3.979 -0.0939  0.0858  0.3018
    1PA     H6R11665   5.714   1.897   3.920 -0.0515 -1.1943 -1.4198
    1PA     H6S11666   5.738   1.768   4.040 -1.3059  1.5345  3.2487
    1PA     C1511667   5.601   1.743   3.864 -0.3132 -0.2308 -0.0324
    1PA     H5R11668   5.515   1.682   3.891 -0.4848 -1.3629 -2.7767
    1PA     H5S11669   5.552   1.819   3.802  0.1489  0.2482  0.1816
    1PA     C1411670   5.705   1.672   3.779 -0.2759 -0.5445 -0.0529
    1PA     H4R11671   5.759   1.597   3.837 -0.7546 -1.4874 -0.8061
    1PA     H4S11672   5.659   1.619   3.696  0.5340 -0.2328 -0.7169
    1PA     C1311673   5.826   1.761   3.732  0.0255  0.1452 -0.5899
    1PA     H3R11674   5.795   1.860   3.699 -0.0540  1.2573  2.4522
    1PA     H3S11675   5.887   1.768   3.822 -0.4265  0.4243 -0.2961
    1PA     C1211676   5.906   1.690   3.622 -0.3806 -0.0097 -0.2367
    1PA     H2R11677   6.004   1.735   3.605 -1.1750  1.8668 -0.0258
    1PA     H2S11678   5.920   1.585   3.650 -3.4787 -0.7014 -0.9061
    1PC     C1111679   5.828   1.683   3.492  0.0154  0.7411 -0.8936
    1PC     O1211680   5.813   1.779   3.420  0.2383 -0.3686  0.3895
    1PC     O1111681   5.767   1.561   3.477 -0.1438 -0.4519 -0.3937
    1PC      C111682   5.687   1.548   3.355  0.0920 -0.1480  0.4354
    1PC      HR11683   5.618   1.465   3.369 -1.2225  0.9103  0.4438
    1PC      HS11684   5.628   1.634   3.324 -0.7154 -0.3621  1.3354
    1PC      C211685   5.769   1.507   3.226  0.3711  1.1202  0.0671
    1PC      HX11686   5.843   1.584   3.200  2.6799 -0.6233  1.1430
    1PC      C311687   5.683   1.483   3.097  0.6768 -0.4957  0.5350
    1PC      HA11688   5.748   1.419   3.037  0.3796 -0.5636  0.2826
    1PC      HB11689   5.593   1.424   3.117  1.8076 -3.1178 -1.4871
    1PC     O3111690   5.644   1.611   3.037  0.2503 -0.0296  0.1451
    1PC     P3111691   5.743   1.684   2.938  0.0945  0.0042 -0.2264
    1PC     O3211692   5.834   1.764   3.042 -0.3550  0.2262  0.1344
    1PC     C3111693   5.789   1.886   3.090 -0.0020 -0.0795  0.0415
    1PC     H1A11694   5.773   1.950   3.003  2.8584 -0.6413 -1.0348
    1PC     H1B11695   5.701   1.885   3.154  1.0858 -0.1199  1.5798
    1PC     C3211696   5.894   1.952   3.180 -0.5645  0.6005 -0.2264
    1PC     H2A11697   5.858   2.042   3.230 -1.7006 -1.1542  2.3535
    1PC     H2B11698   5.921   1.888   3.264 -2.1921  1.4621  1.0087
    1PC     N3111699   6.029   1.979   3.127  0.3312  0.5070  0.5012
    1PC     C3311700   6.107   1.857   3.082 -0.3848  0.2120 -0.6868
    1PC     H3A11701   6.069   1.820   2.987 -2.4887 -0.5342  0.3622
    1PC     H3B11702   6.211   1.888   3.083  0.6184 -2.6587  2.2147
    1PC     H3C11703   6.104   1.774   3.154  0.6331  0.0024 -0.8720
    1PC     C3411704   6.018   2.076   3.012 -0.2960 -0.0257 -0.2353
    1PC     H4A11705   6.115   2.082   2.962  0.1627  2.2472  0.7914
    1PC     H4B11706   5.946   2.032   2.943 -0.0556 -0.0629 -0.4619
    1PC     H4C11707   5.974   2.165   3.057  0.1565  0.7110 -1.2137
    1PC     C3511708   6.118   2.034   3.234  0.1929  0.6929 -0.2995
    1PC     H5A11709   6.098   1.976   3.324  0.1852 -0.3200 -0.9442
    1PC     H5B11710   6.086   2.138   3.236  0.9300  0.9182  0.1274
    1PC     H5C11711   6.223   2.035   3.204  0.1150 -0.7737 -0.6680
    1PC     O3311712   5.823   1.586   2.865 -0.0373  0.4702 -0.3950
    1PC     O3411713   5.654   1.779   2.859  0.1613  0.3943 -0.0636
    1PC     O2111714   5.826   1.380   3.250  0.3123  1.1290  0.1003
    1PC     C2111715   5.958   1.374   3.289 -0.1589  0.1433  0.3647
    1PC     O2211716   6.035   1.468   3.302  0.1878  0.3861  0.2506
    1OL     C1211717   6.008   1.230   3.291  0.1215  0.5996 -0.0470
    1OL     H2R11718   6.033   1.208   3.187  0.6025 -1.5081  0.4710
    1OL     H2S11719   5.918   1.170   3.308  0.0050 -0.2569 -3.0462
    1OL     C1311720   6.129   1.214   3.390  0.4385 -0.1782  0.4715
    1OL     H3R11721   6.217   1.273   3.363  1.7604 -1.5023  1.6522
    1OL     H3S11722   6.158   1.109   3.385  0.5113 -0.1610  0.5342
    1OL     C1411723   6.106   1.246   3.539 -0.0269  0.7395  0.6033
    1OL     H4R11724   6.117   1.354   3.547 -1.0661  0.7460  2.9675
    1OL     H4S11725   6.174   1.195   3.608 -0.0992 -1.2389 -0.7165
    1OL     C1511726   5.963   1.200   3.575 -0.1366  0.1793 -0.4349
    1OL     H5R11727   5.941   1.098   3.541 -0.1320 -0.2292  0.7477
    1OL     H5S11728   5.900   1.271   3.522  0.0012 -0.3662 -1.3483
    1OL     C1611729   5.944   1.203   3.727  0.0660 -0.3670 -0.1718
    1OL     H6R11730   5.991   1.112   3.766 -0.3380 -0.7254 -0.5019
    1OL     H6S11731   5.841   1.185   3.759  1.3954 -1.7684  3.8503
    1OL     C1711732   6.009   1.325   3.801  0.0844 -0.0961  0.1821
    1OL     H7R11733   5.992   1.420   3.751 -0.5498 -1.3656 -2.1837
    1OL     H7S11734   6.116   1.303   3.802 -0.1402 -1.3007 -0.7097
    1OL     C1811735   5.963   1.336   3.949  0.2682  0.0031  0.1996
    1OL     H8R11736   6.000   1.245   3.998 -0.6013  0.8699  2.5634
    1OL     H8S11737   5.855   1.329   3.956  0.4150 -1.5967  1.5181
    1OL     C1911738   6.030   1.464   4.001  0.0780  0.3045 -0.3241
    1OL     H9R11739   6.012   1.555   3.945 -1.0949  0.5393  0.4000
    1OL    C11011740   6.108   1.476   4.111 -0.0981 -0.1657  0.3862
    1OL    H10R11741   6.137   1.575   4.143 -3.0498  1.1356 -0.6543
    1OL    C11111742   6.156   1.369   4.197 -0.4851 -0.1201 -0.4129
    1OL    H11R11743   6.264   1.373   4.215 -0.4572 -1.1511 -0.3152
    1OL    H11S11744   6.152   1.272   4.147  1.6488  0.1135 -1.1534
    1OL    C11211745   6.070   1.367   4.323 -0.8673  0.1913 -0.3435
    1OL    H12R11746   5.962   1.372   4.311 -0.9731  0.3306  0.5685
    1OL    H12S11747   6.094   1.460   4.375  0.9289 -1.1235  1.3546
    1OL    C11311748   6.099   1.247   4.412 -0.0431 -0.0407  0.2013
    1OL    H13R11749   6.208   1.242   4.418 -0.0483 -1.3725 -0.4455
    1OL    H13S11750   6.057   1.158   4.365 -2.6987  0.2565  1.8140
    1OL    C11411751   6.043   1.262   4.549 -0.2388  0.1885  0.0561
    1OL    H14R11752   5.938   1.282   4.528  0.0167  0.9209 -0.5963
    1OL    H14S11753   6.085   1.353   4.593  0.3152  0.4566 -1.0004
    1OL    C11511754   6.069   1.142   4.650  0.3555  0.1776 -0.3222
    1OL    H15R11755   6.041   1.049   4.602  0.1949  1.0945 -2.1056
    1OL    H15S11756   6.006   1.142   4.740 -0.8168 -0.0041 -1.1180
    1OL    C11611757   6.219   1.143   4.688 -0.5588 -0.2528  0.0998
    1OL    H16R11758   6.241   1.226   4.756 -2.2201  1.5454 -1.4724
    1OL    H16S11759   6.293   1.152   4.608 -0.6265 -1.0312 -0.0639
    1OL    C11711760   6.254   1.013   4.750  0.7782 -0.4061  0.3184
    1OL    H17R11761   6.220   0.940   4.677 -1.3910  2.4292 -1.7121
    1OL    H17S11762   6.201   1.001   4.845  1.2843 -2.2881  0.4072
    1OL    C11811763   6.408   0.995   4.770 -0.0269  0.4365  0.3392
    1OL    H18R11764   6.431   0.906   4.829  0.3154 -0.0197 -0.4619
    1OL    H18S11765   6.454   1.077   4.826 -0.4407 -0.4495  2.0455
    1OL    H18T11766   6.456   0.986   4.673  0.6814  2.0065  0.5018
    1PA    C11611767   4.420   0.483   4.983  0.3373 -0.2798 -0.1541
    1PA    H16R11768   4.368   0.433   5.065 -0.5924 -2.0297 -1.7371
    1PA    H16S11769   4.462   0.581   5.006  0.4600 -0.4015  0.1386
    1PA    H16T11770   4.505   0.422   4.951 -1.7228 -2.7572 -1.3357
    1PA    C11511771   4.308   0.498   4.872 -0.0252 -0.2000 -0.4281
    1PA    H15R11772   4.302   0.392   4.845  3.3146 -1.3483  2.4670
    1PA    H15S11773   4.217   0.536   4.918  0.3606  1.2906 -0.8506
    1PA    C11411774   4.319   0.579   4.738 -0.3009 -0.1422  0.2001
    1PA    H14R11775   4.243   0.544   4.668  0.4390 -2.0758  0.2798
    1PA    H14S11776   4.304   0.686   4.748 -0.0150  0.1639 -2.0669
    1PA    C11311777   4.459   0.560   4.681  0.6305 -0.1156 -0.1279
    1PA    H13R11778   4.542   0.575   4.751  2.1603 -0.8555 -1.7179
    1PA    H13S11779   4.476   0.456   4.653  1.0737  0.6888 -3.1585
    1PA    C11211780   4.490   0.646   4.556 -0.3226  0.5655 -1.2414
    1PA    H12R11781   4.433   0.739   4.562 -0.8698  0.2419 -1.3173
    1PA    H12S11782   4.598   0.657   4.559 -0.2401 -0.2482 -0.6647
    1PA    C11111783   4.436   0.600   4.424 -0.2386 -0.1667  0.7972
    1PA    H11R11784   4.465   0.496   4.407  1.5551  0.1721  1.5907
    1PA    H11S11785   4.327   0.607   4.430 -0.0710  1.4549  4.0404
    1PA    C11011786   4.480   0.699   4.306  0.7972  0.4451  0.2570
    1PA    H10R11787   4.467   0.802   4.341  3.3710  1.3037 -1.0116
    1PA    H10S11788   4.588   0.689   4.293  0.6722 -2.8087  1.0259
    1PA     C1911789   4.397   0.684   4.172  0.3405 -0.6733  1.1408
    1PA     H9R11790   4.291   0.672   4.195 -1.2595  2.4444 -3.1891
    1PA     H9S11791   4.412   0.777   4.116  2.4423 -0.2420  2.3062
    1PA     C1811792   4.443   0.561   4.089  0.1954 -0.0696  0.5000
    1PA     H8R11793   4.552   0.556   4.084  0.2408  1.1900 -0.2011
    1PA     H8S11794   4.404   0.470   4.136  0.6209 -0.5112  0.0266
    1PA     C1711795   4.408   0.559   3.943 -0.0822 -0.9186  0.0971
    1PA     H7R11796   4.302   0.544   3.921 -0.1187  0.2676 -0.5795
    1PA     H7S11797   4.444   0.653   3.901 -0.1427 -0.2338  1.5185
    1PA     C1611798   4.477   0.437   3.883 -0.3539 -0.4823 -0.1849
    1PA     H6R11799   4.578   0.415   3.919  0.2715  0.9609 -0.9648
    1PA     H6S11800   4.428   0.344   3.912  2.2194 -2.6175 -2.1155
    1PA     C1511801   4.485   0.442   3.728  0.1466  0.6121 -0.0679
    1PA     H5R11802   4.382   0.433   3.693 -0.0361  2.5751 -0.1647
    1PA     H5S11803   4.541   0.527   3.688  0.2735  0.9863  0.8749
    1PA     C1411804   4.562   0.312   3.678  0.0429 -0.2085  0.0166
    1PA     H4R11805   4.653   0.299   3.736  1.3418  0.8030 -1.7076
    1PA     H4S11806   4.481   0.239   3.685 -0.1483 -0.1198 -1.1015
    1PA     C1311807   4.607   0.319   3.531 -0.1620 -0.4909  0.2324
    1PA     H3R11808   4.521   0.336   3.466 -2.0253 -0.8111  2.5069
    1PA     H3S11809   4.671   0.407   3.520 -1.0407  0.1636  0.2298
    1PA     C1211810   4.688   0.195   3.482 -0.0728 -0.1815 -0.6115
    1PA     H2R11811   4.776   0.182   3.545  0.0191  2.5791 -0.0408
    1PA     H2S11812   4.627   0.104   3.490 -0.0727 -0.2818 -1.6233
    1PC     C1111813   4.749   0.202   3.348 -0.4345  0.0784 -0.3510
    1PC     O1211814   4.729   0.294   3.274  0.6705 -0.8163  0.2309
    1PC     O1111815   4.826   0.099   3.318 -0.0409  0.3606  0.1872
    1PC      C111816   4.890   0.108   3.183 -0.7073  0.0324  0.0428
    1PC      HR11817   4.818   0.104   3.101 -2.2045 -0.0212  1.3085
    1PC      HS11818   4.949   0.199   3.172 -1.3124  0.5113  0.6699
    1PC      C211819   4.998  -0.011   3.179  0.3244 -1.4553 -0.1136
    1PC      HX11820   5.052   0.005   3.086  0.9358  1.0095  0.6117
    1PC      C311821   4.927  -0.148   3.177 -0.2866 -0.2149 -0.1952
    1PC      HA11822   4.999  -0.222   3.214  0.1871  0.3627  0.0540
    1PC      HB11823   4.840  -0.145   3.243  1.0057  0.5564  1.5371
    1PC     O3111824   4.886  -0.192   3.045  0.0813 -0.3011  0.4223
    1PC     P3111825   4.755  -0.133   2.971  0.8211 -0.1990  0.0628
    1PC     O3211826   4.821  -0.021   2.878 -0.2149  0.1437  0.5921
    1PC     C3111827   4.898  -0.050   2.755 -0.0417 -0.3071 -0.0624
    1PC     H1A11828   4.872  -0.139   2.697  0.0236  0.1430 -0.8057
    1PC     H1B11829   4.886   0.041   2.695 -0.3348  1.3890  2.3964
    1PC     C3211830   5.046  -0.063   2.805  0.3282 -0.2253 -0.5069
    1PC     H2A11831   5.066   0.015   2.878  1.1691  1.6220 -2.5649
    1PC     H2B11832   5.045  -0.158   2.858  0.5224  0.0499 -0.0078
    1PC     N3111833   5.151  -0.059   2.696  0.3985  0.0541 -0.6577
    1PC     C3311834   5.283  -0.079   2.773  0.1843  0.2338  0.1665
    1PC     H3A11835   5.297  -0.023   2.865 -0.5628 -0.0728  0.4720
    1PC     H3B11836   5.282  -0.180   2.814 -0.2384  0.5906  1.0639
    1PC     H3C11837   5.364  -0.071   2.700  0.0015  0.3248 -0.0284
    1PC     C3411838   5.128  -0.177   2.608  0.5141 -0.4375  0.5877
    1PC     H4A11839   5.197  -0.161   2.524  0.3491 -2.3988  0.0221
    1PC     H4B11840   5.140  -0.270   2.664  0.4719 -0.3373  0.7612
    1PC     H4C11841   5.031  -0.166   2.559 -0.0265 -1.0217  1.5053
    1PC     C3511842   5.159   0.073   2.624 -0.3428 -0.6942 -0.5115
    1PC     H5A11843   5.168   0.155   2.695  1.3955 -2.3034  1.2383
    1PC     H5B11844   5.065   0.088   2.571  0.1814 -2.2339 -1.9449
    1PC     H5C11845   5.249   0.071   2.563  0.7517 -1.0112  1.0638
    1PC     O3311846   4.698  -0.233   2.882 -0.0736  0.0423  0.1993
    1PC     O3411847   4.661  -0.079   3.070 -0.5656 -0.2286 -0.0899
    1PC     O2111848   5.089  -0.022   3.292 -0.1426  0.3642  0.0441
    1PC     C2111849   5.220  -0.045   3.270  0.0146 -0.3258 -0.4431
    1PC     O2211850   5.263  -0.067   3.157 -0.0157 -0.0544 -0.3099
    1OL     C1211851   5.291  -0.047   3.402  0.3555  0.2055 -0.2556
    1OL     H2R11852   5.222  -0.078   3.480 -0.9970  2.5974 -0.3911
    1OL     H2S11853   5.315   0.059   3.418  0.7142  0.0693  0.1338
    1OL     C1311854   5.413  -0.142   3.406 -0.5329 -0.4286  0.0228
    1OL     H3R11855   5.448  -0.144   3.303  1.5035 -1.6306  0.6752
    1OL     H3S11856   5.381  -0.246   3.417  2.7099 -1.5780 -0.3892
    1OL     C1411857   5.534  -0.114   3.503 -0.2112 -0.0626  0.7415
    1OL     H4R11858   5.507  -0.138   3.606 -0.9081  1.1484  0.8591
    1OL     H4S11859   5.544  -0.006   3.488 -1.0027 -0.2620 -1.5630
    1OL     C1511860   5.664  -0.194   3.477  0.2772 -0.0363  0.5321
    1OL     H5R11861   5.703  -0.170   3.378 -3.3264 -0.3638 -1.1382
    1OL     H5S11862   5.632  -0.298   3.473 -0.1975  0.0305  1.9640
    1OL     C1611863   5.777  -0.187   3.578  0.1718 -0.6541  0.4757
    1OL     H6R11864   5.815  -0.085   3.583  1.6361 -0.9719 -1.9837
    1OL     H6S11865   5.871  -0.236   3.550  0.1389 -1.7167  2.0884
    1OL     C1711866   5.751  -0.232   3.721 -0.1062 -0.6938 -0.1347
    1OL     H7R11867   5.723  -0.338   3.718 -0.1954 -0.6559 -0.8998
    1OL     H7S11868   5.675  -0.170   3.769  1.9246 -0.0776  2.5394
    1OL     C1811869   5.871  -0.239   3.817  0.7000  0.5378  1.2063
    1OL     H8R11870   5.944  -0.306   3.770  0.4582  0.8770  0.3168
    1OL     H8S11871   5.841  -0.289   3.910  2.9881 -2.4316  0.5121
    1OL     C1911872   5.939  -0.103   3.830 -0.1970  0.4473 -0.7433
    1OL     H9R11873   5.956  -0.048   3.737  0.7794  0.5628 -0.5154
    1OL    C11011874   5.978  -0.042   3.936  0.3631  0.2911 -0.7878
    1OL    H10R11875   6.020   0.058   3.921 -1.4793  1.1855 -0.1926
    1OL    C11111876   5.960  -0.100   4.079 -0.1260 -0.2743  0.3427
    1OL    H11R11877   6.051  -0.147   4.116  0.7699  0.7456 -0.5096
    1OL    H11S11878   5.879  -0.172   4.072 -0.9052  0.6651 -0.7569
    1OL    C11211879   5.929   0.011   4.183  0.2179 -0.6922 -0.1789
    1OL    H12R11880   5.928  -0.035   4.282  3.4119 -3.6591 -1.3147
    1OL    H12S11881   5.830   0.053   4.166 -0.4429 -0.9857  2.4428
    1OL    C11311882   6.034   0.128   4.186  0.2506 -0.0281 -0.8196
    1OL    H13R11883   6.053   0.169   4.087  1.5594  3.8767  0.8337
    1OL    H13S11884   6.126   0.088   4.229 -0.4160 -1.3181 -0.5398
    1OL    C11411885   5.981   0.223   4.298  0.3588  0.1487  0.0121
    1OL    H14R11886   5.982   0.169   4.393  1.8715  0.0993 -0.0147
    1OL    H14S11887   5.882   0.259   4.268  1.3633  1.6690 -1.6863
    1OL    C11511888   6.069   0.350   4.325  0.8122  0.7402  0.2679
    1OL    H15R11889   6.154   0.322   4.388  0.1246  1.5120  1.5758
    1OL    H15S11890   6.016   0.421   4.388  1.4073  0.7267  0.7957
    1OL    C11611891   6.119   0.426   4.200 -0.1035  0.0940 -0.8248
    1OL    H16R11892   6.189   0.358   4.151 -0.2490 -1.1088  0.5731
    1OL    H16S11893   6.164   0.517   4.241 -0.0588 -0.4999  0.5121
    1OL    C11711894   6.009   0.463   4.105 -0.0146  0.4375  0.4666
    1OL    H17R11895   5.937   0.528   4.155 -1.2914  0.1602 -0.9604
    1OL    H17S11896   5.958   0.372   4.073 -2.5558  1.4893  1.2205
    1OL    C11811897   6.060   0.532   3.973 -0.1132  0.3810 -0.3546
    1OL    H18R11898   5.968   0.546   3.917 -1.2376 -1.8454  0.8049
    1OL    H18S11899   6.143   0.478   3.927  0.2512  1.0488 -0.4945
    1OL    H18T11900   6.093   0.631   4.004 -1.0334  0.2900  0.9924
    7Na+    Na+11901   3.956   2.590   6.973  0.3146  0.0706 -0.1281
    8Na+    Na+11902   4.190   4.609   7.070  0.2725 -0.2515  0.1677
    9Na+    Na+11903   3.247   4.859   9.673  0.1391  0.1563  0.1547
   10Na+    Na+11904   0.105   1.697   2.536  0.4567  0.1828 -0.2311
   11Na+    Na+11905   3.463   2.842   8.307 -0.0885 -0.0553  0.6579
   12Na+    Na+11906   0.774   4.494   0.517  0.2068  0.1249 -0.2458
   13Na+    Na+11907   0.335   0.158   9.647  0.1978  0.0503  0.1545
   14Na+    Na+11908   1.517   4.151  10.068 -0.2386 -0.3625  0.0777
   15Na+    Na+11909   4.798   4.855   0.141 -0.0131 -0.1705  0.0933
   16Na+    Na+11910   1.575   3.397   2.119 -0.2703  0.1783 -0.5719
   17Na+    Na+11911   3.876   3.560   0.244  0.0321 -0.1459 -0.0352
   18Na+    Na+11912   0.762   2.405   2.275  0.0018 -0.0314  0.0294
   19Na+    Na+11913   1.119   2.487   7.028  0.1126 -0.0268 -0.2862
   20Na+    Na+11914   3.742   0.636   7.110  0.0541  0.1718  0.2221
   21Cl-    Cl-11915   2.034   4.067   8.587  0.3766  0.1714  0.0554
   22Cl-    Cl-11916   0.153   3.862   0.360 -0.1958 -0.1598  0.1254
   23Cl-    Cl-11917   5.069   0.236   9.162  0.3182 -0.4049  0.5357
   24Cl-    Cl-11918   4.423   0.332   7.968  0.0084 -0.0794 -0.3244
   25Cl-    Cl-11919   1.340   4.076   9.401  0.0159 -0.1169 -0.4979
   26Cl-    Cl-11920   5.099   5.007   1.722 -0.1281 -0.0936 -0.0564
   27Cl-    Cl-11921   0.510   3.981   1.541  0.3295 -0.0918  0.3947
   28Cl-    Cl-11922   3.065   3.474   9.250 -0.5704 -0.0598  0.0030
   29Cl-    Cl-11923   4.989   4.099   1.437  0.2050 -0.0381 -0.0942
   30Cl-    Cl-11924   1.807   2.563   8.059 -0.1804 -0.1269  0.2342
   31Cl-    Cl-11925   0.367   1.343   1.488 -0.0711  0.2441  0.3373
   32Cl-    Cl-11926   1.198   4.735   1.693 -0.2132  0.2851 -0.3507
   33Cl-    Cl-11927   1.709   2.279   9.981 -0.1623  0.0154  0.1130
   34Cl-    Cl-11928   1.804   2.775   2.301 -0.2414 -0.0118 -0.0970
   35Cl-    Cl-11929   3.022   1.985   2.388  0.0124  0.0053 -0.0893
   36Cl-    Cl-11930   0.292   1.245   0.347  0.6414  0.0072  0.0767
   37Cl-    Cl-11931   0.946   2.491   0.134 -0.2027 -0.0947  0.3078
   38TP3      O11932   0.449   0.680   0.653 -0.3310  0.7961  0.4110
   38TP3     H111933   0.396   0.710   0.727  1.6521  1.0626  1.7996
   38TP3     H211934   0.492   0.759   0.620 -1.6256  0.7799 -1.4523
   39TP3      O11935   0.332   0.371   9.038  0.0921 -0.3502  0.6763
   39TP3     H111936   0.361   0.414   9.118  0.0793 -0.2359  0.6190
   39TP3     H211937   0.269   0.432   8.999  0.8217  0.0268  0.0766
   40TP3      O11938   3.916   1.559   8.029  0.4764  0.2200 -0.4181
   40TP3     H111939   3.916   1.511   7.946  1.0087 -1.4630  0.4971
   40TP3     H211940   3.991   1.523   8.077 -0.8095 -0.0896  1.4644
   41TP3      O11941   2.172   1.170   7.352 -0.5034  0.1901 -0.0528
   41TP3     H111942   2.131   1.153   7.437 -0.5995  2.9285  0.5440
   41TP3     H211943   2.105   1.216   7.301  0.1009  0.0576 -0.9952
   42TP3      O11944   3.285   2.235   3.633  0.1151 -0.3746  0.5783
   42TP3     H111945   3.231   2.221   3.556  0.3565 -0.0744  0.3476
   42TP3     H211946   3.244   2.183   3.702  1.1207 -2.4309 -0.2777
   43TP3      O11947   0.099   1.416   0.538 -0.3991  0.0466 -0.1683
   43TP3     H111948   0.049   1.482   0.491 -2.5459 -1.7811 -0.6240
   43TP3     H211949   0.148   1.370   0.470  2.0081  1.7938  0.2701
   44TP3      O11950   4.444   4.669   8.161 -0.0758 -0.0489 -0.4078
   44TP3     H111951   4.386   4.593   8.164 -1.1115  0.6614 -1.8179
   44TP3     H211952   4.468   4.678   8.069  0.5377  0.9786 -0.1625
   45TP3      O11953   2.410   0.726   1.283 -0.0209 -0.1032 -0.0531
   45TP3     H111954   2.401   0.717   1.188  1.3267 -0.6053 -0.1634
   45TP3     H211955   2.324   0.755   1.313 -1.3284 -2.5908 -1.1009
   46TP3      O11956   0.811   4.819   1.138  0.2083  0.0914  0.5068
   46TP3     H111957   0.804   4.764   1.216  1.2887 -1.0653 -0.1692
   46TP3     H211958   0.841   4.759   1.070 -1.8300  0.7949 -1.1249
   47TP3      O11959   3.020   0.954   1.324 -0.7148 -0.1024  0.1407
   47TP3     H111960   2.992   0.885   1.264  0.1097 -1.2639  1.0361
   47TP3     H211961   3.020   0.912   1.410  1.6481  0.4094  0.4710
   48TP3      O11962   2.672   3.372  10.015 -0.1552 -0.3673  0.2903
   48TP3     H111963   2.704   3.289  10.049  0.4900  0.1168  0.8875
   48TP3     H211964   2.661   3.357   9.921  3.5173 -0.0926 -0.3228
   49TP3      O11965   4.744   4.872   2.007  0.0314  0.4522 -0.2906
   49TP3     H111966   4.723   4.854   1.915 -1.7254  0.3799  0.0891
   49TP3     H211967   4.674   4.930   2.036  0.7688  0.7671  0.9191
   50TP3      O11968   0.660   3.010   8.562  0.6574 -0.0549  0.1459
   50TP3     H111969   0.709   2.940   8.606 -0.7552 -1.3433 -0.2305
   50TP3     H211970   0.702   3.091   8.592  1.9322 -1.0253  1.1184
   51TP3      O11971   4.567   5.099   7.056 -0.6298 -0.1967 -0.1477
   51TP3     H111972   4.510   5.111   6.981 -0.6720  1.6254  0.1163
   51TP3     H211973   4.656   5.114   7.022 -0.7958  3.0450  0.4942
   52TP3      O11974   3.733   4.691   7.513  0.3813  0.0316 -0.1741
   52TP3     H111975   3.743   4.723   7.602  2.3336 -1.6185  0.2697
   52TP3     H211976   3.686   4.608   7.522  0.8797 -0.3104 -0.6229
   53TP3      O11977   2.792   2.661   3.589 -0.0601  0.1117  0.5119
   53TP3     H111978   2.748   2.591   3.541 -0.7022  1.8049 -1.5623
   53TP3     H211979   2.727   2.691   3.652 -0.6856  0.3618 -0.2229
   54TP3      O11980   0.643   1.415   7.065  0.1378  0.2213  0.4160
   54TP3     H111981   0.705   1.474   7.108 -1.4646  0.6248  2.2932
   54TP3     H211982   0.684   1.396   6.980  1.4887  2.6760  0.4236
   55TP3      O11983   4.274   0.272   7.403  0.0531 -0.1692  0.2543
   55TP3     H111984   4.234   0.313   7.326  1.5764 -0.1025 -0.5545
   55TP3     H211985   4.229   0.187   7.411  0.6956 -0.7243 -1.4960
   56TP3      O11986   2.972   2.803   1.441  0.3042 -0.4684  0.2514
   56TP3     H111987   3.066   2.792   1.457  0.4450 -1.0267 -0.8926
   56TP3     H211988   2.966   2.874   1.377 -0.0015 -0.9221 -0.2315
   57TP3      O11989   4.030   5.003   0.549 -0.2854 -0.1664  0.0018
   57TP3     H111990   4.049   4.913   0.577  2.1315  0.0852 -0.6232
   57TP3     H211991   4.114   5.048   0.555 -1.0680  1.5867 -1.4090
   58TP3      O11992   3.194   5.160   2.133 -0.1345  0.4909  0.1123
   58TP3     H111993   3.278   5.205   2.127  1.2886 -2.0880 -1.2258
   58TP3     H211994   3.179   5.150   2.227  0.0343  2.6714  0.4103
   59TP3      O11995   1.284   3.882   7.560  0.3003 -0.7155  0.1633
   59TP3     H111996   1.229   3.803   7.557  1.5336 -1.7577  2.5701
   59TP3     H211997   1.263   3.927   7.478 -1.2075 -3.0086 -0.8588
   60TP3      O11998   3.420   3.925   8.616  0.5755  0.2957 -0.3144
   60TP3     H111999   3.332   3.960   8.603  0.2146 -0.2653  0.4825
   60TP3     H212000   3.407   3.848   8.672  1.5162 -0.1267 -0.6509
   61TP3      O12001   1.153   0.707   8.662  0.6733 -0.1570  0.5418
   61TP3     H112002   1.191   0.742   8.743 -0.5437  0.5208  0.8543
   61TP3     H212003   1.073   0.663   8.691  0.8607 -0.9621 -0.1606
   62TP3      O12004   0.749   1.355   1.584  0.1240  0.2548 -0.3324
   62TP3     H112005   0.751   1.274   1.533 -0.5778  1.9968 -3.3985
   62TP3     H212006   0.668   1.351   1.634 -1.0285 -0.0500 -2.1536
   63TP3      O12007   4.141   5.115   9.098 -0.2915 -0.0404 -0.0759
   63TP3     H112008   4.210   5.174   9.069 -0.2099 -0.8414 -1.6227
   63TP3     H212009   4.071   5.173   9.126 -0.5115  0.8747 -2.2556
   64TP3      O12010   1.500   4.006   1.693 -0.2719 -0.2951 -0.5691
   64TP3     H112011   1.494   4.100   1.679 -0.3717 -0.5086 -2.1981
   64TP3     H212012   1.594   3.987   1.692 -0.1927 -0.0892  0.8948
   65TP3      O12013   1.093   4.272   1.962 -0.3919 -0.6384 -0.1849
   65TP3     H112014   1.013   4.233   1.998 -0.9403 -1.9377 -2.6228
   65TP3     H212015   1.071   4.365   1.952 -0.6819 -0.4977  1.4762
   66TP3      O12016   0.880   4.878   9.654 -0.4753  0.9245  0.1652
   66TP3     H112017   0.848   4.959   9.691  1.9346  2.4917 -0.9051
   66TP3     H212018   0.850   4.879   9.563 -0.1012  0.8512  0.0349
   67TP3      O12019   3.928   1.824   9.413 -0.3625  0.3848  0.3661
   67TP3     H112020   3.861   1.844   9.478  0.0063 -0.9751  1.2079
   67TP3     H212021   4.011   1.832   9.461 -0.0730 -0.4011  0.0118
   68TP3      O12022   3.459   0.594   9.658  0.6081 -0.5649  0.0521
   68TP3     H112023   3.428   0.643   9.581 -0.9511  1.8964  2.0525
   68TP3     H212024   3.382   0.546   9.689  0.7051 -0.1520  0.9937
   69TP3      O12025   3.808   2.988   0.222 -0.3001  0.2462  0.0956
   69TP3     H112026   3.874   2.934   0.179  0.3486  0.5711  0.6554
   69TP3     H212027   3.821   2.972   0.316  1.4233  2.9671  0.4589
   70TP3      O12028   4.466   4.366   7.307  0.1420 -0.0291  0.2335
   70TP3     H112029   4.546   4.394   7.352  1.1348  0.0880 -1.4968
   70TP3     H212030   4.463   4.422   7.229 -1.7164  0.0493  0.3240
   71TP3      O12031   2.787   0.692   0.259 -0.1602 -0.4895  0.2624
   71TP3     H112032   2.791   0.721   0.351  0.8319 -0.7104  0.2932
   71TP3     H212033   2.865   0.731   0.219 -0.0158 -1.2808 -0.2311
   72TP3      O12034   1.368   2.356   7.776  0.3691 -0.0782 -0.1214
   72TP3     H112035   1.433   2.381   7.842 -0.3356  2.3736 -0.2701
   72TP3     H212036   1.359   2.434   7.721 -1.1950 -1.0784 -1.3534
   73TP3      O12037   5.217   3.735   0.739  0.2478 -0.5900 -0.0388
   73TP3     H112038   5.249   3.804   0.797  1.5968 -1.5088  0.3685
   73TP3     H212039   5.230   3.654   0.789  1.6575 -1.4375 -1.6908
   74TP3      O12040   4.052   5.046   8.538  0.1612  0.1343  0.0250
   74TP3     H112041   4.123   5.090   8.492  0.8825 -0.4256  0.5859
   74TP3     H212042   4.075   5.052   8.630 -0.6159  0.0995  0.2306
   75TP3      O12043   2.477   2.777   9.296  0.3536  0.3527  0.2320
   75TP3     H112044   2.494   2.698   9.347  1.3194  0.5941  0.2897
   75TP3     H212045   2.398   2.814   9.335  0.4647 -0.0473  0.8440
   76TP3      O12046   2.609   0.779   1.686 -0.5341  0.0448 -0.0826
   76TP3     H112047   2.560   0.698   1.695 -0.0367 -0.2014  0.4440
   76TP3     H212048   2.577   0.817   1.604 -2.1190  0.2528  0.5917
   77TP3      O12049   4.766   1.342   9.266  0.3500  0.2746  0.1097
   77TP3     H112050   4.784   1.330   9.359 -1.1571 -0.4224  0.3357
   77TP3     H212051   4.852   1.337   9.225  0.8441 -1.7898  1.2244
   78TP3      O12052   2.724   5.141   3.170  0.7471  0.9745  0.1486
   78TP3     H112053   2.632   5.134   3.145  0.9197 -0.3223 -0.1686
   78TP3     H212054   2.744   5.234   3.162 -0.0103  1.0108 -1.6658
   79TP3      O12055   4.170   0.079   0.501 -0.4352  0.1138 -0.5850
   79TP3     H112056   4.077   0.097   0.490 -0.3312  0.8196 -0.3763
   79TP3     H212057   4.214   0.146   0.449 -0.0355  0.1458 -0.2163
   80TP3      O12058   3.844   1.377   2.754  0.0287 -0.5404 -0.6742
   80TP3     H112059   3.823   1.338   2.839  3.0841  2.9205  1.9554
   80TP3     H212060   3.765   1.425   2.730 -0.8441 -1.4592  0.2529
   81TP3      O12061   1.016   0.779   9.566 -0.2244 -0.0115 -0.2305
   81TP3     H112062   0.955   0.834   9.614  1.3232  1.1883  0.4415
   81TP3     H212063   0.966   0.699   9.547 -2.1468  1.1156 -0.2011
   82TP3      O12064   2.696   5.069   9.575  0.0653 -0.5407  0.0918
   82TP3     H112065   2.760   5.031   9.515 -1.5501 -0.3855 -1.8595
   82TP3     H212066   2.669   5.150   9.531 -2.1702 -1.1108  0.3171
   83TP3      O12067   1.488   3.238   1.127  0.3039 -0.0383 -0.2062
   83TP3     H112068   1.481   3.252   1.032  0.6845 -0.6458 -0.3332
   83TP3     H212069   1.400   3.213   1.154  0.0861  0.5729 -0.3156
   84TP3      O12070   5.045   0.203   7.905 -0.2549  0.6424 -0.2585
   84TP3     H112071   5.008   0.291   7.897  0.5645  1.0878  0.6714
   84TP3     H212072   4.977   0.152   7.950 -1.1423  0.5075 -1.6785
   85TP3      O12073   1.161   3.094   8.383  0.5275 -0.2307  0.3644
   85TP3     H112074   1.122   3.142   8.457  1.0615 -0.2634  0.6679
   85TP3     H212075   1.208   3.022   8.424 -0.6065 -1.2707 -0.1150
   86TP3      O12076   3.810   5.151   7.557  0.6105  0.4546  0.7005
   86TP3     H112077   3.864   5.082   7.596  1.7134  0.2059 -1.1459
   86TP3     H212078   3.873   5.214   7.523 -0.3622  1.6858  1.1348
   87TP3      O12079   1.414   4.594   8.768 -0.7441 -0.1184  0.7049
   87TP3     H112080   1.495   4.550   8.742 -0.3615  0.6235  0.6000
   87TP3     H212081   1.345   4.532   8.748 -0.2789 -0.3560 -0.1914
   88TP3      O12082   4.019   3.601   1.783  0.3040 -0.0687  0.5871
   88TP3     H112083   4.077   3.677   1.790 -0.2342  0.4703 -0.5834
   88TP3     H212084   4.078   3.525   1.790  1.0317  0.4610  0.3593
   89TP3      O12085   3.343   3.957   0.909 -0.0407 -0.2926  0.3249
   89TP3     H112086   3.344   3.863   0.893 -1.2477  0.0529 -2.1210
   89TP3     H212087   3.261   3.973   0.956 -0.2430 -0.3527 -0.0092
   90TP3      O12088   3.560   2.169   3.621 -0.2023 -0.0539  0.0248
   90TP3     H112089   3.590   2.255   3.652  0.8747 -0.3117 -0.2547
   90TP3     H212090   3.465   2.175   3.625 -0.1395  0.5939  1.5459
   91TP3      O12091   5.227   0.982   8.949 -1.1964  0.4442 -0.2037
   91TP3     H112092   5.264   1.007   9.034  0.5113 -1.4893 -0.3101
   91TP3     H212093   5.151   0.928   8.971 -1.4087  0.8459  0.0662
   92TP3      O12094   2.431   1.705   0.302 -0.3086  0.2308  0.2333
   92TP3     H112095   2.475   1.789   0.302 -0.4464  0.3243 -1.0813
   92TP3     H212096   2.339   1.726   0.321 -0.0935  0.1980  1.4012
   93TP3      O12097   3.621   3.154   0.111  0.2510 -0.0978  0.0355
   93TP3     H112098   3.696   3.099   0.134  0.5889  0.2285 -0.2800
   93TP3     H212099   3.556   3.093   0.076  0.0284 -0.5012  1.1233
   94TP3      O12100   0.659   3.486   9.846 -0.1022  0.7046  0.0011
   94TP3     H112101   0.604   3.431   9.903 -0.1419  0.3310 -0.3949
   94TP3     H212102   0.706   3.424   9.791  1.1910  0.9906  0.7447
   95TP3      O12103   0.758   0.876   2.914  0.2390  0.3932  0.5022
   95TP3     H112104   0.726   0.954   2.959 -1.9693 -1.7712  3.0297
   95TP3     H212105   0.698   0.864   2.841  1.7942  2.0294 -1.1627
   96TP3      O12106   2.386   1.543   2.474 -0.2694 -0.0743 -0.1052
   96TP3     H112107   2.397   1.450   2.456 -1.3395 -0.4103  0.8974
   96TP3     H212108   2.327   1.574   2.405  1.2557  0.2138 -1.3280
   97TP3      O12109   4.784   2.304  10.040 -0.1769  0.0509 -0.2732
   97TP3     H112110   4.740   2.220  10.055 -0.7883  0.4858  0.4284
   97TP3     H212111   4.716   2.360  10.001 -0.1736  0.6314  0.5353
   98TP3      O12112   1.181   3.582   1.333  0.2065  0.4413  0.0104
   98TP3     H112113   1.211   3.544   1.415 -2.3502  1.8787  1.7434
   98TP3     H212114   1.152   3.507   1.281 -0.5793 -0.3244  1.5015
   99TP3      O12115   1.866   3.178   7.519  0.0782 -0.8019 -0.2217
   99TP3     H112116   1.845   3.120   7.445  0.9335 -0.4326 -0.7655
   99TP3     H212117   1.788   3.234   7.527 -0.1802 -1.0982 -0.5933
  100TP3      O12118   1.684   1.189   8.852 -0.0278  0.1622 -0.3438
  100TP3     H112119   1.650   1.146   8.930  2.2026 -0.3837  0.3906
  100TP3     H212120   1.715   1.274   8.883 -0.1267  0.3871 -0.8544
  101TP3      O12121   3.261   1.062   2.185 -0.4469 -0.3701 -0.6190
  101TP3     H112122   3.252   1.077   2.091 -0.0021 -2.0685 -0.9765
  101TP3     H212123   3.224   0.975   2.199 -3.1385  0.9465  1.2991
  102TP3      O12124   1.389   4.291   6.496 -0.1870 -0.3516  0.0245
  102TP3     H112125   1.448   4.255   6.561 -0.3080 -0.2172  0.2111
  102TP3     H212126   1.309   4.239   6.505 -0.2272 -0.2890  0.0275
  103TP3      O12127   5.274   4.791   7.671  0.3876  0.1277  0.0217
  103TP3     H112128   5.269   4.774   7.577 -1.7553 -1.1923  0.2920
  103TP3     H212129   5.345   4.853   7.681  0.6835  0.2779 -2.4697
  104TP3      O12130   3.360   1.636   1.464 -0.3764 -0.4501 -0.3499
  104TP3     H112131   3.271   1.648   1.431 -0.9311 -4.6247 -0.8362
  104TP3     H212132   3.416   1.671   1.395 -1.4814  2.3471  0.0121
  105TP3      O12133   4.309   3.234   9.301  0.2848 -0.0180  0.1340
  105TP3     H112134   4.335   3.210   9.390  2.0490  0.8661 -0.0884
  105TP3     H212135   4.262   3.317   9.312  0.8185  0.2777  0.2228
  106TP3      O12136   0.282   3.512   7.467 -0.3298  0.0504  0.7072
  106TP3     H112137   0.240   3.501   7.382 -0.2159 -0.6494  0.7358
  106TP3     H212138   0.316   3.425   7.489  2.1015  0.7976  0.1766
  107TP3      O12139   1.939   1.749   2.421 -0.5003 -0.7699 -0.1615
  107TP3     H112140   2.016   1.793   2.386 -0.0382 -1.3550  0.1088
  107TP3     H212141   1.883   1.735   2.345 -0.1367 -0.7504 -0.4360
  108TP3      O12142   2.243   0.948   0.985 -0.1890 -0.3968  0.3374
  108TP3     H112143   2.192   1.001   0.924 -1.0290  0.1448  1.4568
  108TP3     H212144   2.206   0.860   0.978 -0.9484 -0.1189  0.7610
  109TP3      O12145   1.203   1.519   0.382 -0.1978  0.2625 -0.1932
  109TP3     H112146   1.112   1.495   0.400 -0.2950  1.3691  0.9329
  109TP3     H212147   1.227   1.577   0.454  0.7131  1.7180 -1.5852
  110TP3      O12148   2.340   2.068   2.323 -0.4704 -0.6284 -0.6367
  110TP3     H112149   2.400   2.049   2.250 -0.2409  3.0294 -1.5966
  110TP3     H212150   2.359   2.159   2.346 -2.8546 -0.6365  1.8184
  111TP3      O12151   4.302   0.014   8.989 -0.2596  0.5500  0.2885
  111TP3     H112152   4.333  -0.004   8.900 -0.9649  3.4733 -0.6696
  111TP3     H212153   4.380   0.045   9.035 -0.5797  2.7961 -0.5527
  112TP3      O12154   0.365   0.769   2.130 -0.4309 -0.0224 -0.0462
  112TP3     H112155   0.388   0.714   2.204  0.4348  0.2380 -0.1143
  112TP3     H212156   0.388   0.858   2.158 -0.4664  0.1271 -0.4783
  113TP3      O12157   3.549   3.906   8.375 -0.5084  0.4724 -0.1357
  113TP3     H112158   3.499   3.912   8.457 -1.3506 -0.1173 -0.5807
  113TP3     H212159   3.638   3.932   8.399 -0.6319 -0.1247  1.0631
  114TP3      O12160   3.944   0.287   1.751 -0.4201 -0.2023 -0.3228
  114TP3     H112161   3.975   0.286   1.842 -0.9127 -1.5116 -0.1392
  114TP3     H212162   4.007   0.233   1.704  0.4728  1.3845 -1.0189
  115TP3      O12163   0.153   2.478   1.788 -0.1800  0.3010  0.0620
  115TP3     H112164   0.154   2.558   1.840  0.7545  0.1281  0.3248
  115TP3     H212165   0.117   2.504   1.703  0.3142  1.0400  0.0769
  116TP3      O12166   0.958   1.112   1.393  0.3802  0.5245 -0.0851
  116TP3     H112167   0.958   1.042   1.327  3.2807 -0.3937  0.7488
  116TP3     H212168   0.869   1.113   1.427  0.0509 -2.2798 -0.6561
  117TP3      O12169   0.914   0.315   1.569  0.2966 -0.1324 -0.5664
  117TP3     H112170   0.828   0.317   1.527  0.5413  0.0224 -1.0673
  117TP3     H212171   0.975   0.290   1.499  0.6382 -0.4120 -0.1786
  118TP3      O12172   4.994   0.565  10.073 -0.8489 -0.2234 -0.1622
  118TP3     H112173   4.967   0.497  10.136 -1.1594  0.7318  0.7691
  118TP3     H212174   4.912   0.603  10.042 -0.6786  0.8388  0.6043
  119TP3      O12175   1.239   2.736   9.087 -0.4279 -0.3637 -0.4249
  119TP3     H112176   1.265   2.822   9.121 -1.1430 -0.2991 -0.0329
  119TP3     H212177   1.144   2.737   9.088 -0.4415 -1.2102 -0.3123
  120TP3      O12178   1.265   4.847   2.717 -0.1915 -0.3520 -0.3427
  120TP3     H112179   1.341   4.790   2.728 -0.6458 -0.9694 -0.3173
  120TP3     H212180   1.234   4.830   2.628  0.6321  1.0867 -0.9420
  121TP3      O12181   2.850   0.605   8.534  0.4683 -0.0818 -0.0553
  121TP3     H112182   2.757   0.616   8.515  0.5101 -1.0934 -0.9350
  121TP3     H212183   2.853   0.577   8.625  0.0171  1.2694  0.4042
  122TP3      O12184   0.312   4.119   1.928  0.5665  0.4461 -0.4230
  122TP3     H112185   0.301   4.119   1.833 -1.6990 -1.2374 -0.2524
  122TP3     H212186   0.375   4.049   1.945 -0.1683 -0.2724 -0.6192
  123TP3      O12187   3.265   3.689   0.898  0.0380  0.5788 -0.3954
  123TP3     H112188   3.285   3.677   0.991 -0.1616 -0.6145 -0.4889
  123TP3     H212189   3.314   3.619   0.855 -0.1320  0.9253 -1.1575
  124TP3      O12190   3.611   2.393   8.795  0.1253  0.4773 -0.5020
  124TP3     H112191   3.653   2.430   8.717 -0.6520  0.1579 -1.0830
  124TP3     H212192   3.547   2.331   8.760  1.2068 -1.2624  0.4195
  125TP3      O12193   0.915   5.273   2.789 -0.6689 -0.0739 -1.0378
  125TP3     H112194   0.890   5.181   2.786 -1.4251  0.1366 -1.6052
  125TP3     H212195   0.975   5.284   2.715  1.3898 -0.6268  0.4468
  126TP3      O12196   3.507   2.639   1.399 -0.2269  0.0050  0.2592
  126TP3     H112197   3.471   2.585   1.469 -0.8711  0.4727  0.3004
  126TP3     H212198   3.583   2.590   1.367  0.3106 -0.0335  1.5372
  127TP3      O12199   4.711   1.853   2.574 -0.4139 -0.2178  0.0133
  127TP3     H112200   4.640   1.814   2.525 -1.1820  1.3362 -0.1826
  127TP3     H212201   4.694   1.947   2.570 -0.0865  0.0349  2.5668
  128TP3      O12202   1.795   4.520   1.131 -0.3913  0.7549  0.1196
  128TP3     H112203   1.804   4.611   1.159 -3.1426  1.0187  0.3549
  128TP3     H212204   1.777   4.472   1.211  2.6561 -0.3711  0.2610
  129TP3      O12205   2.724   2.594   0.557  0.5103  0.0996 -0.2086
  129TP3     H112206   2.688   2.633   0.477  1.6110  1.7328  0.0392
  129TP3     H212207   2.650   2.588   0.617 -0.2032 -0.5941 -1.1233
  130TP3      O12208   3.855   4.300   1.802  0.2374 -0.1669 -0.4181
  130TP3     H112209   3.910   4.326   1.728  0.0047 -0.9652 -0.8877
  130TP3     H212210   3.770   4.281   1.762 -0.0462 -0.0819  0.1353
  131TP3      O12211   1.566   1.896   1.187 -0.0805 -0.0522 -0.7436
  131TP3     H112212   1.652   1.862   1.211 -0.1068  0.3007 -0.1362
  131TP3     H212213   1.539   1.842   1.113  1.3391  0.8404 -1.9801
  132TP3      O12214   1.372   3.022   9.235  0.2163  0.0159 -0.4245
  132TP3     H112215   1.367   3.065   9.150  0.7592  3.6216  1.1799
  132TP3     H212216   1.293   3.051   9.281 -0.0779 -1.8889  0.3705
  133TP3      O12217   3.084   1.657   0.961  0.1279 -0.1161 -0.2992
  133TP3     H112218   3.056   1.579   0.914 -0.8158 -0.2958  0.5290
  133TP3     H212219   3.176   1.642   0.981  0.4449 -0.1996 -1.7382
  134TP3      O12220   3.396   0.002   6.408 -0.0041 -0.1346  0.3252
  134TP3     H112221   3.451   0.066   6.453  1.3629  0.6622 -2.2657
  134TP3     H212222   3.306   0.029   6.426  0.5040  0.8461  1.5168
  135TP3      O12223   0.239   1.701   2.340 -0.5769  0.0382  0.5115
  135TP3     H112224   0.306   1.636   2.320 -1.4194 -0.9558  0.8946
  135TP3     H212225   0.288   1.774   2.378  0.1454 -1.2890  2.2457
  136TP3      O12226   1.904   0.671   8.507  1.2169  0.3369  0.0503
  136TP3     H112227   1.932   0.639   8.421  1.1938 -1.8806  0.8047
  136TP3     H212228   1.911   0.766   8.500 -2.7672  0.6597 -3.8117
  137TP3      O12229   0.707   0.843   0.990 -0.4287 -0.1438  0.3837
  137TP3     H112230   0.656   0.810   1.064  0.7958 -0.2780  1.1984
  137TP3     H212231   0.642   0.883   0.932 -1.3523  0.4873  1.8043
  138TP3      O12232   4.009   2.288   0.235 -0.2180  0.0996  0.1735
  138TP3     H112233   3.955   2.314   0.160 -0.3834 -2.0815 -0.5223
  138TP3     H212234   3.954   2.227   0.284  0.2381  0.7858  1.5953
  139TP3      O12235   1.323   0.996   6.791  0.0345 -0.1612 -0.1134
  139TP3     H112236   1.411   1.030   6.773 -0.0925 -0.5082 -1.5198
  139TP3     H212237   1.338   0.911   6.831  0.3586 -0.5165 -0.9664
  140TP3      O12238   1.345   1.320   0.518 -0.5168 -0.1658  0.1190
  140TP3     H112239   1.405   1.374   0.570  1.1605  0.2418 -2.0548
  140TP3     H212240   1.301   1.382   0.460  1.1532 -0.9467 -2.1507
  141TP3      O12241   1.818   3.768   2.298 -0.0062 -1.4238 -0.5820
  141TP3     H112242   1.866   3.831   2.245 -1.8930 -0.7546 -1.6010
  141TP3     H212243   1.861   3.684   2.281 -0.6798 -1.2832 -3.4248
  142TP3      O12244   2.976   3.974   1.828  0.3482  0.3778 -0.0464
  142TP3     H112245   2.969   4.058   1.874  2.6238  1.0627 -0.7725
  142TP3     H212246   2.954   3.908   1.894 -1.0579  1.5080  0.6661
  143TP3      O12247   3.588   0.090   2.600 -0.5636 -0.0225  0.1840
  143TP3     H112248   3.620   0.121   2.685 -0.9516  0.8011  0.0442
  143TP3     H212249   3.567   0.170   2.552 -2.5772 -0.5059  0.1798
  144TP3      O12250   2.973   3.619   9.872  0.2557  0.0232 -1.0088
  144TP3     H112251   2.998   3.711   9.873  0.6931 -0.0776  0.5108
  144TP3     H212252   2.948   3.600   9.963  1.6015 -1.7102 -0.9312
  145TP3      O12253   4.764   0.656   9.350  0.5200 -0.2888 -0.4760
  145TP3     H112254   4.671   0.631   9.347  0.8917 -1.7059 -0.9971
  145TP3     H212255   4.811   0.573   9.352  1.7847  0.4125  0.1157
  146TP3      O12256   3.241   0.915   8.685 -0.7475  0.3018  0.0143
  146TP3     H112257   3.230   0.975   8.612 -0.3915  1.2131  0.6820
  146TP3     H212258   3.153   0.882   8.703 -0.9626  0.6984 -0.2999
  147TP3      O12259   2.792   1.022   2.020 -0.0324  0.0434  0.3309
  147TP3     H112260   2.726   0.986   2.079  1.2439 -2.1468  0.5320
  147TP3     H212261   2.755   1.105   1.991 -0.9997  0.9416  3.6854
  148TP3      O12262   0.045   1.052  10.061 -0.3748  0.4224  0.2829
  148TP3     H112263   0.108   1.050  10.134 -0.6425 -0.4806  0.5128
  148TP3     H212264   0.032   0.959  10.040 -0.6033  0.6646 -0.6571
  149TP3      O12265   4.274   2.767   9.304 -0.3249  0.6644 -0.3186
  149TP3     H112266   4.301   2.794   9.392 -0.3175  0.4103 -0.2408
  149TP3     H212267   4.180   2.788   9.300 -0.0434  1.9173 -0.7310
  150TP3      O12268   2.088   2.942   7.572  0.0827  0.3489 -0.6374
  150TP3     H112269   1.994   2.923   7.569  0.0110  0.5135  0.4119
  150TP3     H212270   2.128   2.872   7.519 -0.6694  0.6535 -1.6410
  151TP3      O12271   2.963   1.215   6.597  0.7155  0.3198  0.6762
  151TP3     H112272   2.926   1.210   6.509  0.5110 -0.0628  0.7787
  151TP3     H212273   2.969   1.308   6.616  0.6745  0.4012  0.2933
  152TP3      O12274   3.891   2.195   8.774 -0.0831  0.0196  0.6947
  152TP3     H112275   3.829   2.202   8.701  0.0512 -0.8432  0.4817
  152TP3     H212276   3.852   2.130   8.832  1.0474 -1.2555  0.0890
  153TP3      O12277   0.604   1.486   9.295  0.2343  0.0231  0.9782
  153TP3     H112278   0.697   1.504   9.310  0.5397  2.5406 -2.6084
  153TP3     H212279   0.559   1.534   9.365  1.6193  1.0540  1.2099
  154TP3      O12280   3.120   4.314   7.415 -0.3293  0.2430 -0.0335
  154TP3     H112281   3.101   4.225   7.443 -0.9677  0.8941  1.7359
  154TP3     H212282   3.067   4.326   7.336 -2.2447 -0.1294  1.1292
  155TP3      O12283   3.061   4.740   9.633 -0.0843  0.2225  0.4978
  155TP3     H112284   3.002   4.723   9.706  1.2704 -1.9126  1.1830
  155TP3     H212285   3.021   4.696   9.558  0.6109 -1.2428  0.9653
  156TP3      O12286   4.572   2.920   8.411  0.0742  0.5533  0.2039
  156TP3     H112287   4.612   2.872   8.338  0.6357 -1.6192  1.8340
  156TP3     H212288   4.521   2.989   8.368 -0.5165 -1.2775 -2.3336
  157TP3      O12289   2.799   1.870   9.335  0.2286 -0.4654 -0.4157
  157TP3     H112290   2.751   1.946   9.368  1.4102  0.4186 -0.6650
  157TP3     H212291   2.746   1.795   9.361 -0.6366  0.4036  0.4074
  158TP3      O12292   0.127   0.570   9.463  0.2927 -0.1747 -0.4598
  158TP3     H112293   0.089   0.492   9.423  0.0374 -0.5209  0.4263
  158TP3     H212294   0.214   0.542   9.491 -0.5150 -0.7908  1.6729
  159TP3      O12295   2.893   1.010   2.412 -0.2269 -0.2703  0.4639
  159TP3     H112296   2.903   1.050   2.498 -2.9145 -0.2186  0.8582
  159TP3     H212297   2.860   1.081   2.356  1.0634 -0.4122 -0.5232
  160TP3      O12298   4.987   2.273   0.850 -0.0508 -0.4056 -0.3643
  160TP3     H112299   5.080   2.248   0.850 -0.2473 -1.5428 -2.9376
  160TP3     H212300   4.942   2.195   0.881 -0.1522  0.4545  1.7743
  161TP3      O12301   2.945   1.091   8.886  0.9749 -0.1021 -0.0373
  161TP3     H112302   2.868   1.036   8.873  0.5189 -0.1224  2.2743
  161TP3     H212303   2.991   1.088   8.802 -0.9316 -1.0067 -1.1263
  162TP3      O12304   2.333   4.135   0.063 -0.5814 -0.2945  0.2484
  162TP3     H112305   2.251   4.151   0.016  0.3507  0.1262 -1.3027
  162TP3     H212306   2.333   4.199   0.134 -2.3693 -1.4282  1.3594
  163TP3      O12307   4.208   4.831   1.848  0.0713 -0.0680 -0.6730
  163TP3     H112308   4.127   4.781   1.861  0.0883 -0.3670 -1.6795
  163TP3     H212309   4.190   4.915   1.889 -0.2553 -0.5973  0.3222
  164TP3      O12310   1.695   1.672   1.633  0.1199 -0.1391  0.6395
  164TP3     H112311   1.631   1.664   1.562  1.9400  2.5142 -1.5341
  164TP3     H212312   1.763   1.608   1.611  0.5844  0.5384  0.0794
  165TP3      O12313   0.059   5.151   6.710  0.3267 -0.0679  0.0744
  165TP3     H112314  -0.031   5.184   6.704  1.1356  2.1950 -0.4962
  165TP3     H212315   0.084   5.167   6.800  0.2738 -0.4242  0.1545
  166TP3      O12316   2.992   4.908   9.171 -0.4778 -0.4706  0.0769
  166TP3     H112317   3.079   4.945   9.152  0.3518 -1.6308  1.3703
  166TP3     H212318   2.966   4.866   9.089  0.1623 -0.0466 -0.3525
  167TP3      O12319   0.982   5.088  10.113  0.0932 -1.0515  0.3956
  167TP3     H112320   1.017   5.036  10.185  1.0258 -0.8961  0.0757
  167TP3     H212321   1.060   5.121  10.068 -0.4825  0.0332  0.1689
  168TP3      O12322   5.270   4.576   0.787 -0.0872 -0.6738  0.5380
  168TP3     H112323   5.338   4.521   0.749 -1.7473 -1.6246 -1.2901
  168TP3     H212324   5.280   4.566   0.881  3.0453  0.2696  0.4121
  169TP3      O12325   4.499   4.363   1.073  0.1414  0.3212 -0.1336
  169TP3     H112326   4.520   4.271   1.090 -0.1581  0.2862  0.0528
  169TP3     H212327   4.416   4.361   1.027  0.1999  0.4934 -0.2484
  170TP3      O12328   4.207   4.978   3.042  0.3111  0.2694  0.1535
  170TP3     H112329   4.141   4.915   3.013 -0.1824  0.4364  0.8763
  170TP3     H212330   4.248   5.008   2.961  0.0461 -0.4258 -0.2534
  171TP3      O12331   1.840   1.750   9.563 -0.0037  0.5160  0.3759
  171TP3     H112332   1.821   1.749   9.657 -0.4999  0.5716  0.2801
  171TP3     H212333   1.784   1.682   9.526  1.7796 -1.0355  0.4048
  172TP3      O12334   2.303   2.330   9.964 -0.0679  0.1867 -0.2874
  172TP3     H112335   2.238   2.260   9.957  0.8648 -0.6816 -0.4798
  172TP3     H212336   2.387   2.285   9.968  0.6367  1.3201 -1.4100
  173TP3      O12337   0.913   1.395   0.495  0.5420  0.3582 -0.2360
  173TP3     H112338   0.846   1.398   0.564  0.2298 -1.6595 -0.3830
  173TP3     H212339   0.868   1.424   0.416  0.7641  2.1950  0.2679
  174TP3      O12340   0.965   1.007   8.637  0.3456 -0.5335 -0.1287
  174TP3     H112341   0.906   0.962   8.699  1.9064 -1.6062  0.6686
  174TP3     H212342   0.926   0.992   8.551 -0.7500 -0.8877  0.4158
  175TP3      O12343   4.173   1.481   8.409  0.0217  0.2069 -0.5987
  175TP3     H112344   4.164   1.432   8.491  2.2746  0.4111 -0.1668
  175TP3     H212345   4.263   1.463   8.380 -0.4704  0.7819 -2.6215
  176TP3      O12346   0.775   5.162   0.242 -0.3827  0.2441  0.5361
  176TP3     H112347   0.832   5.179   0.316  0.4698  0.6667 -0.2050
  176TP3     H212348   0.834   5.136   0.171 -1.1593  0.1144 -0.0810
  177TP3      O12349   2.610   1.773   1.675  0.1400 -0.4048  0.3985
  177TP3     H112350   2.665   1.797   1.750  0.0252 -0.4923  0.5118
  177TP3     H212351   2.625   1.842   1.611  1.5860 -1.2187 -0.1926
  178TP3      O12352   2.078   0.001   8.858 -0.4634 -0.0921  0.1969
  178TP3     H112353   2.149   0.024   8.797 -0.9109 -2.5745 -1.4182
  178TP3     H212354   2.096  -0.090   8.883 -2.9631 -0.7748 -0.1799
  179TP3      O12355   3.884   3.209   8.100  0.2335  0.3224 -0.1160
  179TP3     H112356   3.822   3.266   8.055  0.2387 -0.9360 -1.7921
  179TP3     H212357   3.863   3.121   8.068  0.7364 -0.5499  1.7916
  180TP3      O12358   0.269   1.048   8.752  0.3978  0.5153  0.3378
  180TP3     H112359   0.326   0.986   8.797 -1.0571 -0.0626  1.4663
  180TP3     H212360   0.256   1.118   8.816  1.0980  1.4401 -0.5029
  181TP3      O12361   3.298   0.550   0.411 -0.8972 -0.0101  0.1345
  181TP3     H112362   3.227   0.525   0.471 -0.9825  1.4991  0.7054
  181TP3     H212363   3.294   0.485   0.342 -1.7443 -0.9560  1.0334
  182TP3      O12364   4.492   2.052   1.943 -0.1921  0.2353 -0.1230
  182TP3     H112365   4.446   2.136   1.951  0.1510  0.3264  1.1123
  182TP3     H212366   4.424   1.987   1.958 -0.2965  0.3240 -0.2105
  183TP3      O12367   2.072   3.492   9.383 -0.8140 -0.4969  0.0621
  183TP3     H112368   2.004   3.438   9.343  0.1648 -0.0901 -2.3440
  183TP3     H212369   2.144   3.491   9.319  1.3645 -0.6959  2.3664
  184TP3      O12370   1.244   4.022   0.212 -0.1651 -0.4779  0.4370
  184TP3     H112371   1.338   4.027   0.194 -0.4778  0.0733 -1.2403
  184TP3     H212372   1.203   4.073   0.141 -1.6688  0.2085  1.7321
  185TP3      O12373   5.146   0.444   8.666  0.1178  0.6538  0.0737
  185TP3     H112374   5.156   0.531   8.705 -0.5604  1.0270 -0.5556
  185TP3     H212375   5.053   0.423   8.679  0.1604  0.2519 -0.2447
  186TP3      O12376   3.639   4.179   6.686 -0.0192  0.7410 -0.4251
  186TP3     H112377   3.707   4.133   6.637  0.6473  1.1226  0.1192
  186TP3     H212378   3.641   4.268   6.650 -0.0565  0.8167 -0.2411
  187TP3      O12379   4.232   1.388   1.963  0.8253  0.2662  0.3030
  187TP3     H112380   4.219   1.377   1.868  1.1490 -1.8491  0.4534
  187TP3     H212381   4.326   1.372   1.976  0.7538  0.3888  0.9912
  188TP3      O12382   3.714   3.786   8.903 -0.7738  0.0467 -0.4735
  188TP3     H112383   3.727   3.770   8.809  0.3317 -0.8983 -0.1758
  188TP3     H212384   3.640   3.846   8.906  0.3818  1.6447 -2.0420
  189TP3      O12385   4.696   1.223   7.360  0.0617  0.8826  0.1733
  189TP3     H112386   4.791   1.216   7.367 -0.0508 -0.9220  0.3666
  189TP3     H212387   4.664   1.206   7.448 -0.5445 -2.2993 -0.5420
  190TP3      O12388   5.270   3.661   6.906 -0.1953  0.3024 -0.3365
  190TP3     H112389   5.271   3.582   6.960  0.7605  0.8055  0.4218
  190TP3     H212390   5.179   3.689   6.905 -0.1699  0.6310  1.5888
  191TP3      O12391   4.381   0.102   7.032  0.2493 -0.1353  0.4489
  191TP3     H112392   4.392   0.134   6.942  1.2164 -0.9024  0.2757
  191TP3     H212393   4.469   0.107   7.070  0.0560 -0.8275  1.0011
  192TP3      O12394   3.600   4.124   9.655 -0.6014 -0.0277  0.5555
  192TP3     H112395   3.650   4.183   9.598  0.2420  0.6301  1.9164
  192TP3     H212396   3.558   4.062   9.595 -1.3329  1.7939 -0.9274
  193TP3      O12397   0.685   4.090   7.322  0.2874 -0.0677 -1.0082
  193TP3     H112398   0.769   4.044   7.325  1.3213  1.7756  0.0180
  193TP3     H212399   0.686   4.136   7.238  0.0978 -0.4188 -1.2020
  194TP3      O12400   1.701   4.404   6.469  0.8201 -0.0518 -0.2889
  194TP3     H112401   1.779   4.439   6.426  0.8504  0.4383  0.1598
  194TP3     H212402   1.630   4.461   6.440  1.2011  1.8383  2.1686
  195TP3      O12403   0.721   4.643   1.699  0.4811  0.4938 -0.0067
  195TP3     H112404   0.687   4.622   1.786  2.2210  0.1858  0.6455
  195TP3     H212405   0.718   4.560   1.652 -0.0167  0.5536 -0.0824
  196TP3      O12406   2.895   2.200   1.678  0.2586 -0.0289  0.2536
  196TP3     H112407   2.880   2.289   1.709 -0.6371 -0.4466  1.0800
  196TP3     H212408   2.939   2.211   1.594  1.2592  1.1621  0.9027
  197TP3      O12409   0.101   3.947   8.793 -0.5778  0.1475  0.7023
  197TP3     H112410   0.162   3.949   8.867 -0.6682  1.1040  0.7641
  197TP3     H212411   0.113   4.032   8.750 -0.7195 -0.2925 -0.2277
  198TP3      O12412   1.643   1.990   0.916 -0.3052 -0.4878  0.3899
  198TP3     H112413   1.695   2.003   0.996  1.1742 -0.5145 -0.5202
  198TP3     H212414   1.582   2.063   0.915  1.4903  1.1004  0.1974
  199TP3      O12415   0.671   4.148   2.005  0.5462  0.1317  0.0296
  199TP3     H112416   0.612   4.215   2.041  1.3635  0.4885  0.7662
  199TP3     H212417   0.622   4.067   2.011  0.8370  0.0579  2.6054
  200TP3      O12418   2.574   3.882   1.943 -0.8419 -0.3043  0.4260
  200TP3     H112419   2.569   3.787   1.946 -3.2538 -0.4094 -2.4761
  200TP3     H212420   2.483   3.911   1.946 -0.2496  1.8139 -0.2852
  201TP3      O12421   0.303   1.196   8.985 -0.6728 -0.1408  0.1957
  201TP3     H112422   0.399   1.192   8.981 -0.5641 -3.3215  2.0388
  201TP3     H212423   0.285   1.257   9.056  0.1748 -1.2011  1.3923
  202TP3      O12424   4.300   4.642   1.195 -0.0779 -0.4556 -0.0577
  202TP3     H112425   4.256   4.726   1.179 -1.8611 -1.2231  0.6464
  202TP3     H212426   4.296   4.597   1.110 -1.8216 -1.0071  0.2664
  203TP3      O12427   3.122   5.049   9.576 -0.1240 -0.3091 -0.3221
  203TP3     H112428   3.184   5.052   9.503 -1.0590 -1.1547 -1.1699
  203TP3     H212429   3.039   5.076   9.538 -0.5721 -0.5180  0.4943
  204TP3      O12430   0.779   4.410   1.888 -0.7136  0.8398 -0.3738
  204TP3     H112431   0.859   4.449   1.854 -1.0170 -1.1108 -3.7154
  204TP3     H212432   0.737   4.370   1.812 -3.6133 -0.3908  1.6885
  205TP3      O12433   4.541   4.937   7.836 -0.3234 -0.2998  0.0011
  205TP3     H112434   4.571   4.847   7.843  1.3865  0.2033 -0.1857
  205TP3     H212435   4.555   4.959   7.743  0.0887  0.4081  0.2246
  206TP3      O12436   3.097   0.458   7.291 -0.7945 -0.2571  0.2621
  206TP3     H112437   3.184   0.449   7.254 -0.2255  0.8160  1.2846
  206TP3     H212438   3.045   0.390   7.247  0.6169 -1.1297 -0.1237
  207TP3      O12439   1.184   1.184   9.312  0.6619 -0.0930 -0.2273
  207TP3     H112440   1.109   1.136   9.345 -0.1133  1.7580  0.8175
  207TP3     H212441   1.150   1.234   9.238  0.8687  0.6812  0.1917
  208TP3      O12442   1.404   3.862   8.966  0.3649 -0.7202 -0.2106
  208TP3     H112443   1.459   3.861   8.888 -0.3588 -1.8105 -0.7262
  208TP3     H212444   1.397   3.770   8.992 -0.7463 -0.5414  0.1727
  209TP3      O12445   0.212   4.052   3.182  0.3874  0.2511  0.3271
  209TP3     H112446   0.256   3.991   3.242 -0.4539 -0.1305  0.5776
  209TP3     H212447   0.133   4.079   3.229  0.0931  0.5236 -0.3089
  210TP3      O12448   1.172   4.782   7.613  0.0971 -0.0487  0.2685
  210TP3     H112449   1.079   4.777   7.638 -0.3277 -1.1135 -1.3792
  210TP3     H212450   1.176   4.739   7.527  1.9828  0.7374 -0.0790
  211TP3      O12451   2.109   2.935   3.296  0.2989  0.0297 -0.6601
  211TP3     H112452   2.194   2.966   3.266  0.0424  2.7922  1.1604
  211TP3     H212453   2.109   2.952   3.390 -2.1214 -0.2781 -0.5365
  212TP3      O12454   5.142   2.990   9.662  0.3446  0.4168 -0.1495
  212TP3     H112455   5.102   2.934   9.729  2.1711  0.0383  0.6801
  212TP3     H212456   5.139   3.078   9.699  0.5245  0.3513  0.0169
  213TP3      O12457   4.214   0.265   8.702 -0.0881  0.4669  0.0391
  213TP3     H112458   4.208   0.343   8.646 -1.0537  0.5996  0.3095
  213TP3     H212459   4.132   0.265   8.751  0.4971  0.0226  1.0319
  214TP3      O12460   1.844   2.003   7.694 -0.1194 -0.5651 -0.3455
  214TP3     H112461   1.765   2.017   7.641  0.3170 -0.6646 -1.0369
  214TP3     H212462   1.832   1.917   7.733 -0.7597 -0.1992  0.2767
  215TP3      O12463   2.046   0.154   0.765  0.4297 -0.1405 -0.2640
  215TP3     H112464   2.036   0.135   0.672 -1.4654 -1.0687  0.0812
  215TP3     H212465   2.000   0.237   0.778  0.3098 -0.2324 -0.0889
  216TP3      O12466   2.251   3.482   9.196 -0.0674 -0.1640 -0.4512
  216TP3     H112467   2.337   3.525   9.190  1.0133 -2.1583 -0.1893
  216TP3     H212468   2.264   3.396   9.156 -1.8513 -0.6622 -0.0610
  217TP3      O12469   4.641   4.798   1.671 -0.1760 -0.0069 -0.4958
  217TP3     H112470   4.590   4.787   1.591 -0.0150  0.3439 -0.6489
  217TP3     H212471   4.724   4.836   1.642  0.0236 -0.2169 -0.2046
  218TP3      O12472   1.531   0.087   7.922  0.0569 -0.2107  0.4451
  218TP3     H112473   1.511   0.161   7.979  0.0718 -1.0307  1.5393
  218TP3     H212474   1.619   0.060   7.947  0.5689  0.2052 -0.8529
  219TP3      O12475   4.139   1.057   3.405 -0.1772 -0.4762 -0.2957
  219TP3     H112476   4.158   1.056   3.499 -0.3660 -1.9881 -0.2528
  219TP3     H212477   4.046   1.075   3.400 -0.2249 -0.6881 -0.1820
  220TP3      O12478   4.037   0.311  10.118  0.3450  0.4378 -0.7227
  220TP3     H112479   4.003   0.283  10.033  0.5793  0.9165 -0.9743
  220TP3     H212480   4.052   0.405  10.109 -0.8189  0.7482  0.2344
  221TP3      O12481   3.229   2.648   9.175 -0.0561  0.1422 -1.3094
  221TP3     H112482   3.178   2.726   9.152 -0.3235 -0.5198 -3.0455
  221TP3     H212483   3.318   2.681   9.188 -0.3321  0.8629 -1.1727
  222TP3      O12484   2.120   1.908   2.267  0.1098 -0.0060 -0.2426
  222TP3     H112485   2.199   1.960   2.281 -0.3398  0.0835  2.6386
  222TP3     H212486   2.068   1.959   2.206  0.3776  2.1986  1.2652
  223TP3      O12487   3.078   3.774   9.147 -0.0374 -0.3091 -0.0427
  223TP3     H112488   3.029   3.795   9.067  2.0012  1.0592 -1.0250
  223TP3     H212489   3.039   3.692   9.178 -1.0760 -0.7528 -2.2806
  224TP3      O12490   2.520   2.827   8.678 -0.0950 -0.2553  0.3268
  224TP3     H112491   2.484   2.774   8.608  0.5760 -0.5672  0.2146
  224TP3     H212492   2.475   2.911   8.670  1.1820  0.3220 -1.5745
  225TP3      O12493   3.494   3.226   0.581 -0.4149  0.1880  0.1546
  225TP3     H112494   3.476   3.268   0.496 -0.2442  2.7289  1.2832
  225TP3     H212495   3.413   3.180   0.602 -0.7550  0.2250 -0.9748
  226TP3      O12496   2.684   3.752   0.753  0.1596 -0.4625  0.7158
  226TP3     H112497   2.684   3.784   0.843  1.1003  0.1723  0.4957
  226TP3     H212498   2.742   3.811   0.706 -0.5586 -0.5993 -0.3833
  227TP3      O12499   1.804   2.977   9.888 -0.0265 -0.0914  0.5244
  227TP3     H112500   1.800   2.906   9.824 -0.2365 -0.2221  0.6816
  227TP3     H212501   1.835   2.935   9.969  2.4527  0.4678 -0.0543
  228TP3      O12502   3.640   1.211   2.514 -0.3002  0.4027  0.4785
  228TP3     H112503   3.593   1.151   2.571 -1.9204  2.1464  1.0788
  228TP3     H212504   3.610   1.189   2.426  1.6615 -1.8107  0.2477
  229TP3      O12505   2.597   3.243   1.542  0.6081  0.2586  0.1696
  229TP3     H112506   2.528   3.305   1.519 -0.2742 -1.3427 -1.7489
  229TP3     H212507   2.560   3.191   1.613  0.7624  0.9283  0.7447
  230TP3      O12508   1.634   4.566   1.723  0.2312 -0.3833  0.2140
  230TP3     H112509   1.605   4.482   1.758  0.7619 -1.1620 -1.1297
  230TP3     H212510   1.715   4.546   1.676  1.0574  1.1191  0.9076
  231TP3      O12511   3.436   2.802   0.662  0.3221 -0.0987  0.2590
  231TP3     H112512   3.380   2.839   0.594  0.5167  0.6742  0.5110
  231TP3     H212513   3.500   2.750   0.615  0.6753  0.7162 -0.1794
  232TP3      O12514   2.755   0.396   7.212 -1.1301 -0.3373 -0.2772
  232TP3     H112515   2.701   0.457   7.162 -0.3660  0.7883  0.2275
  232TP3     H212516   2.770   0.323   7.152 -0.1753  1.0051 -1.7653
  233TP3      O12517   0.564   3.517   3.400 -0.3573  0.2611 -0.3429
  233TP3     H112518   0.493   3.454   3.411  0.2843 -0.1641  1.6722
  233TP3     H212519   0.533   3.575   3.329 -2.4742 -0.2161  0.1155
  234TP3      O12520   2.771   0.873   0.041  0.9036  0.1268  0.4510
  234TP3     H112521   2.735   0.962   0.041  0.3610 -0.0868  0.8287
  234TP3     H212522   2.732   0.831   0.118  0.4624 -0.7119 -0.2088
  235TP3      O12523   1.942   0.576   3.341 -0.4245  0.6238  0.1793
  235TP3     H112524   1.890   0.585   3.261  1.6261 -1.1049 -1.4882
  235TP3     H212525   1.879   0.588   3.412 -2.4164  1.8627 -1.6494
  236TP3      O12526   5.213   0.019   1.858 -0.0545 -0.7177  0.0943
  236TP3     H112527   5.162  -0.062   1.852  0.0358 -0.8385  0.8566
  236TP3     H212528   5.297  -0.009   1.894 -0.0354 -0.2878  0.3883
  237TP3      O12529   2.325   3.569  10.125  0.2978  0.1543  0.4938
  237TP3     H112530   2.306   3.580  10.032 -3.2444 -0.0904  1.0287
  237TP3     H212531   2.387   3.639  10.146  1.0418  0.3110 -1.9877
  238TP3      O12532   3.511   2.799   1.946 -0.1892  0.1357 -0.2706
  238TP3     H112533   3.461   2.875   1.976 -1.0681 -0.5087 -0.0658
  238TP3     H212534   3.534   2.819   1.856  1.4462  1.5799  0.4111
  239TP3      O12535   3.104   3.571   6.989  0.3523  0.3383  0.1514
  239TP3     H112536   3.030   3.616   6.948 -1.1507 -1.8825  0.2237
  239TP3     H212537   3.133   3.508   6.923  1.8741  0.8229  0.3303
  240TP3      O12538   0.101   4.216   8.681  0.1449 -0.0281 -0.2494
  240TP3     H112539   0.172   4.281   8.683 -1.6121  1.9911 -0.3305
  240TP3     H212540   0.034   4.255   8.626 -0.8431 -2.1434 -0.6502
  241TP3      O12541   2.888   4.970   7.103  0.3941  0.0939  0.3580
  241TP3     H112542   2.855   5.050   7.142 -1.0849  0.2184 -1.0640
  241TP3     H212543   2.931   4.998   7.022 -2.5995 -0.7000 -1.6504
  242TP3      O12544   0.148   1.690   2.047 -0.3364  0.5755  0.1364
  242TP3     H112545   0.173   1.742   2.124  1.8378  0.5033 -0.4492
  242TP3     H212546   0.096   1.618   2.082  0.1587  0.8483  1.4902
  243TP3      O12547   4.900   2.627   9.520 -0.1119 -0.3108 -0.4159
  243TP3     H112548   4.908   2.575   9.600 -1.9266 -0.3664 -0.2086
  243TP3     H212549   4.888   2.717   9.551 -1.0784 -0.3674 -0.5832
  244TP3      O12550   0.635   0.862   8.702  0.0952 -0.3141 -0.2174
  244TP3     H112551   0.704   0.845   8.766  0.3903  2.3159  0.2601
  244TP3     H212552   0.570   0.912   8.750 -0.9577 -0.5582 -1.3380
  245TP3      O12553   3.176   0.926   0.492  0.1251 -0.0839 -0.5400
  245TP3     H112554   3.181   0.923   0.396  1.2861  1.1396 -0.5538
  245TP3     H212555   3.107   0.990   0.510  1.1172  1.0451 -0.6075
  246TP3      O12556   0.143   2.589   9.170  0.0707  0.3573 -0.6591
  246TP3     H112557   0.061   2.571   9.123  0.1185 -1.4388 -0.1217
  246TP3     H212558   0.120   2.578   9.262  0.8750  0.0070 -0.4964
  247TP3      O12559   3.501   0.216   7.773 -0.0201  0.0047  0.2069
  247TP3     H112560   3.558   0.289   7.797  1.8615 -1.6589  1.0630
  247TP3     H212561   3.463   0.242   7.689  1.5425  1.4548 -0.1005
  248TP3      O12562   2.925   4.214   1.941  0.0680 -0.6941  0.3702
  248TP3     H112563   2.872   4.284   1.977 -1.3308 -0.2163 -2.3691
  248TP3     H212564   3.015   4.244   1.952 -0.4559  0.9177  0.4214
  249TP3      O12565   0.017   3.380   0.942 -0.1716  0.3708  0.7245
  249TP3     H112566   0.008   3.293   0.980  0.6067 -0.1611 -0.2534
  249TP3     H212567   0.093   3.418   0.985  0.5303 -0.1181 -0.0348
  250TP3      O12568   1.448   0.874   9.288  0.0458  0.0877 -0.1566
  250TP3     H112569   1.354   0.882   9.271 -0.1847 -1.2607  0.3067
  250TP3     H212570   1.465   0.780   9.281  1.1875  0.2127  0.6809
  251TP3      O12571   0.004   0.032   9.609 -0.1234  0.0095 -0.1818
  251TP3     H112572  -0.050  -0.045   9.623 -0.3652  0.0598 -0.8143
  251TP3     H212573  -0.055   0.096   9.570  0.8311 -0.6486 -2.9694
  252TP3      O12574   3.051   3.793   0.685  0.3290 -0.3925 -0.4016
  252TP3     H112575   3.104   3.758   0.756  1.3301  0.3504 -0.7604
  252TP3     H212576   3.088   3.755   0.605 -0.9056 -1.3701 -0.5393
  253TP3      O12577   3.954   4.087   1.022  0.6176 -0.1852  0.3032
  253TP3     H112578   3.932   4.118   1.110  0.8386  0.1558  0.2423
  253TP3     H212579   4.034   4.135   1.000  0.3959 -0.0395 -0.2011
  254TP3      O12580   1.424   4.384   0.400 -0.3484  0.1965 -0.4562
  254TP3     H112581   1.391   4.395   0.490  0.1896 -0.4635 -0.1678
  254TP3     H212582   1.442   4.290   0.393 -1.0386  0.1239 -1.4896
  255TP3      O12583   5.187   1.809   8.056  0.0883  0.4859  0.2832
  255TP3     H112584   5.199   1.724   8.012 -0.2262  0.6647 -0.1584
  255TP3     H212585   5.094   1.809   8.080 -0.4220  1.5455 -1.5265
  256TP3      O12586   2.830   4.534   8.550  0.1473 -0.2381  0.2115
  256TP3     H112587   2.773   4.464   8.582 -1.7994  1.3479  0.4647
  256TP3     H212588   2.797   4.613   8.595 -0.8907  1.6522 -3.4922
  257TP3      O12589   5.101   0.008   0.010 -0.1624 -0.2154  0.9717
  257TP3     H112590   5.109   0.104   0.006 -0.0870 -0.2020  1.4286
  257TP3     H212591   5.089  -0.018  -0.082 -1.2307  0.3186  0.9472
  258TP3      O12592   5.191   1.630   7.826  0.2548 -0.2354  0.2887
  258TP3     H112593   5.272   1.603   7.869  0.8881  0.9981 -0.0823
  258TP3     H212594   5.194   1.589   7.740  1.3353  1.1374 -0.3696
  259TP3      O12595   1.899   4.383   9.333 -0.4930  0.3612 -0.7440
  259TP3     H112596   1.837   4.451   9.306 -0.2458  0.3190 -1.4444
  259TP3     H212597   1.985   4.422   9.319 -0.3382 -0.3196 -1.7798
  260TP3      O12598   1.995   1.714   2.075 -0.5748 -0.0553  0.6207
  260TP3     H112599   1.963   1.697   1.986 -0.7124  3.8480 -0.2518
  260TP3     H212600   1.926   1.680   2.132 -1.7431 -0.2893 -0.8691
  261TP3      O12601   4.289   4.962   6.604 -0.0777  0.1175  0.1966
  261TP3     H112602   4.372   4.937   6.644 -0.4138 -0.9121  0.2602
  261TP3     H212603   4.292   5.058   6.602  1.5745  0.0810 -0.8062
  262TP3      O12604   1.843   3.966   2.586 -0.4697  0.0164  0.5855
  262TP3     H112605   1.835   3.901   2.656 -0.6136 -0.1194  0.4451
  262TP3     H212606   1.918   4.019   2.611 -0.5139 -0.0387  0.8378
  263TP3      O12607   1.635   2.987   2.423  0.0522 -0.7090 -0.7496
  263TP3     H112608   1.578   2.936   2.480  0.3246 -0.6973 -0.4637
  263TP3     H212609   1.687   2.922   2.376 -0.9988 -0.7713 -1.8788
  264TP3      O12610   4.098   2.543   0.105  0.5418 -0.1148 -0.2806
  264TP3     H112611   4.094   2.463   0.053 -0.3314  0.2739 -0.8383
  264TP3     H212612   4.094   2.513   0.196 -0.6244 -0.6709 -0.4985
  265TP3      O12613   3.581   2.483   3.001 -0.0461 -0.1453 -0.1770
  265TP3     H112614   3.572   2.506   3.093 -0.0033 -1.7730  0.2649
  265TP3     H212615   3.591   2.567   2.956  2.7618  0.5947  1.5976
  266TP3      O12616   4.416   0.093   0.651 -0.2917 -0.0837 -0.4700
  266TP3     H112617   4.471   0.089   0.572 -1.4558 -0.6881 -1.2813
  266TP3     H212618   4.327   0.092   0.618 -0.8121 -0.7134  0.8850
  267TP3      O12619   1.293   4.526   0.226  0.2257 -0.3648  0.2148
  267TP3     H112620   1.315   4.613   0.260  0.4189 -0.7792  1.1999
  267TP3     H212621   1.342   4.465   0.283 -1.5362 -1.2027  0.9037
  268TP3      O12622   3.099   0.591   2.057  0.4377 -0.4234 -0.4462
  268TP3     H112623   3.064   0.620   2.141  1.8476  0.7846 -0.2229
  268TP3     H212624   3.139   0.507   2.076  0.2405 -0.4256 -0.0305
  269TP3      O12625   2.035   0.315   1.528  0.2361  0.1958 -0.0297
  269TP3     H112626   1.940   0.307   1.520  0.2270 -0.5020  0.6327
  269TP3     H212627   2.048   0.381   1.596  0.2564  1.2933 -1.0572
  270TP3      O12628   2.167   4.781   7.199 -0.3174  0.9052 -0.3760
  270TP3     H112629   2.086   4.815   7.161  0.7690  1.6917 -2.0986
  270TP3     H212630   2.237   4.832   7.157  1.1106 -0.1060  0.6660
  271TP3      O12631   1.433   0.850   7.144 -0.8597  0.2580 -0.0224
  271TP3     H112632   1.424   0.790   7.070  2.2759  0.6550 -0.8780
  271TP3     H212633   1.451   0.935   7.104  1.6333  0.3421  1.1233
  272TP3      O12634   1.971   3.606   8.815  0.0610  0.5467  0.0154
  272TP3     H112635   2.043   3.658   8.779  0.8341 -0.6212 -0.1906
  272TP3     H212636   1.920   3.580   8.738  0.0921  0.3932  0.0468
  273TP3      O12637   5.022   2.293   8.344  0.2632  0.8491  0.6965
  273TP3     H112638   5.067   2.260   8.422 -0.2165  0.2730  0.7390
  273TP3     H212639   5.025   2.220   8.282  3.0382  2.1763 -0.8906
  274TP3      O12640   2.389   3.870   9.005  1.0574 -0.7875  0.0847
  274TP3     H112641   2.451   3.931   9.046 -0.5286 -0.5096  2.2967
  274TP3     H212642   2.304   3.894   9.043 -0.6599 -0.4993 -3.5119
  275TP3      O12643   4.410   5.018   1.752  0.7439  0.1882  0.7137
  275TP3     H112644   4.431   4.933   1.714  1.2636 -0.0999  1.6194
  275TP3     H212645   4.482   5.075   1.725  0.3272  0.3977 -0.0075
  276TP3      O12646   4.902   2.200   9.614 -0.3044 -0.6588  0.1335
  276TP3     H112647   4.849   2.255   9.671  0.4919 -0.4279  0.6710
  276TP3     H212648   4.902   2.114   9.657 -0.8011 -0.8396 -0.2256
  277TP3      O12649   1.106   1.289   6.971 -0.3593 -0.4576 -0.5561
  277TP3     H112650   1.128   1.277   6.878  1.4891 -1.7340 -0.0041
  277TP3     H212651   1.088   1.200   7.002  2.3262 -0.5286  1.0425
  278TP3      O12652   2.032   2.476   9.506 -0.2410 -0.0326  0.2138
  278TP3     H112653   2.008   2.449   9.595  1.3717 -1.9731  0.1419
  278TP3     H212654   1.957   2.453   9.452  0.8353 -4.4726  0.2165
  279TP3      O12655   1.927   5.061   2.393 -0.0816  0.3005  0.0373
  279TP3     H112656   1.847   5.094   2.434  1.0676  2.1776  0.9267
  279TP3     H212657   1.897   5.019   2.312 -2.3660 -3.0091  2.3475
  280TP3      O12658   0.114   1.776   7.458  0.4190  0.1449 -0.3074
  280TP3     H112659   0.065   1.782   7.376  0.1519 -0.4014 -0.1885
  280TP3     H212660   0.073   1.839   7.516 -0.0755 -0.2306 -0.2453
  281TP3      O12661   1.114   4.997   1.012 -0.2358  0.2116 -0.5646
  281TP3     H112662   1.076   5.013   1.099  2.0925 -0.6801  0.7022
  281TP3     H212663   1.144   4.906   1.015  0.7069  0.4418 -1.9658
  282TP3      O12664   0.272   1.044   0.099 -0.1306  0.0360  0.5510
  282TP3     H112665   0.300   0.963   0.144  0.7620  0.5388  0.9430
  282TP3     H212666   0.328   1.112   0.137 -0.1262  0.6650 -0.5460
  283TP3      O12667   2.264   2.653   1.141 -0.3151  0.5442 -0.5452
  283TP3     H112668   2.191   2.599   1.112 -0.3879  1.1731 -1.5924
  283TP3     H212669   2.302   2.605   1.215 -1.2130 -0.2400 -0.5768
  284TP3      O12670   3.766   3.626   0.873  0.3024 -0.0026 -0.4531
  284TP3     H112671   3.696   3.678   0.833 -0.8286 -0.9658  0.1854
  284TP3     H212672   3.819   3.689   0.921  2.0612  1.2886 -3.7815
  285TP3      O12673   2.919   0.785   1.165 -0.1174 -0.0970  0.1244
  285TP3     H112674   2.827   0.814   1.161  0.0939  0.5919  0.1404
  285TP3     H212675   2.938   0.754   1.076 -0.8079 -1.6664  0.4859
  286TP3      O12676   1.946   1.882   9.355  0.5384  0.4593  0.3983
  286TP3     H112677   1.869   1.916   9.308  0.3453  0.2695  0.5818
  286TP3     H212678   1.911   1.845   9.436  0.5427 -1.6313 -0.4997
  287TP3      O12679   4.815   0.033   1.033 -0.0462 -0.1757 -0.2624
  287TP3     H112680   4.773   0.040   1.119 -0.9217  0.4982 -0.7257
  287TP3     H212681   4.750   0.067   0.972  0.4520 -0.9176 -1.2342
  288TP3      O12682   1.932   3.615   1.512 -0.3599  0.2018 -0.4218
  288TP3     H112683   1.846   3.576   1.500 -0.0074 -0.7652  0.0544
  288TP3     H212684   1.926   3.701   1.470 -1.6939  0.3504  0.0246
  289TP3      O12685   1.749   3.127   0.095 -0.1733 -0.6134 -0.7858
  289TP3     H112686   1.808   3.051   0.096  0.8950  0.1837 -0.7259
  289TP3     H212687   1.741   3.149   0.002  0.0936 -0.3878 -0.7593
  290TP3      O12688   0.654   0.125   1.056 -0.1235 -0.3395 -0.0642
  290TP3     H112689   0.617   0.183   1.123  1.4750  0.9105 -0.2254
  290TP3     H212690   0.579   0.071   1.028 -1.1384  0.0581  1.7055
  291TP3      O12691   4.726   3.109   2.391 -0.2894 -0.1646 -0.2326
  291TP3     H112692   4.817   3.084   2.410  0.2562  1.2833 -0.7899
  291TP3     H212693   4.733   3.197   2.353 -2.0011  0.3555  0.5726
  292TP3      O12694   1.793   4.022   7.180 -0.0167  0.1759  0.2220
  292TP3     H112695   1.743   3.947   7.149  0.2856  0.0891 -0.0607
  292TP3     H212696   1.837   4.055   7.102  2.2976 -1.1997  0.8549
  293TP3      O12697   1.348   1.140   8.326 -0.1799 -0.2047 -0.2277
  293TP3     H112698   1.419   1.188   8.370  0.7397  0.3925 -2.2005
  293TP3     H212699   1.314   1.081   8.392  1.2119  0.5244  1.2156
  294TP3      O12700   1.470   0.677   8.913  0.3699  0.1338 -0.2357
  294TP3     H112701   1.497   0.719   8.831  1.1773 -0.8204 -0.4804
  294TP3     H212702   1.541   0.617   8.934 -0.8997 -1.4076 -0.1061
  295TP3      O12703   0.110   0.515   0.508  0.2909 -0.5615  0.6668
  295TP3     H112704   0.057   0.556   0.578 -0.1764 -0.8851  0.5065
  295TP3     H212705   0.138   0.589   0.454  1.5877 -0.1773  1.8043
  296TP3      O12706   0.413   5.071   9.680  0.2639  0.5062 -0.4645
  296TP3     H112707   0.358   5.104   9.751 -1.1282 -2.8364  0.2247
  296TP3     H212708   0.480   5.018   9.725  0.3085 -0.3977 -1.5612
  297TP3      O12709   2.584   0.363   2.167 -0.8635  0.2775 -0.4359
  297TP3     H112710   2.624   0.450   2.166  0.0112 -0.0362  1.6917
  297TP3     H212711   2.652   0.304   2.134  0.1964 -0.0971  2.1147
  298TP3      O12712   2.831   0.840   7.422  0.1029 -0.2332 -0.5628
  298TP3     H112713   2.794   0.910   7.369  0.5149 -0.0317 -0.5885
  298TP3     H212714   2.797   0.759   7.384 -2.1091  0.0017  0.7483
  299TP3      O12715   3.675   3.384   9.310  0.0202  0.3657 -0.1991
  299TP3     H112716   3.767   3.384   9.335  0.6467 -2.2667 -2.0201
  299TP3     H212717   3.628   3.361   9.390  1.1648 -0.2624  0.3167
  300TP3      O12718   4.580   3.826   1.048  0.3675 -0.2540  0.5583
  300TP3     H112719   4.611   3.793   1.133  0.5858 -0.3707  0.4330
  300TP3     H212720   4.645   3.795   0.985  1.1162  1.2455  0.5593
  301TP3      O12721   4.654   4.876   1.235 -0.0518  0.1722  0.1616
  301TP3     H112722   4.595   4.845   1.303  0.4153 -1.5661 -0.1540
  301TP3     H212723   4.738   4.837   1.257  1.0428  2.6065  0.6096
  302TP3      O12724   0.291   2.449   2.843  0.2394  0.4325 -0.6821
  302TP3     H112725   0.326   2.413   2.761  0.0212 -0.4161 -0.4118
  302TP3     H212726   0.257   2.372   2.890  0.3940  0.9070  0.2155
  303TP3      O12727   2.701   5.065   7.744 -0.3496 -0.1251 -0.5541
  303TP3     H112728   2.785   5.111   7.738 -0.8474  0.8757 -0.1096
  303TP3     H212729   2.654   5.111   7.813 -0.3875 -2.1226  0.8323
  304TP3      O12730   4.647   1.659   0.246  0.0575 -0.5735 -0.1665
  304TP3     H112731   4.559   1.645   0.211 -0.1198 -0.0798  0.0639
  304TP3     H212732   4.695   1.701   0.174  1.0383 -3.5611 -1.4032
  305TP3      O12733   1.929   2.634   7.701  0.0000  0.3823 -0.4933
  305TP3     H112734   1.975   2.663   7.780  2.1270  0.6509 -1.7553
  305TP3     H212735   1.874   2.709   7.677  1.3258  1.3440 -0.6742
  306TP3      O12736   1.821   0.247   8.434  0.8045  0.0331  0.6736
  306TP3     H112737   1.840   0.252   8.528  2.4415  0.6304  0.3417
  306TP3     H212738   1.888   0.187   8.400 -0.0792 -0.5649 -0.0512
  307TP3      O12739   3.465   3.997   8.142 -0.2911  0.5136  0.3190
  307TP3     H112740   3.500   3.968   8.226 -0.6976  0.5015  0.4865
  307TP3     H212741   3.395   3.934   8.122  0.5839 -0.2066 -0.6038
  308TP3      O12742   4.164   4.888   6.350  0.3764  0.0946 -0.1440
  308TP3     H112743   4.202   4.802   6.333 -1.8647 -0.8833 -0.5690
  308TP3     H212744   4.211   4.920   6.427  0.7565 -1.8378  0.4786
  309TP3      O12745   3.432   3.040   1.818  0.0729  0.4464 -0.0477
  309TP3     H112746   3.411   3.004   1.732 -0.7439  1.0997 -0.1330
  309TP3     H212747   3.351   3.083   1.846  0.8652  1.7469  0.2792
  310TP3      O12748   4.067   3.024   2.369 -0.2783  0.2007 -0.0026
  310TP3     H112749   4.033   3.113   2.380  0.6060  0.3579  1.9761
  310TP3     H212750   4.030   2.975   2.442  0.2374 -0.7261 -0.3490
  311TP3      O12751   1.258   1.937   0.187  0.4265 -0.0239  0.2840
  311TP3     H112752   1.335   1.881   0.202  1.2924  0.8655 -0.6162
  311TP3     H212753   1.221   1.950   0.274  1.2734 -0.5149  0.7395
  312TP3      O12754   2.711   1.937   8.106  0.2001  0.6138  0.1054
  312TP3     H112755   2.742   1.926   8.196 -0.8234  1.3850  0.5729
  312TP3     H212756   2.616   1.930   8.112  0.1335  0.4607 -0.9555
  313TP3      O12757   2.119   1.548   3.298  0.3019  0.0151  0.0325
  313TP3     H112758   2.114   1.644   3.296  0.8465  0.0330 -1.0782
  313TP3     H212759   2.042   1.519   3.250  0.2048 -0.1012  0.2592
  314TP3      O12760   1.522   5.089   1.003 -0.1084  0.0015  0.2155
  314TP3     H112761   1.538   5.083   1.098 -0.4683  0.6412  0.3192
  314TP3     H212762   1.427   5.100   0.995  0.0112  0.8443 -0.1693
  315TP3      O12763   3.462   0.879   9.110  0.3944  0.2152  0.2926
  315TP3     H112764   3.551   0.882   9.075  0.1327 -0.1050 -0.4276
  315TP3     H212765   3.414   0.944   9.059  0.0494 -0.1248  0.1760
  316TP3      O12766   3.706   3.639   0.360  0.1911  0.3921  0.8926
  316TP3     H112767   3.657   3.721   0.361 -0.3964  0.3259 -3.4583
  316TP3     H212768   3.652   3.578   0.411 -0.9496  1.8941  1.5661
  317TP3      O12769   0.268   0.124   1.314  0.3198 -0.0587 -0.0555
  317TP3     H112770   0.220   0.044   1.292  0.2363  0.0672 -0.3343
  317TP3     H212771   0.341   0.094   1.368  0.0264 -0.2706  0.2263
  318TP3      O12772   2.713   0.143   0.123 -0.4587  0.0659 -0.1207
  318TP3     H112773   2.750   0.216   0.172 -0.6169  0.0050  0.0921
  318TP3     H212774   2.621   0.167   0.109 -0.3050  0.2901 -0.7841
  319TP3      O12775   0.456   4.468   0.790 -0.0936 -0.1491  0.2780
  319TP3     H112776   0.512   4.437   0.861  0.3683  1.0714  0.4677
  319TP3     H212777   0.402   4.536   0.830  0.8662  1.2554 -0.7317
  320TP3      O12778   5.105   0.733   1.239  0.2695 -0.2280 -0.5810
  320TP3     H112779   5.111   0.807   1.300 -0.3743 -1.0004  0.4444
  320TP3     H212780   5.194   0.697   1.237  0.5441  0.4552 -0.9457
  321TP3      O12781   4.116   4.610   0.461  0.3252 -0.1814 -0.5073
  321TP3     H112782   4.132   4.614   0.367  2.3662 -0.8562 -0.2504
  321TP3     H212783   4.089   4.519   0.477  2.0833 -0.6987 -0.2239
  322TP3      O12784   4.020   1.628   8.679  0.0598 -0.0704 -0.2605
  322TP3     H112785   4.114   1.644   8.667  0.0288 -0.5948 -1.3171
  322TP3     H212786   4.011   1.533   8.672 -0.5825 -0.0040 -0.4090
  323TP3      O12787   4.972   3.343   8.228 -0.0138 -0.0539  0.1396
  323TP3     H112788   5.048   3.337   8.170 -0.2148 -2.0268 -0.0102
  323TP3     H212789   5.008   3.368   8.313  0.9052 -1.4863  0.1954
  324TP3      O12790   3.948   4.435   2.270 -0.1553  0.1486 -1.0304
  324TP3     H112791   4.018   4.468   2.214  0.1363 -0.2065 -0.8852
  324TP3     H212792   3.918   4.511   2.320  0.6206  0.1709 -0.5731
  325TP3      O12793   3.997   5.106   2.322 -0.0036  0.4972 -0.5724
  325TP3     H112794   3.983   5.151   2.405 -1.4926 -1.6554  0.4300
  325TP3     H212795   3.916   5.119   2.273 -0.1338 -0.3242 -0.6019
  326TP3      O12796   4.799   2.516   8.488 -0.4971 -0.0309  0.5037
  326TP3     H112797   4.858   2.514   8.412  0.4626  4.0399  0.9083
  326TP3     H212798   4.857   2.518   8.564 -1.3715 -0.9657  1.2293
  327TP3      O12799   1.266   4.832   9.867  0.4151 -0.5532 -0.3234
  327TP3     H112800   1.183   4.798   9.901  0.5765  0.2656  0.9248
  327TP3     H212801   1.293   4.766   9.802 -0.7895 -1.2471 -0.1570
  328TP3      O12802   4.038   3.671   3.329  0.2728  1.1149  0.2976
  328TP3     H112803   4.008   3.760   3.350 -0.2117  0.6884  1.4625
  328TP3     H212804   4.093   3.646   3.403 -1.4371 -0.4274  1.1047
  329TP3      O12805   1.158   4.477  10.125  0.4063  0.2027 -0.8539
  329TP3     H112806   1.206   4.499  10.204  2.2333 -0.5217 -1.6967
  329TP3     H212807   1.221   4.492  10.054 -0.5188 -1.0557 -1.9964
  330TP3      O12808   4.341   0.624   9.020 -0.4299 -0.2446 -0.2802
  330TP3     H112809   4.245   0.621   9.022 -0.4949  0.6175 -1.1113
  330TP3     H212810   4.368   0.533   9.024 -1.2217 -0.4506  1.6898
  331TP3      O12811   0.138   3.322   0.015  0.0604  0.5702 -0.5886
  331TP3     H112812   0.064   3.370   0.052 -0.1496  1.7831 -2.4392
  331TP3     H212813   0.103   3.280  -0.063  0.7228 -1.0815 -0.0506
  332TP3      O12814   2.752   4.579   8.913 -0.4542  0.1625  0.1920
  332TP3     H112815   2.663   4.610   8.894 -0.7729 -0.9932 -0.3061
  332TP3     H212816   2.747   4.484   8.901  1.2328  0.2260 -1.3920
  333TP3      O12817   5.009   0.301   2.777 -0.3384 -0.2721 -0.4765
  333TP3     H112818   4.928   0.287   2.726 -0.3387  2.2149 -1.2765
  333TP3     H212819   4.998   0.387   2.817  2.4016  0.7189 -1.6233
  334TP3      O12820   3.696   0.708   9.423 -0.4717 -0.3809  0.0748
  334TP3     H112821   3.733   0.780   9.371 -1.4592  0.9376  1.1472
  334TP3     H212822   3.604   0.706   9.399 -0.6584 -0.6362  0.7930
  335TP3      O12823   2.935   2.660   0.041 -0.0529  0.2163  0.4062
  335TP3     H112824   2.933   2.589  -0.023  1.0154 -3.0770  3.6664
  335TP3     H212825   3.008   2.716   0.013 -0.9550  0.1853 -2.2914
  336TP3      O12826   2.389   4.485   0.411 -0.5151  0.0183  0.3619
  336TP3     H112827   2.415   4.573   0.438 -2.0282  0.6421 -0.1257
  336TP3     H212828   2.464   4.452   0.362 -0.9751  2.2198 -2.0343
  337TP3      O12829   3.584   3.227   8.671 -0.3863 -0.1284  0.2685
  337TP3     H112830   3.657   3.252   8.614 -0.5535  0.0077  0.1110
  337TP3     H212831   3.616   3.151   8.720 -0.9149 -1.4960 -1.4085
  338TP3      O12832   2.183   2.973   1.470  0.1281  0.2738 -0.1138
  338TP3     H112833   2.134   2.927   1.402 -3.1654  1.5497  1.1689
  338TP3     H212834   2.232   3.041   1.423 -0.5576 -0.0786 -1.3814
  339TP3      O12835   0.637   2.555   0.256  0.0800  0.1993  0.9802
  339TP3     H112836   0.599   2.571   0.169 -0.9443 -0.1391  1.3526
  339TP3     H212837   0.730   2.537   0.238 -0.3635 -1.0940 -0.1709
  340TP3      O12838   1.906   1.031   7.406  0.3977 -0.4524  0.2886
  340TP3     H112839   1.954   1.075   7.476  1.2328  0.1908 -0.6711
  340TP3     H212840   1.903   1.094   7.334 -1.0125 -0.8586 -0.0570
  341TP3      O12841   3.558   2.624   8.460  0.1040  0.1090  0.5490
  341TP3     H112842   3.502   2.547   8.468 -0.8954  0.7993  0.3566
  341TP3     H212843   3.643   2.596   8.496  0.0378 -1.3495 -0.3420
  342TP3      O12844   1.979   1.666   0.233  0.5293  0.5511 -0.4266
  342TP3     H112845   2.019   1.672   0.320 -0.7968 -0.3277  0.2627
  342TP3     H212846   1.984   1.756   0.199  2.4252  0.6194 -0.1056
  343TP3      O12847   5.257   2.042   8.404 -0.1319  0.5649 -0.4972
  343TP3     H112848   5.269   2.055   8.498 -1.6733  1.6979 -0.4153
  343TP3     H212849   5.340   2.071   8.365  0.5672 -0.0338  0.4954
  344TP3      O12850   1.006   4.861   8.684 -0.0751  0.1456 -0.2837
  344TP3     H112851   0.965   4.917   8.617 -0.2351 -0.7680 -0.9737
  344TP3     H212852   1.099   4.884   8.681 -0.3509  1.4277  0.4922
  345TP3      O12853   4.147   1.395   8.953  0.1962  0.2637  0.5742
  345TP3     H112854   4.173   1.417   8.864 -1.0763  0.2232  0.1752
  345TP3     H212855   4.168   1.302   8.962 -2.6896 -0.6860 -0.9038
  346TP3      O12856   2.906   2.500   6.745  0.1728  0.1217  0.1586
  346TP3     H112857   2.853   2.579   6.759 -0.8216 -0.5095  0.0527
  346TP3     H212858   2.997   2.531   6.751 -0.1857  1.4406 -0.7424
  347TP3      O12859   2.459   4.694   7.608 -0.3378  0.3896 -0.8982
  347TP3     H112860   2.445   4.665   7.518  0.2052 -0.3585 -0.7521
  347TP3     H212861   2.480   4.613   7.656  1.9543  1.0704 -0.6217
  348TP3      O12862   0.346   3.851   8.601  0.1214  0.1246  0.6151
  348TP3     H112863   0.342   3.773   8.547  0.5560 -1.1305  2.3053
  348TP3     H212864   0.277   3.839   8.666  1.4129  0.1900  2.0599
  349TP3      O12865   1.550   0.119   9.030  1.0264  0.2504 -0.4227
  349TP3     H112866   1.493   0.065   9.085  0.0474  2.0393  0.4059
  349TP3     H212867   1.491   0.184   8.992  2.2642  1.1510 -0.8642
  350TP3      O12868   3.472   3.405   2.627 -0.2184 -0.4854  0.0451
  350TP3     H112869   3.517   3.329   2.591  0.2534  0.4056 -1.3420
  350TP3     H212870   3.412   3.369   2.693  0.4344 -1.9762 -0.1408
  351TP3      O12871   3.441   4.998   8.685  0.2213 -0.1720 -0.5944
  351TP3     H112872   3.446   4.951   8.602 -0.8649 -1.1239 -0.1315
  351TP3     H212873   3.375   5.066   8.670 -0.2391 -0.5731 -0.4098
  352TP3      O12874   3.208   4.628   0.222  0.4132  0.2345  0.4675
  352TP3     H112875   3.264   4.550   0.223  0.6637  0.4121  0.5326
  352TP3     H212876   3.270   4.701   0.213  0.2187  0.4643  0.9893
  353TP3      O12877   2.033   1.370   1.406 -0.1273  0.7635  0.7245
  353TP3     H112878   2.079   1.442   1.364 -0.2677  1.3709  1.5818
  353TP3     H212879   1.976   1.412   1.470 -0.4456 -0.0926  1.0216
  354TP3      O12880   1.769   3.575   0.161  0.4061  0.1778  0.1198
  354TP3     H112881   1.857   3.565   0.126  0.0878  1.2986 -1.1118
  354TP3     H212882   1.729   3.489   0.153  0.5657  0.2353 -1.7777
  355TP3      O12883   1.713   0.016   0.494 -0.3313 -0.0176 -0.2431
  355TP3     H112884   1.677  -0.043   0.428 -0.2107 -0.9705  0.5339
  355TP3     H212885   1.648   0.018   0.563  0.3571 -0.4576  0.4281
  356TP3      O12886   1.071   3.030   2.419  0.6656  0.1440  0.4090
  356TP3     H112887   1.137   3.091   2.386 -0.7333  1.6942  0.3605
  356TP3     H212888   1.044   2.979   2.343 -0.4496  1.7041 -0.2800
  357TP3      O12889   4.540   3.273   7.137 -0.3903  0.1254  0.4110
  357TP3     H112890   4.464   3.314   7.179  1.8951  0.8818  4.3090
  357TP3     H212891   4.591   3.345   7.102 -0.2341 -0.1565  0.0470
  358TP3      O12892   4.538   3.231   1.870 -0.5410 -0.6370 -0.0241
  358TP3     H112893   4.499   3.307   1.913  0.6995  0.6829 -1.1325
  358TP3     H212894   4.540   3.163   1.938 -0.8212  0.6167  1.2737
  359TP3      O12895   1.929   1.047   9.724 -0.3362  0.0957 -0.2714
  359TP3     H112896   1.953   1.086   9.639 -1.5892  0.0356 -0.6818
  359TP3     H212897   1.932   0.953   9.709  1.1423  0.0429  0.2662
  360TP3      O12898   1.753   0.739   8.987 -0.3204 -0.0232  0.0600
  360TP3     H112899   1.811   0.803   8.945 -1.2818  0.7661 -0.0963
  360TP3     H212900   1.716   0.786   9.061  0.3715 -1.0053  1.0583
  361TP3      O12901   4.672   4.139   3.348 -0.4187 -0.5727  0.1887
  361TP3     H112902   4.583   4.122   3.378 -1.0495  0.4430 -0.9867
  361TP3     H212903   4.675   4.234   3.335  0.6585 -0.6615 -0.3117
  362TP3      O12904   0.694   3.903   0.435 -0.2173 -0.3695 -0.4074
  362TP3     H112905   0.679   3.812   0.408 -1.5897 -0.0416 -0.8346
  362TP3     H212906   0.632   3.954   0.382 -0.0884  0.7242  0.4687
  363TP3      O12907   1.845   1.145   2.639 -0.1313 -0.0210  0.1999
  363TP3     H112908   1.782   1.083   2.676  0.3308  0.4632  1.8433
  363TP3     H212909   1.791   1.214   2.601 -0.6080  0.1444  1.1566
  364TP3      O12910   1.528   2.488   0.862 -0.5849 -0.0096 -0.1860
  364TP3     H112911   1.457   2.534   0.818 -1.4520 -0.5711  0.5824
  364TP3     H212912   1.553   2.545   0.935 -0.2277  0.1995 -0.4712
  365TP3      O12913   0.895   0.349   3.394 -0.1179 -0.0015 -0.0297
  365TP3     H112914   0.864   0.278   3.339  1.5721 -1.7479  1.1213
  365TP3     H212915   0.925   0.416   3.333 -0.1752 -0.9950 -1.1802
  366TP3      O12916   4.757   4.752   9.430  0.4815 -0.3558 -0.4634
  366TP3     H112917   4.816   4.690   9.388 -0.3660 -0.3430 -1.7115
  366TP3     H212918   4.789   4.838   9.402  1.0049 -0.2525  0.4045
  367TP3      O12919   0.904   5.000   7.118 -0.6000  0.1682  0.0741
  367TP3     H112920   0.935   5.046   7.040 -2.3819 -0.3957 -1.0160
  367TP3     H212921   0.916   4.908   7.098  0.5699  0.0414  1.2197
  368TP3      O12922   2.965   2.462   3.341 -0.0674  0.0924 -0.2622
  368TP3     H112923   3.007   2.543   3.369  0.6595 -0.8410  1.5550
  368TP3     H212924   2.886   2.456   3.395  0.0760 -0.5710 -0.1179
  369TP3      O12925   2.126   0.044   9.142  0.1829 -0.2857  0.3550
  369TP3     H112926   2.102   0.118   9.198  0.5710  0.0466  0.0895
  369TP3     H212927   2.087   0.065   9.058  0.2916 -0.3830  0.2811
  370TP3      O12928   3.531   4.400   0.494 -0.2990 -0.1435  0.0001
  370TP3     H112929   3.576   4.317   0.477  2.2012  1.3595 -1.2366
  370TP3     H212930   3.524   4.442   0.409  0.4083  1.8070  0.8442
  371TP3      O12931   1.232   1.421   0.929 -0.1037 -0.3884 -0.1256
  371TP3     H112932   1.198   1.334   0.951 -0.1904 -0.4555 -0.5074
  371TP3     H212933   1.159   1.464   0.883 -0.2702  0.1091  0.5907
  372TP3      O12934   1.406   4.488   9.441 -0.1609  0.2287 -0.1277
  372TP3     H112935   1.453   4.409   9.468  0.4729  0.6966  0.1410
  372TP3     H212936   1.315   4.472   9.467  0.2293  0.1929  1.2616
  373TP3      O12937   5.264   0.200   8.928  0.0692  0.2883 -0.4055
  373TP3     H112938   5.209   0.147   8.870 -1.4333 -0.2308  1.4053
  373TP3     H212939   5.212   0.211   9.007  2.0459  0.9402  0.8786
  374TP3      O12940   3.799   4.055   8.335 -0.3432  0.3396  0.7521
  374TP3     H112941   3.853   4.127   8.369  0.4704  0.4861 -0.7656
  374TP3     H212942   3.861   3.996   8.293 -1.1237 -0.7630  1.0813
  375TP3      O12943   5.055   0.566   7.740 -0.4498 -0.0851 -0.1868
  375TP3     H112944   4.974   0.611   7.718 -0.4114  0.0524 -0.0477
  375TP3     H212945   5.038   0.524   7.824 -0.6788 -0.8210 -0.5916
  376TP3      O12946   4.568   1.053   2.467  0.3615 -0.4894  0.4617
  376TP3     H112947   4.480   1.025   2.492 -0.1052  1.4851  1.2251
  376TP3     H212948   4.597   1.108   2.539  1.5362  0.2485 -0.5349
  377TP3      O12949   3.678   1.457   0.026  0.3883  0.3843 -0.2917
  377TP3     H112950   3.642   1.541   0.052  1.4667  0.4468  1.1526
  377TP3     H212951   3.602   1.401   0.009 -0.3308  1.3727 -0.3721
  378TP3      O12952   0.782   3.274   9.713 -0.4639 -0.1636  0.2307
  378TP3     H112953   0.701   3.232   9.743  0.7921 -1.5916  1.8639
  378TP3     H212954   0.839   3.202   9.690  0.8959  0.7320  0.6744
  379TP3      O12955   0.410   0.498   6.947 -0.6338 -0.0050  0.6230
  379TP3     H112956   0.419   0.403   6.951  1.1298  0.0781 -0.1870
  379TP3     H212957   0.426   0.528   7.037 -0.0571 -0.4259  0.6680
  380TP3      O12958   4.261   3.613   8.006  0.4318  0.3116  0.1893
  380TP3     H112959   4.219   3.534   8.039  1.1925 -0.2428 -0.1743
  380TP3     H212960   4.277   3.666   8.084  0.1258  0.0226  0.4522
  381TP3      O12961   4.236   3.145  10.056 -0.6463 -0.0492  0.6703
  381TP3     H112962   4.278   3.114   9.976 -0.7197  2.0597 -0.2474
  381TP3     H212963   4.146   3.163  10.031 -0.8448  0.0089  1.3942
  382TP3      O12964   3.227   3.094   0.624 -0.3553 -0.3065 -0.6281
  382TP3     H112965   3.182   3.037   0.562 -1.4423  0.7281 -0.8216
  382TP3     H212966   3.164   3.163   0.644  0.7413  0.5571 -0.0174
  383TP3      O12967   0.866   2.744  10.078  0.3160  0.4377 -0.0228
  383TP3     H112968   0.863   2.683  10.152  3.6098 -0.7384 -0.7184
  383TP3     H212969   0.882   2.689  10.002 -0.3988  1.8878 -1.2858
  384TP3      O12970   2.787   2.901   9.946 -0.8322 -0.2762 -0.3220
  384TP3     H112971   2.881   2.920   9.941 -1.3409  2.3623 -3.0214
  384TP3     H212972   2.773   2.871  10.036  2.2072  1.6670  0.9537
  385TP3      O12973   2.701   2.991   2.125 -0.1688  0.1804  0.6645
  385TP3     H112974   2.632   3.007   2.060  0.0715  1.4228  0.6880
  385TP3     H212975   2.742   2.910   2.096 -0.2417  0.5601 -0.5925
  386TP3      O12976   3.157   2.560   2.287 -0.1590  0.0961 -0.0400
  386TP3     H112977   3.138   2.610   2.366 -0.1144  2.1453 -1.2498
  386TP3     H212978   3.248   2.582   2.266  0.1419 -1.1824 -0.1541
  387TP3      O12979   4.925   1.844   8.129 -0.2799 -0.0189 -0.4083
  387TP3     H112980   4.838   1.830   8.091  0.7417  1.0822 -3.4669
  387TP3     H212981   4.917   1.927   8.176 -1.3088 -0.8869  1.0455
  388TP3      O12982   3.978   1.164   7.062 -0.2252 -0.2225 -0.7332
  388TP3     H112983   3.991   1.101   7.132 -1.4190  0.2433 -0.0605
  388TP3     H212984   3.933   1.115   6.994 -2.3564  0.1667  0.3213
  389TP3      O12985   3.072   2.991   0.979  0.1507  0.6835 -0.2047
  389TP3     H112986   3.087   2.964   1.070  3.0942  1.9076 -0.2320
  389TP3     H212987   3.030   2.915   0.939 -2.6068  0.5931  2.4199
  390TP3      O12988   0.153   0.563   2.168 -0.1317  0.1127  0.1896
  390TP3     H112989   0.215   0.635   2.163 -0.6836  0.5705 -0.0929
  390TP3     H212990   0.076   0.599   2.211  0.0638 -0.6490  1.2133
  391TP3      O12991   0.997   3.853   2.328  0.0282 -0.6965  0.1861
  391TP3     H112992   0.924   3.892   2.279  0.2022 -0.5933  0.0091
  391TP3     H212993   1.075   3.890   2.288  0.1558 -0.1812  0.9069
  392TP3      O12994   4.457   1.215   0.754  0.2619 -0.2255 -0.2521
  392TP3     H112995   4.397   1.227   0.828 -1.6948 -1.9395 -1.4443
  392TP3     H212996   4.481   1.122   0.757  0.7010 -0.1690 -1.3547
  393TP3      O12997   2.631   2.975   0.330 -0.3295 -0.4211  0.0842
  393TP3     H112998   2.559   2.914   0.342  0.2261 -0.8895  1.1832
  393TP3     H212999   2.710   2.923   0.345  0.1570  0.5829  1.1898
  394TP3      O13000   1.176   4.816   3.013  0.6154 -0.8378 -0.2222
  394TP3     H113001   1.210   4.806   2.924  2.0729 -0.0186  0.2073
  394TP3     H213002   1.156   4.727   3.041  0.1808 -1.1146 -1.3326
  395TP3      O13003   2.992   5.186  10.087 -0.0999 -0.1982  0.6857
  395TP3     H113004   2.954   5.168  10.173 -0.2000  0.3125  0.7499
  395TP3     H213005   3.050   5.112  10.071 -2.1684 -1.7763 -0.0432
  396TP3      O13006   1.418   2.654   2.531  0.1578 -0.9289 -0.0480
  396TP3     H113007   1.410   2.747   2.512  3.0968  0.0339  2.5501
  396TP3     H213008   1.478   2.621   2.464 -0.8969 -0.9956 -0.9793
  397TP3      O13009   0.312   2.551   1.161 -0.0550  0.0553  0.2559
  397TP3     H113010   0.392   2.596   1.135  0.0952  0.1699  0.9051
  397TP3     H213011   0.252   2.621   1.187  0.0556 -0.1007  0.9290
  398TP3      O13012   1.207   1.543   3.549 -0.2496  0.3890 -0.3346
  398TP3     H113013   1.211   1.635   3.522  2.1363  0.7122  0.8966
  398TP3     H213014   1.256   1.496   3.481  1.4288  0.5368  0.7098
  399TP3      O13015   4.084   0.867   1.682 -0.1063 -0.3700  0.0739
  399TP3     H113016   4.032   0.797   1.642 -0.3924 -0.8228  1.1954
  399TP3     H213017   4.030   0.898   1.755 -0.0886  1.2000 -0.5348
  400TP3      O13018   1.028   2.073   1.959  0.0277  0.1302 -0.6580
  400TP3     H113019   0.960   2.139   1.973 -1.6966 -1.5695 -0.5122
  400TP3     H213020   1.065   2.095   1.873 -0.0894  1.5967 -0.3648
  401TP3      O13021   3.415   3.737   9.641 -0.1995 -0.1527  0.3180
  401TP3     H113022   3.367   3.683   9.577  2.5887 -1.6310 -0.7276
  401TP3     H213023   3.379   3.712   9.726 -1.0261 -1.4401 -0.3796
  402TP3      O13024   3.737   1.342   8.175 -0.7592  0.4672  0.0218
  402TP3     H113025   3.821   1.356   8.132 -0.6053 -0.1614  0.1121
  402TP3     H213026   3.678   1.311   8.106 -0.6381 -0.0874  0.1642
  403TP3      O13027   0.058   1.290   0.144  0.6489  0.0114 -0.4246
  403TP3     H113028   0.139   1.279   0.193  0.3302  0.9423  0.3210
  403TP3     H213029  -0.003   1.230   0.186  1.0287 -0.9594 -1.2140
  404TP3      O13030   2.251   3.150   0.672  0.3049  0.6101  0.0072
  404TP3     H113031   2.208   3.132   0.589  0.8834 -1.4125  0.1086
  404TP3     H213032   2.200   3.223   0.710 -1.1471  0.2820 -1.2196
  405TP3      O13033   4.212   3.473   0.914  0.0718 -0.6981 -0.5761
  405TP3     H113034   4.272   3.417   0.964 -0.3967 -1.0238 -0.3765
  405TP3     H213035   4.158   3.412   0.864 -0.8707 -0.4631  0.1238
  406TP3      O13036   4.757   5.171   2.409  0.0524  0.7418  0.0745
  406TP3     H113037   4.826   5.105   2.403 -0.5589  0.0922  0.0921
  406TP3     H213038   4.801   5.253   2.390  1.0014  0.4383  0.8535
  407TP3      O13039   0.298   4.810   2.903  0.2667 -0.0065  0.6785
  407TP3     H113040   0.319   4.832   2.994 -0.3917  0.4313  0.7326
  407TP3     H213041   0.244   4.731   2.909  2.2404 -1.4342  0.5111
  408TP3      O13042   4.689   3.739   1.270  0.0578 -0.1466  0.0156
  408TP3     H113043   4.691   3.654   1.314  0.9188 -0.0256  0.2289
  408TP3     H213044   4.698   3.803   1.342 -1.0606  0.1451 -0.0939
  409TP3      O13045   1.379   0.042   0.512 -0.2722  0.8671 -0.6292
  409TP3     H113046   1.390   0.113   0.449  1.9343  2.5832  1.5136
  409TP3     H213047   1.420   0.074   0.592  0.0100 -2.5018  0.7388
  410TP3      O13048   2.256   2.653   6.856  0.5786  0.0276  0.2254
  410TP3     H113049   2.293   2.712   6.790 -1.0295  0.9371  0.0772
  410TP3     H213050   2.262   2.566   6.816 -2.3132  0.7758 -2.1722
  411TP3      O13051   0.590   1.252   1.215 -0.3022 -0.1890  0.0052
  411TP3     H113052   0.500   1.219   1.222 -0.6648  0.8299  0.2773
  411TP3     H213053   0.596   1.289   1.127 -0.0764 -0.4398 -0.0877
  412TP3      O13054   0.942   3.987  10.062 -0.8822  0.2483 -0.0756
  412TP3     H113055   0.848   3.970  10.069 -0.7958 -0.3198 -0.2456
  412TP3     H213056   0.983   3.901  10.069 -0.4533  0.3131 -1.4635
  413TP3      O13057   3.526   0.664   0.855 -0.4755  0.0625  0.0021
  413TP3     H113058   3.482   0.609   0.790  0.1288 -0.1385 -0.2385
  413TP3     H213059   3.501   0.754   0.832 -0.8553 -0.0561 -0.0591
  414TP3      O13060   5.111   4.236   7.740 -0.4934  0.2392 -0.2268
  414TP3     H113061   5.057   4.210   7.666 -0.3326  0.7312 -0.5204
  414TP3     H213062   5.154   4.316   7.712  0.1956 -0.0065  0.1009
  415TP3      O13063   1.390   0.189   1.879  0.0003 -0.2330 -0.6143
  415TP3     H113064   1.318   0.130   1.857 -0.9008  0.6784 -0.2042
  415TP3     H213065   1.362   0.274   1.844  1.1396  0.0236 -0.9501
  416TP3      O13066   4.191   2.716   2.036 -0.7064  0.1280  0.5980
  416TP3     H113067   4.161   2.792   2.085 -2.0605  1.6755 -2.3086
  416TP3     H213068   4.118   2.653   2.041 -0.3616 -0.2102  1.4689
  417TP3      O13069   0.578   3.263   1.487 -0.6307  0.1619 -0.3255
  417TP3     H113070   0.485   3.255   1.466 -0.4279  0.3427 -1.3327
  417TP3     H213071   0.587   3.349   1.528 -0.8568  0.2498 -0.4641
  418TP3      O13072   2.492   3.965   3.315 -0.2248  0.4203 -0.4530
  418TP3     H113073   2.463   3.954   3.405  1.4902 -0.7307 -0.0065
  418TP3     H213074   2.543   4.046   3.316 -1.7673  1.4527 -0.8520
  419TP3      O13075   3.048   1.405   8.006  0.7077  0.4919  0.2004
  419TP3     H113076   3.089   1.469   8.065  1.2002 -1.4427  2.0639
  419TP3     H213077   2.955   1.427   8.009  1.0471  2.3078 -0.7730
  420TP3      O13078   2.953   0.161   1.100  0.0802  0.4205  0.2505
  420TP3     H113079   3.030   0.135   1.151 -0.6130 -0.2264  0.9967
  420TP3     H213080   2.937   0.252   1.126  0.6764  0.6174 -0.0379
  421TP3      O13081   1.702   2.389   0.171  0.2281  0.3356  0.7040
  421TP3     H113082   1.729   2.361   0.083 -0.5986 -2.6128  1.3068
  421TP3     H213083   1.625   2.443   0.156 -1.4811 -2.2085 -0.3664
  422TP3      O13084   4.372   4.419   1.392 -0.0168 -0.7792 -0.2478
  422TP3     H113085   4.412   4.337   1.360 -0.4147 -0.3532 -1.9496
  422TP3     H213086   4.411   4.487   1.338  0.6451  0.2549  1.4576
  423TP3      O13087   3.211   1.941   1.966 -0.1972 -0.2573  0.3923
  423TP3     H113088   3.230   2.012   2.027  3.2146 -0.8995  0.2527
  423TP3     H213089   3.171   1.984   1.890  0.9493  1.3998  0.6865
  424TP3      O13090   1.464   2.547   0.100 -0.1404  0.2126  0.6837
  424TP3     H113091   1.457   2.629   0.051  0.0652  0.2044  0.6374
  424TP3     H213092   1.375   2.513   0.104 -0.1949  0.3373  0.5300
  425TP3      O13093   0.807   3.115   0.242  0.4543 -0.8221  0.5812
  425TP3     H113094   0.735   3.053   0.253 -0.6208  0.2865 -0.0197
  425TP3     H213095   0.840   3.097   0.154  0.7625 -1.1685  0.7654
  426TP3      O13096   3.013   1.838   9.163  0.1177 -0.1303  0.2694
  426TP3     H113097   2.930   1.854   9.208  0.5219  1.9155  0.3913
  426TP3     H213098   3.044   1.756   9.200 -0.8161  0.1618  1.8477
  427TP3      O13099   4.293   1.430   2.636  0.3657  0.0770 -0.2355
  427TP3     H113100   4.257   1.396   2.554  3.0026 -1.1626 -0.9851
  427TP3     H213101   4.239   1.507   2.655  0.6475  1.4587 -4.0751
  428TP3      O13102   3.150   1.295   0.086  0.0102  0.7480  0.5364
  428TP3     H113103   3.210   1.222   0.071  0.1308  1.0858 -0.7185
  428TP3     H213104   3.072   1.272   0.034 -0.4055  0.9646  1.0583
  429TP3      O13105   2.389   3.782   3.160  0.4964 -0.2128  0.2916
  429TP3     H113106   2.419   3.851   3.219 -2.2072  0.9758  0.4029
  429TP3     H213107   2.392   3.702   3.213 -1.7331  0.8107  2.0700
  430TP3      O13108   3.467   0.038   1.211 -0.1151 -0.3745  0.2422
  430TP3     H113109   3.468   0.035   1.116 -0.2071 -1.7424  0.2628
  430TP3     H213110   3.529   0.106   1.234 -0.5563  0.4012 -0.8014
  431TP3      O13111   2.237   4.435   0.900  0.9220 -0.4744 -0.1144
  431TP3     H113112   2.268   4.429   0.809  4.1079 -3.0822  0.9509
  431TP3     H213113   2.317   4.446   0.951 -0.5440 -1.4394  2.5477
  432TP3      O13114   3.678   2.447   2.456 -0.3444  0.0045  0.7641
  432TP3     H113115   3.596   2.401   2.476 -0.2826 -0.8270 -0.7235
  432TP3     H213116   3.657   2.500   2.379  0.4045  0.1374  0.6490
  433TP3      O13117   4.216   1.422   1.092 -0.7730  0.5677 -0.0823
  433TP3     H113118   4.139   1.460   1.050 -2.1540  0.7887  2.3890
  433TP3     H213119   4.188   1.333   1.116  0.4358 -0.0334 -0.8076
  434TP3      O13120   5.206   5.244   7.817  0.3069 -0.2452  1.3274
  434TP3     H113121   5.290   5.271   7.781 -0.6497 -0.9138 -1.6587
  434TP3     H213122   5.152   5.322   7.814 -0.7802 -0.9501 -2.1342
  435TP3      O13123   1.944   0.462   1.779  0.4313  0.1212 -0.0723
  435TP3     H113124   2.039   0.470   1.780  0.6123 -1.2494 -1.8955
  435TP3     H213125   1.918   0.501   1.695 -0.2900 -2.1067 -0.9464
  436TP3      O13126   4.556   2.477   8.355  0.6101  0.3998 -0.4735
  436TP3     H113127   4.478   2.465   8.410  1.2347 -2.2532 -0.0387
  436TP3     H213128   4.624   2.505   8.416  0.7211 -0.2745 -0.2742
  437TP3      O13129   1.655   4.762   8.174  0.6767  0.0269 -0.3422
  437TP3     H113130   1.593   4.718   8.115 -0.0850 -0.8405  1.0714
  437TP3     H213131   1.646   4.855   8.151 -0.7170 -0.1412 -0.5888
  438TP3      O13132   3.268   3.507   9.475  0.2591  0.4818 -0.1281
  438TP3     H113133   3.178   3.513   9.506 -0.2460  0.6939 -1.5469
  438TP3     H213134   3.260   3.501   9.380  1.7353  0.1682 -0.2581
  439TP3      O13135   4.063   5.140   1.680  0.0189  0.5694  0.0501
  439TP3     H113136   4.085   5.058   1.724  0.0867  1.3237  1.4862
  439TP3     H213137   4.000   5.115   1.612 -0.8544 -0.5197  1.2176
  440TP3      O13138   4.073   3.721   1.098 -0.0237  0.1734 -0.4038
  440TP3     H113139   3.988   3.705   1.056 -0.8167 -2.9469  2.0376
  440TP3     H213140   4.127   3.646   1.071  1.7504  1.6821 -1.2428
  441TP3      O13141   4.125   2.748   0.438 -0.3430 -0.0752 -0.5338
  441TP3     H113142   4.133   2.732   0.532  0.7189  0.2227 -0.5651
  441TP3     H213143   4.210   2.723   0.402 -1.0494 -1.1043 -1.5598
  442TP3      O13144   2.468   1.095   0.630 -0.0846 -0.1576 -0.0271
  442TP3     H113145   2.482   1.089   0.724 -1.9829 -1.3055  0.2408
  442TP3     H213146   2.516   1.173   0.603 -2.2360  2.2359  2.4615
  443TP3      O13147   0.987   5.094   1.886 -0.5453 -0.0528  0.0933
  443TP3     H113148   1.080   5.070   1.883 -0.4843  0.2612 -0.9374
  443TP3     H213149   0.941   5.012   1.868 -0.5254 -0.4729  1.8402
  444TP3      O13150   5.170   5.037   8.719 -0.1100 -0.4916  0.1290
  444TP3     H113151   5.103   4.968   8.714 -0.5517  0.0204 -1.9728
  444TP3     H213152   5.186   5.061   8.628  0.3024  1.9365  0.7793
  445TP3      O13153   3.189   3.310   0.950 -0.3204 -0.5475 -0.2216
  445TP3     H113154   3.169   3.218   0.935 -1.8798 -0.5114  1.3205
  445TP3     H213155   3.158   3.327   1.039  1.7630  0.9820  0.2828
  446TP3      O13156   4.189   0.593   1.022  0.3611  0.0142  0.0013
  446TP3     H113157   4.220   0.643   0.947  0.8819 -1.3425 -0.7265
  446TP3     H213158   4.267   0.548   1.055  0.2908  1.1452  1.8246
  447TP3      O13159   3.954   1.089   7.631  0.0036  0.2170 -0.2568
  447TP3     H113160   3.925   1.088   7.540  3.0833 -0.9504 -1.3785
  447TP3     H213161   3.880   1.125   7.680 -1.2105  2.3798 -3.3847
  448TP3      O13162   2.279   3.422   7.967 -0.8196 -0.0069 -0.3309
  448TP3     H113163   2.287   3.359   8.039  0.2138  0.9457  0.4205
  448TP3     H213164   2.278   3.367   7.889 -0.5884 -1.0054  0.3373
  449TP3      O13165   4.142   2.385   2.968 -0.3286 -0.3868  0.0840
  449TP3     H113166   4.162   2.292   2.977 -0.5150 -0.2968  1.7314
  449TP3     H213167   4.055   2.395   3.006 -0.3214  0.4540 -0.0989
  450TP3      O13168   3.930   1.576   7.559 -0.3451  0.0796 -0.4267
  450TP3     H113169   3.860   1.626   7.601 -1.5047  0.1320 -2.3130
  450TP3     H213170   3.949   1.624   7.478  1.4148 -0.3119 -0.2932
  451TP3      O13171   3.782   0.288   9.794 -0.0332 -0.3638 -0.3189
  451TP3     H113172   3.759   0.350   9.724 -0.5033 -1.3413 -1.0611
  451TP3     H213173   3.710   0.295   9.857  1.2475  1.8176  1.0245
  452TP3      O13174   4.109   1.399   8.121 -0.0084  0.1664  0.3111
  452TP3     H113175   4.093   1.370   8.211  0.8795 -0.4505  0.2932
  452TP3     H213176   4.065   1.333   8.067 -0.5990  0.5747  0.2967
  453TP3      O13177   0.637   3.394   7.473 -0.1941 -0.1664  0.1866
  453TP3     H113178   0.649   3.438   7.389  1.6995  1.8372  1.4008
  453TP3     H213179   0.621   3.303   7.450 -1.7552  0.6488 -2.3832
  454TP3      O13180   4.686   2.843   0.471 -0.2072 -0.1480 -0.2114
  454TP3     H113181   4.710   2.812   0.384  1.8006 -0.0041  0.2387
  454TP3     H213182   4.690   2.765   0.527  1.5835  0.2700  0.3001
  455TP3      O13183   0.432   0.345   7.498 -0.1242 -0.1077  0.1142
  455TP3     H113184   0.365   0.411   7.519  2.1185  2.4238 -0.0639
  455TP3     H213185   0.422   0.329   7.404 -2.0880 -1.8082  0.5456
  456TP3      O13186   2.462   3.563   6.813  0.3394  0.5643 -0.4862
  456TP3     H113187   2.457   3.658   6.822  0.3615  0.4961  0.3012
  456TP3     H213188   2.375   3.537   6.785  0.3495  0.8204 -0.7629
  457TP3      O13189   2.280   3.534   2.071  0.4619  0.1965  0.0994
  457TP3     H113190   2.346   3.500   2.011 -0.7878 -1.3475 -0.4956
  457TP3     H213191   2.198   3.492   2.043 -0.6314  1.4013  1.3025
  458TP3      O13192   4.325   0.321   0.435  0.2503  0.4874  0.0522
  458TP3     H113193   4.279   0.386   0.382  0.0043  0.4838  0.2645
  458TP3     H213194   4.418   0.345   0.427  0.2854  0.1003 -0.9156
  459TP3      O13195   4.912   0.289   2.118 -0.0405  0.0426 -0.2427
  459TP3     H113196   4.922   0.194   2.116 -0.3143  0.0054  0.1540
  459TP3     H213197   4.819   0.304   2.105 -0.3997  0.1524  1.9821
  460TP3      O13198   3.572   3.471   8.808 -0.4316 -0.4789  0.5426
  460TP3     H113199   3.572   3.389   8.758  1.2632  0.1186 -0.5522
  460TP3     H213200   3.657   3.473   8.851  0.5164  1.6555 -1.2238
  461TP3      O13201   2.688   3.695   3.068  0.1978  0.5634 -0.3103
  461TP3     H113202   2.684   3.718   2.975  0.7281 -0.1775 -0.5329
  461TP3     H213203   2.597   3.675   3.092  0.0836  0.5929 -0.7184
  462TP3      O13204   2.132   3.396   1.034 -0.5422  0.2946  0.4606
  462TP3     H113205   2.042   3.428   1.038 -0.6549 -0.0462  0.7888
  462TP3     H213206   2.138   3.352   0.950 -0.0025  2.2589 -0.5855
  463TP3      O13207   0.863   4.182   9.150  0.2025  0.0432  0.2250
  463TP3     H113208   0.940   4.146   9.195  0.0790 -1.6768 -0.8305
  463TP3     H213209   0.893   4.198   9.061 -0.5112 -0.1396 -0.0537
  464TP3      O13210   0.263   2.191   2.410 -0.1251 -0.2732 -0.1178
  464TP3     H113211   0.173   2.217   2.391  0.8647  2.6258 -1.4394
  464TP3     H213212   0.280   2.225   2.498 -1.3385 -4.1608  1.8457
  465TP3      O13213   0.910   0.907   1.160  0.2458  0.2459  0.5589
  465TP3     H113214   0.916   0.816   1.188  0.9702  0.1707  0.1916
  465TP3     H213215   0.850   0.906   1.086  0.2468  0.0634  0.5608
  466TP3      O13216   5.096   1.393   8.314 -0.2551  0.2640  0.1892
  466TP3     H113217   5.052   1.334   8.374  0.3866 -0.6858 -0.2494
  466TP3     H213218   5.034   1.465   8.302 -0.9099 -0.1424  0.9936
  467TP3      O13219   3.449   0.247   2.299 -0.2615  0.3609 -0.3924
  467TP3     H113220   3.392   0.230   2.373  0.3751 -1.7561 -0.3259
  467TP3     H213221   3.402   0.211   2.223  0.4346 -0.3438 -0.5100
  468TP3      O13222   0.260   2.844   3.780 -0.0418 -0.4797 -0.0842
  468TP3     H113223   0.306   2.928   3.776 -1.0333  0.1130  0.5739
  468TP3     H213224   0.264   2.811   3.690  1.0517 -0.1210 -0.1851
  469TP3      O13225   1.492   0.273   2.350  0.1664  0.4017 -0.3033
  469TP3     H113226   1.424   0.285   2.415  1.2272  0.1269  0.8966
  469TP3     H213227   1.554   0.345   2.366 -0.0439  0.9226 -1.6712
  470TP3      O13228   0.953   2.962   2.042 -0.0952 -0.4200  0.1962
  470TP3     H113229   0.877   2.904   2.044 -0.8181  0.4522 -0.7523
  470TP3     H213230   0.917   3.047   2.015  0.9005  0.5143  1.6172
  471TP3      O13231   3.585   1.084   9.250  0.1159  0.0023  0.2352
  471TP3     H113232   3.526   1.124   9.186 -0.2205  1.2192  1.2584
  471TP3     H213233   3.561   0.991   9.250 -1.0378  0.2867 -0.1562
  472TP3      O13234   1.551   0.926   0.750 -0.3650 -0.2142 -0.1791
  472TP3     H113235   1.555   0.979   0.830  1.7571 -0.3571 -0.1150
  472TP3     H213236   1.640   0.932   0.714 -0.8838 -1.3509 -1.7516
  473TP3      O13237   0.405   0.630   8.642 -0.1670  0.2239 -0.0277
  473TP3     H113238   0.369   0.718   8.629 -0.1069  0.3910  0.8760
  473TP3     H213239   0.478   0.625   8.581 -0.3159  0.7184 -0.2520
  474TP3      O13240   1.398   0.591   8.502  0.8856  0.0336  0.5890
  474TP3     H113241   1.485   0.623   8.525 -0.1202  1.9061  2.1290
  474TP3     H213242   1.338   0.652   8.546 -1.2050 -1.6000  0.1700
  475TP3      O13243   3.373   3.054   2.389  0.0188 -0.2169 -0.6826
  475TP3     H113244   3.298   3.047   2.448 -0.1838 -0.0668 -0.9209
  475TP3     H213245   3.339   3.098   2.311  0.6129  0.8387 -0.3554
  476TP3      O13246   4.025   5.219   0.061  0.4568 -0.4047  0.3348
  476TP3     H113247   4.026   5.227   0.156 -0.0998 -0.5607  0.3583
  476TP3     H213248   3.933   5.203   0.039  0.5573 -0.2263 -0.2397
  477TP3      O13249   4.158   4.449   7.271 -0.2901 -0.5090  0.0700
  477TP3     H113250   4.111   4.366   7.272  1.1725 -1.3719 -0.1767
  477TP3     H213251   4.250   4.425   7.285  0.1004  1.1113  0.5241
  478TP3      O13252   0.862   0.805   7.239 -1.0005  0.0975 -0.0650
  478TP3     H113253   0.783   0.772   7.197 -1.4964 -0.4958  1.2651
  478TP3     H213254   0.866   0.758   7.322  0.9911 -0.2036 -0.2780
  479TP3      O13255   4.952   0.686   8.411 -0.2328  0.3349 -0.1656
  479TP3     H113256   4.870   0.723   8.378  0.5228  1.7299 -0.5799
  479TP3     H213257   4.989   0.639   8.337 -0.2627  0.4196 -0.2338
  480TP3      O13258   1.346   3.534   1.112  0.7839 -0.2856  0.4178
  480TP3     H113259   1.320   3.458   1.060  1.6621 -0.9504  0.9245
  480TP3     H213260   1.264   3.580   1.129 -0.2099 -2.5606  2.3956
  481TP3      O13261   4.320   4.739   1.623 -0.1296 -0.4208  0.3098
  481TP3     H113262   4.275   4.769   1.702  0.8086  0.1668  0.6377
  481TP3     H213263   4.249   4.712   1.564 -1.1289  2.8563 -0.2119
  482TP3      O13264   4.409   1.645   8.085  0.2367 -0.2111 -0.0839
  482TP3     H113265   4.351   1.657   8.160 -0.7671 -1.1112 -0.6930
  482TP3     H213266   4.367   1.577   8.032  1.3280 -0.1595 -1.0679
  483TP3      O13267   0.166   3.529   7.198 -0.0937  0.7504 -0.7614
  483TP3     H113268   0.106   3.481   7.141 -1.6596  0.7662  0.8135
  483TP3     H213269   0.250   3.527   7.151 -1.2421  0.5634 -2.9236
  484TP3      O13270   1.871   4.602   1.530  0.5640  0.0557  0.3288
  484TP3     H113271   1.881   4.670   1.597 -0.4657  1.8353 -1.2298
  484TP3     H213272   1.948   4.613   1.474 -0.1977  0.7659 -0.6008
  485TP3      O13273   3.812   4.444   8.655 -0.1124  0.4932 -0.2929
  485TP3     H113274   3.742   4.509   8.656  1.4715  2.3389 -1.4316
  485TP3     H213275   3.779   4.373   8.601 -0.1329  2.6082 -3.3102
  486TP3      O13276   3.125   0.608   1.314  0.4318 -0.4952 -0.0074
  486TP3     H113277   3.073   0.675   1.270  0.8249  1.6186  2.4416
  486TP3     H213278   3.212   0.616   1.275  0.2499 -0.1874 -0.3592
  487TP3      O13279   3.599   3.802   0.774  0.3897  0.0016 -0.3754
  487TP3     H113280   3.515   3.811   0.729 -0.1536  0.0725  0.6253
  487TP3     H213281   3.662   3.844   0.716 -0.5656  1.5941 -0.3122
  488TP3      O13282   3.196   0.548   8.156 -0.3498 -0.2004  0.0550
  488TP3     H113283   3.129   0.498   8.202  0.5547 -0.6703  0.8878
  488TP3     H213284   3.223   0.615   8.218 -1.0036  0.8700 -0.7767
  489TP3      O13285   2.664   1.234   1.870 -0.7841  0.1898  0.3661
  489TP3     H113286   2.742   1.245   1.814 -0.4006  0.2796  0.9148
  489TP3     H213287   2.591   1.248   1.810 -0.3873 -0.1794 -0.2266
  490TP3      O13288   2.887   0.413   1.178  0.3309 -0.2705 -0.0960
  490TP3     H113289   2.838   0.385   1.100 -0.6451  0.0816  0.3678
  490TP3     H213290   2.937   0.489   1.150  0.2497 -0.3570 -0.4738
  491TP3      O13291   1.701   5.135   9.542 -0.5632 -0.0350 -0.0071
  491TP3     H113292   1.624   5.124   9.597  1.7613  0.7080  3.7307
  491TP3     H213293   1.759   5.063   9.566  0.6746  0.4516 -1.3691
  492TP3      O13294   1.578   3.675   1.895 -0.4183 -0.2267  0.0791
  492TP3     H113295   1.567   3.769   1.880  0.7675  0.2776  2.0601
  492TP3     H213296   1.660   3.654   1.851 -0.8534 -0.4325 -0.6535
  493TP3      O13297   1.700   4.509   2.956 -0.7083 -0.6644  0.3621
  493TP3     H113298   1.725   4.558   2.877  0.0023  0.0611  1.0189
  493TP3     H213299   1.605   4.521   2.962 -1.0380 -2.0962 -1.2673
  494TP3      O13300   2.119   4.908   8.850  0.6017 -0.0784  0.4665
  494TP3     H113301   2.194   4.875   8.799 -0.5005  0.5238 -1.6709
  494TP3     H213302   2.050   4.919   8.785 -1.8960 -2.0609  2.5930
  495TP3      O13303   0.780   3.450   7.953  0.3888  0.2561 -0.2458
  495TP3     H113304   0.697   3.427   7.996  0.9164  0.7472  1.0949
  495TP3     H213305   0.772   3.543   7.934  0.2328  0.0781 -1.0736
  496TP3      O13306   0.433   4.361   1.483 -0.6206 -0.2226 -0.3778
  496TP3     H113307   0.406   4.288   1.539 -2.5432  0.2422 -0.6480
  496TP3     H213308   0.434   4.437   1.540  0.2692 -0.2339 -0.3568
  497TP3      O13309   1.030   3.946   7.084 -0.2323  0.2503  0.2539
  497TP3     H113310   1.067   4.033   7.070 -0.4422  0.3338  0.2171
  497TP3     H213311   1.083   3.888   7.029 -0.8346  0.5264 -0.6425
  498TP3      O13312   0.271   3.836   2.617 -0.3214 -0.5901  0.5323
  498TP3     H113313   0.306   3.748   2.633 -0.3324 -0.6097  0.4508
  498TP3     H213314   0.192   3.821   2.565  0.4647 -0.4546 -0.7483
  499TP3      O13315   0.980   1.391   7.192 -0.1926  0.0518 -0.0075
  499TP3     H113316   1.026   1.351   7.118 -1.1405 -1.4316  0.1739
  499TP3     H213317   0.930   1.463   7.153  1.2607  0.8880 -0.3917
  500TP3      O13318   0.294   2.284   7.093  0.7702 -0.5633  0.0258
  500TP3     H113319   0.271   2.191   7.100  1.1157 -0.6774 -0.2664
  500TP3     H213320   0.368   2.285   7.032  0.8026 -0.0996  0.0692
  501TP3      O13321   3.507   0.618   8.670 -0.4636 -0.4902  0.5808
  501TP3     H113322   3.461   0.553   8.616 -1.7705  1.2621 -0.5147
  501TP3     H213323   3.444   0.642   8.737  0.5130 -1.3222  1.8356
  502TP3      O13324   2.078   3.865   0.316  0.0947 -0.2034 -0.1876
  502TP3     H113325   2.113   3.851   0.228  1.3235  0.6358  0.1447
  502TP3     H213326   2.096   3.957   0.334 -0.7152 -0.2096  0.7037
  503TP3      O13327   2.639   1.256   0.343  0.2761  0.1948  0.1106
  503TP3     H113328   2.599   1.334   0.305  0.4131  0.2907  0.1581
  503TP3     H213329   2.647   1.277   0.437  0.2183  0.0824  0.1403
  504TP3      O13330   4.137   2.792   8.938 -0.0257  0.6390 -0.7295
  504TP3     H113331   4.223   2.831   8.956  0.9178 -0.9245 -1.6352
  504TP3     H213332   4.140   2.706   8.978 -2.0168  1.3321  1.0821
  505TP3      O13333   4.102   2.010   9.144 -0.3080 -0.5737  0.0635
  505TP3     H113334   4.088   2.039   9.234 -1.5038 -0.8109 -0.0327
  505TP3     H213335   4.071   2.082   9.090 -1.0805 -1.0648 -0.1592
  506TP3      O13336   5.117   3.151   9.445 -0.0665  0.4440  0.0606
  506TP3     H113337   5.093   3.083   9.508  0.1063  0.5340  0.2256
  506TP3     H213338   5.202   3.183   9.477  0.1382  0.3211 -0.3506
  507TP3      O13339   0.825   2.232   7.887 -0.1834 -0.2517  0.0688
  507TP3     H113340   0.880   2.173   7.938 -2.0122 -0.9667  1.3104
  507TP3     H213341   0.886   2.278   7.830  1.6787 -0.9895  1.3783
  508TP3      O13342   2.626   3.494   0.650 -0.1111  0.6763 -0.7421
  508TP3     H113343   2.531   3.499   0.647 -0.1659  0.8135  0.6490
  508TP3     H213344   2.654   3.584   0.669  0.3335  0.7175 -1.5275
  509TP3      O13345   2.846   5.047   1.943  0.1849  0.0097 -0.3455
  509TP3     H113346   2.931   5.013   1.974 -0.3921 -1.9242 -0.7360
  509TP3     H213347   2.847   5.029   1.849 -0.4977  0.3770 -0.4243
  510TP3      O13348   2.755   4.068   9.295  0.5666 -0.3830  0.3984
  510TP3     H113349   2.819   4.067   9.367  1.8034  1.1677 -0.6006
  510TP3     H213350   2.689   4.004   9.320  1.5727 -0.7202  2.3548
  511TP3      O13351   2.188   3.771   8.324 -0.0137 -0.3177 -0.3461
  511TP3     H113352   2.150   3.703   8.380 -2.5465  0.2839 -1.1838
  511TP3     H213353   2.203   3.727   8.240 -0.9279 -0.0503 -0.6578
  512TP3      O13354   3.281   1.851   9.032 -0.2413  0.5029 -0.0378
  512TP3     H113355   3.197   1.870   9.075 -1.5335 -0.3751 -2.0319
  512TP3     H213356   3.275   1.895   8.947  1.4369  0.5920 -0.1428
  513TP3      O13357   4.718   2.021   1.784  0.2222 -0.1677 -0.3946
  513TP3     H113358   4.681   1.942   1.745  0.1952 -0.6364  0.5501
  513TP3     H213359   4.647   2.058   1.836  0.7772 -0.5536  0.6670
  514TP3      O13360   2.934   4.650   9.405  0.2920  0.4753  0.1519
  514TP3     H113361   2.884   4.649   9.323  0.0974 -0.1295  0.2733
  514TP3     H213362   2.961   4.559   9.417  1.6695  0.8252 -0.0513
  515TP3      O13363   2.866   4.965   9.405  0.3290  0.0097 -0.3304
  515TP3     H113364   2.926   4.905   9.449 -1.2100 -1.0510  0.4105
  515TP3     H213365   2.872   4.942   9.313  0.7185 -0.3928 -0.2071
  516TP3      O13366   2.634   0.517   8.133 -0.1748 -0.3303  0.0916
  516TP3     H113367   2.722   0.510   8.098  0.4624  2.5451  0.8982
  516TP3     H213368   2.628   0.444   8.196  1.6408 -0.5533  0.0677
  517TP3      O13369   4.453   5.053   2.805  0.1798 -0.1370  0.0918
  517TP3     H113370   4.540   5.023   2.833  0.8119  0.6955 -0.9247
  517TP3     H213371   4.471   5.129   2.750 -1.2472  0.5128  0.4896
  518TP3      O13372   4.861   0.360   9.341  0.2024  0.5012  0.3550
  518TP3     H113373   4.933   0.352   9.279  0.0608  1.7007  0.0044
  518TP3     H213374   4.822   0.273   9.344  0.7286  0.2155 -0.6129
  519TP3      O13375   4.006   2.394   8.534  0.0367 -0.0951  0.2071
  519TP3     H113376   4.021   2.300   8.522  2.6055  0.2305  0.2468
  519TP3     H213377   4.062   2.435   8.468  0.9543  1.4105  1.8267
  520TP3      O13378   3.785   3.918   9.140  0.1621  0.7780  0.5115
  520TP3     H113379   3.776   3.845   9.079  0.4144  0.5474  0.7478
  520TP3     H213380   3.710   3.975   9.121 -0.1952  0.3162  0.5264
  521TP3      O13381   3.168   4.509   1.468 -0.0770 -0.5142  0.4133
  521TP3     H113382   3.236   4.464   1.518  0.2361 -0.4374  0.0703
  521TP3     H213383   3.159   4.458   1.388  0.1195 -0.1020  0.1220
  522TP3      O13384   1.236   2.268   8.722 -0.0393  0.0503 -0.6799
  522TP3     H113385   1.312   2.223   8.758 -0.0714 -0.8946 -1.7005
  522TP3     H213386   1.265   2.300   8.636 -0.2056  1.4812 -0.2306
  523TP3      O13387   2.267   3.915   1.950 -0.2200 -0.4827  0.0483
  523TP3     H113388   2.293   4.007   1.943  1.7023 -1.0167 -0.6629
  523TP3     H213389   2.172   3.916   1.948 -0.2465  1.5117  0.3808
  524TP3      O13390   3.512   1.756   8.625  0.4171 -0.6500  0.7221
  524TP3     H113391   3.561   1.693   8.572 -1.0094 -0.7030 -0.6070
  524TP3     H213392   3.455   1.701   8.679 -0.0966 -0.5443  0.2982
  525TP3      O13393   0.970   4.909   7.749  0.2715 -0.0574  0.3529
  525TP3     H113394   0.941   4.831   7.796  0.6462 -0.0306  0.6354
  525TP3     H213395   0.894   4.936   7.697  0.5416 -1.3717 -0.7888
  526TP3      O13396   4.611   0.537   1.673  0.0668 -0.9174 -0.2656
  526TP3     H113397   4.608   0.547   1.768 -0.6210  0.5962 -0.4218
  526TP3     H213398   4.700   0.565   1.649  0.4950 -2.0276 -0.0089
  527TP3      O13399   1.264   0.824   1.509 -0.0665  0.3580  0.7865
  527TP3     H113400   1.315   0.904   1.500 -1.3493  1.0816 -0.2921
  527TP3     H213401   1.261   0.787   1.421 -0.4235 -0.2864  1.0639
  528TP3      O13402   5.232   1.715   0.953  0.1253 -0.1404 -0.0144
  528TP3     H113403   5.257   1.623   0.951  1.5994  0.2410 -1.5514
  528TP3     H213404   5.200   1.729   1.042 -1.5916 -2.4670 -0.1614
  529TP3      O13405   4.455   0.500   1.063 -0.4899 -0.1276 -0.5119
  529TP3     H113406   4.448   0.507   0.968  0.1040 -1.4345 -0.6789
  529TP3     H213407   4.516   0.428   1.077 -1.4675 -0.7342  0.8623
  530TP3      O13408   4.993   2.742   0.495  0.1268 -0.0094 -0.0692
  530TP3     H113409   5.071   2.710   0.450  0.2764  1.4022 -0.8777
  530TP3     H213410   4.921   2.726   0.434 -0.1639 -0.9078  0.4930
  531TP3      O13411   2.771   2.744   1.657  0.5883 -0.0137 -0.7645
  531TP3     H113412   2.837   2.801   1.618  0.2346  0.6374 -0.4231
  531TP3     H213413   2.750   2.785   1.741 -1.4124  0.6881 -1.5471
  532TP3      O13414   3.820   4.561   0.277 -0.3539 -0.4961  0.2659
  532TP3     H113415   3.797   4.468   0.273  1.0156 -1.1138  3.4315
  532TP3     H213416   3.916   4.562   0.269 -0.3582  0.6212  0.2905
  533TP3      O13417   4.113   0.614   9.993 -0.4845 -0.3436  0.3207
  533TP3     H113418   4.057   0.642  10.066  0.3439  0.9794  0.4737
  533TP3     H213419   4.062   0.635   9.915 -0.4564  0.2940  0.4706
  534TP3      O13420   2.753   1.672   2.239  0.4166 -0.2746  0.1560
  534TP3     H113421   2.807   1.743   2.206 -1.0334  0.5289 -0.6214
  534TP3     H213422   2.782   1.594   2.192  0.6354  0.2114 -0.5174
  535TP3      O13423   4.357   4.704   0.602  0.3623 -0.3119  0.1210
  535TP3     H113424   4.318   4.708   0.515  1.4072 -2.0889 -0.4886
  535TP3     H213425   4.303   4.762   0.655 -0.9116  0.0431 -1.4698
  536TP3      O13426   3.427   1.087   8.948 -0.2679  0.1289 -0.5830
  536TP3     H113427   3.491   1.153   8.920  0.2615 -0.6297 -1.2272
  536TP3     H213428   3.355   1.097   8.887  0.4601 -0.8621 -1.6496
  537TP3      O13429   1.355   2.758  10.080 -0.4108 -0.7579  0.0906
  537TP3     H113430   1.328   2.830  10.137  0.7323  1.3137 -1.8447
  537TP3     H213431   1.315   2.778   9.996  1.9112 -1.0209 -1.1546
  538TP3      O13432   4.976   1.800   2.468 -0.6106  0.4649  0.4256
  538TP3     H113433   5.002   1.713   2.497 -0.4955  1.1113  2.3763
  538TP3     H213434   4.893   1.817   2.512 -0.2162  1.6660  0.7435
  539TP3      O13435   3.195   0.053   9.910 -0.0534 -0.2826 -0.2272
  539TP3     H113436   3.158   0.133   9.872  1.3043  0.9536  0.9509
  539TP3     H213437   3.134   0.029   9.980 -0.2027  0.0244 -0.2516
  540TP3      O13438   0.286   2.239   1.229  0.5187 -0.3191  0.4295
  540TP3     H113439   0.360   2.202   1.180 -0.5385 -0.8709 -0.8066
  540TP3     H213440   0.290   2.333   1.209  1.9042 -0.0330  1.8153
  541TP3      O13441   2.094   0.952   0.035 -0.3246 -0.1313  0.3684
  541TP3     H113442   2.145   0.923   0.110 -0.0180  0.3415  0.3511
  541TP3     H213443   2.003   0.941   0.061 -0.2190 -0.6777  0.5233
  542TP3      O13444   2.933   1.590   9.788  0.1261  0.5004 -0.0780
  542TP3     H113445   2.951   1.607   9.696  0.3579 -1.1204 -0.3587
  542TP3     H213446   2.991   1.651   9.835  3.7361 -1.8737 -0.9853
  543TP3      O13447   4.763   5.133   0.564 -0.5471  0.0511  0.0864
  543TP3     H113448   4.776   5.129   0.658 -0.3086  2.6057  0.2314
  543TP3     H213449   4.846   5.166   0.529 -1.3508  1.3086 -0.7268
  544TP3      O13450   5.097   1.884   8.697 -0.4565  0.3240 -0.2652
  544TP3     H113451   5.020   1.849   8.652 -0.7916  0.4080  0.2296
  544TP3     H213452   5.168   1.823   8.675 -0.1050  1.4242 -2.5274
  545TP3      O13453   0.145   4.916   1.191  0.1535 -0.2627  0.4460
  545TP3     H113454   0.211   4.847   1.183  1.4349  0.6022  2.6226
  545TP3     H213455   0.065   4.870   1.218  0.5225 -1.0638  0.2016
  546TP3      O13456   5.173   2.326   1.924 -0.9566 -0.1440  0.0730
  546TP3     H113457   5.231   2.376   1.867 -1.3002 -0.1354 -0.2782
  546TP3     H213458   5.228   2.258   1.961 -0.2423  1.0644  1.3268
  547TP3      O13459   3.800   0.853   7.145  0.2020 -0.1844  0.7152
  547TP3     H113460   3.730   0.913   7.170 -0.5713 -1.2819  1.2843
  547TP3     H213461   3.880   0.900   7.166 -0.2517  1.8620 -1.7017
  548TP3      O13462   3.937   2.433   9.244 -0.0439 -0.4815  0.5423
  548TP3     H113463   3.984   2.482   9.176 -0.1224 -0.4082  0.5412
  548TP3     H213464   3.940   2.489   9.321  0.8407 -0.9557  0.8672
  549TP3      O13465   4.936   4.656   9.808 -0.3947  0.5602  0.1543
  549TP3     H113466   4.914   4.605   9.730 -0.5169 -1.2463  1.2880
  549TP3     H213467   5.010   4.608   9.847  0.9973  2.5698  0.1090
  550TP3      O13468   0.888   3.125   6.944 -0.3280  0.2738 -0.2274
  550TP3     H113469   0.831   3.187   6.897  0.7321  0.7795 -0.8767
  550TP3     H213470   0.964   3.177   6.970  0.8557 -0.8515 -1.2859
  551TP3      O13471   5.019   4.579   0.762 -0.0881 -0.2005 -0.5292
  551TP3     H113472   5.113   4.564   0.773 -0.0946  0.2694  0.3075
  551TP3     H213473   4.991   4.516   0.696  0.6453 -0.9708 -0.1209
  552TP3      O13474   1.776   2.782   9.613 -0.3926  0.4732 -0.6490
  552TP3     H113475   1.692   2.827   9.609 -0.2302  0.8558  0.0512
  552TP3     H213476   1.753   2.690   9.632 -0.6839  0.4237 -1.2327
  553TP3      O13477   3.290   0.123   8.666 -0.1103  0.2215  0.2638
  553TP3     H113478   3.355   0.090   8.604 -0.8107  1.3059 -1.0991
  553TP3     H213479   3.258   0.045   8.711  1.4530 -0.4318  0.3212
  554TP3      O13480   3.350   0.917   0.216 -0.3564 -0.3394  0.6584
  554TP3     H113481   3.366   0.937   0.309 -1.7101 -2.2772  1.3881
  554TP3     H213482   3.386   0.828   0.205 -3.7318 -1.8217  0.4674
  555TP3      O13483   1.510   4.797   1.726  0.0760 -0.0242 -0.0050
  555TP3     H113484   1.533   4.705   1.726 -0.9960 -0.3202  1.0198
  555TP3     H213485   1.415   4.798   1.709  0.4870  1.0637 -2.9251
  556TP3      O13486   0.016   2.887   3.834  0.0598 -0.1545 -0.2471
  556TP3     H113487   0.110   2.883   3.816  0.2123 -1.6140  0.7564
  556TP3     H213488  -0.026   2.876   3.748  0.7981 -2.3364 -0.3880
  557TP3      O13489   3.803   0.996   9.600  0.0427  0.3046  1.2589
  557TP3     H113490   3.837   0.963   9.683  0.2587 -1.4032  0.5311
  557TP3     H213491   3.708   0.980   9.605  0.2909 -1.8035  0.3861
  558TP3      O13492   4.133   3.817   2.173  0.1149 -0.3216  0.2798
  558TP3     H113493   4.039   3.826   2.156  0.4086 -0.8686 -1.8615
  558TP3     H213494   4.174   3.877   2.112  1.1849 -0.1383  1.1536
  559TP3      O13495   2.236   2.130   0.381 -0.0163  0.4263 -0.1964
  559TP3     H113496   2.227   2.117   0.286 -1.0487  1.1316 -0.2004
  559TP3     H213497   2.306   2.194   0.390  1.4403 -1.0663 -0.3814
  560TP3      O13498   4.596   3.697   1.650 -0.3261  0.3719  0.0364
  560TP3     H113499   4.506   3.727   1.640 -1.3794 -2.2777  0.7391
  560TP3     H213500   4.614   3.646   1.571  1.0614  1.9131 -0.6986
  561TP3      O13501   1.442   1.766   7.337  0.0575  0.1473 -0.1110
  561TP3     H113502   1.494   1.846   7.336  1.8494 -0.9161  0.7261
  561TP3     H213503   1.426   1.747   7.245  0.7387  0.7900 -0.3726
  562TP3      O13504   1.738   0.584   3.155 -0.3280  0.2053 -0.2512
  562TP3     H113505   1.670   0.525   3.186  0.0510 -0.1525 -0.0887
  562TP3     H213506   1.691   0.663   3.130 -0.8069 -0.0479 -0.1746
  563TP3      O13507   3.197   1.473   0.298  0.0060  0.0213  0.4854
  563TP3     H113508   3.152   1.550   0.263  1.3785  0.6488  0.0331
  563TP3     H213509   3.176   1.403   0.236 -0.9462  0.1008  0.6964
  564TP3      O13510   2.908   3.368   3.829  0.5641  0.3211  0.5811
  564TP3     H113511   2.837   3.355   3.766  0.4276  0.5597  0.6848
  564TP3     H213512   2.982   3.398   3.777 -0.0021  2.0824  0.7159
  565TP3      O13513   1.607   2.024   7.572  0.5788  0.3711  0.0032
  565TP3     H113514   1.609   2.000   7.480 -0.7308 -1.7643  0.4541
  565TP3     H213515   1.523   2.070   7.583 -0.8640 -2.1842  0.6314
  566TP3      O13516   0.834   2.774   0.845  0.2622 -0.0435  0.0928
  566TP3     H113517   0.757   2.718   0.838  1.5445 -1.8317 -0.6979
  566TP3     H213518   0.807   2.847   0.899 -1.3731 -1.6960  1.6180
  567TP3      O13519   2.675   2.218   7.724  0.0887 -0.0256  0.3677
  567TP3     H113520   2.654   2.136   7.679  0.6876 -0.0528  0.1335
  567TP3     H213521   2.654   2.201   7.816 -1.1483  0.0323  0.1232
  568TP3      O13522   1.916   3.368   1.674 -0.1111 -0.2557 -0.4652
  568TP3     H113523   1.900   3.337   1.585  0.1681 -0.8260 -0.3240
  568TP3     H213524   1.871   3.305   1.730  0.4539 -0.3993 -0.1690
  569TP3      O13525   2.329   4.394   9.542 -0.5231 -0.5084 -0.3439
  569TP3     H113526   2.258   4.442   9.500 -0.5450  0.1928  0.4556
  569TP3     H213527   2.388   4.371   9.471  0.7002  2.7955 -0.5825
  570TP3      O13528   0.108   1.174   7.423  0.5390  0.2992 -0.6504
  570TP3     H113529   0.200   1.196   7.410  0.2845  0.5000 -2.2981
  570TP3     H213530   0.090   1.106   7.357 -0.4988  0.2820 -0.3670
  571TP3      O13531   0.745   2.850   9.034  0.3321  0.8572  0.0269
  571TP3     H113532   0.728   2.937   9.071 -0.7313  0.8583 -0.4446
  571TP3     H213533   0.674   2.796   9.067  1.6454 -0.1585  1.3074
  572TP3      O13534   0.951   2.956   1.662  0.5443 -0.1812 -0.2211
  572TP3     H113535   0.884   2.945   1.729  2.1853  0.1162  1.5617
  572TP3     H213536   1.009   2.880   1.674  1.2332  0.2363 -0.8510
  573TP3      O13537   2.957   2.538   9.652 -0.1121  0.1217  0.8441
  573TP3     H113538   2.890   2.518   9.718 -0.0824  0.1177  0.8737
  573TP3     H213539   2.930   2.623   9.616  1.7912  2.0324  3.4334
  574TP3      O13540   2.264   4.708   7.948  0.2079  0.4270  0.0205
  574TP3     H113541   2.301   4.635   7.899 -2.1438 -0.2370 -0.8986
  574TP3     H213542   2.228   4.766   7.881 -1.9036  0.1609  0.8497
  575TP3      O13543   0.542   1.893   0.664 -0.6971 -0.1066 -0.1366
  575TP3     H113544   0.452   1.923   0.682 -0.5033  0.5342 -0.2132
  575TP3     H213545   0.596   1.941   0.728 -0.4202 -0.5491 -0.0382
  576TP3      O13546   4.968   2.101   2.670 -0.5792 -0.5954  0.7259
  576TP3     H113547   4.941   2.182   2.714 -1.7112 -1.1782  1.1582
  576TP3     H213548   4.906   2.091   2.598  1.2469  0.3402 -1.0862
  577TP3      O13549   3.578   1.683   7.554 -0.1265 -0.1615 -0.3651
  577TP3     H113550   3.494   1.713   7.518 -0.2830 -0.2678 -0.0952
  577TP3     H213551   3.644   1.728   7.502 -0.2924  3.2983  2.0671
  578TP3      O13552   2.886   3.157   3.523 -0.0844 -0.3046 -0.5175
  578TP3     H113553   2.838   3.215   3.582 -0.3284 -1.2205  0.2127
  578TP3     H213554   2.949   3.215   3.479  1.7287  0.1337  2.3220
  579TP3      O13555   1.063   0.504   8.461 -0.0293 -0.2970 -0.2309
  579TP3     H113556   1.082   0.558   8.539 -1.0035 -0.6047  0.2402
  579TP3     H213557   1.146   0.463   8.440  0.5949  0.9162 -0.2296
  580TP3      O13558   4.830   3.198   1.055 -0.4034  0.4072 -0.0027
  580TP3     H113559   4.886   3.123   1.037 -1.5308 -0.2251 -1.0057
  580TP3     H213560   4.741   3.164   1.048 -0.9356  1.7873 -0.3115
  581TP3      O13561   2.036   3.890   0.596 -0.6706  1.0002  0.6204
  581TP3     H113562   2.029   3.851   0.509  0.2225  1.1310  0.4799
  581TP3     H213563   2.067   3.818   0.652 -1.1255  0.9480  0.8106
  582TP3      O13564   3.131   0.288   0.932  0.1042  0.3413 -0.2357
  582TP3     H113565   3.096   0.213   0.980 -0.9255  0.1383 -1.2399
  582TP3     H213566   3.094   0.364   0.976 -1.7190  0.1301 -1.2898
  583TP3      O13567   4.174   2.953   8.080 -0.2618 -0.4065 -0.2495
  583TP3     H113568   4.157   3.035   8.035 -1.4057 -1.3488 -1.6236
  583TP3     H213569   4.148   2.885   8.018 -1.6530 -1.7898  1.6975
  584TP3      O13570   1.991   4.694   2.199 -0.3903 -0.1121  0.2687
  584TP3     H113571   1.945   4.611   2.211 -0.5999 -0.4893 -2.4795
  584TP3     H213572   1.922   4.759   2.189 -0.2385  0.2351  1.4282
  585TP3      O13573   2.553   3.554   2.526  0.0128  0.1247  0.3250
  585TP3     H113574   2.488   3.485   2.533  0.1881  0.0329  1.1247
  585TP3     H213575   2.505   3.634   2.549 -0.4883  0.4656 -1.7401
  586TP3      O13576   0.585   2.092   7.830 -0.1119 -0.2923  0.2136
  586TP3     H113577   0.665   2.141   7.847 -0.3875  0.1489  0.2764
  586TP3     H213578   0.517   2.140   7.878 -0.1085 -1.7538  1.7937
  587TP3      O13579   0.345   0.430   0.637  0.2004  0.0562  0.6581
  587TP3     H113580   0.268   0.439   0.582  1.0016 -0.5902 -0.6329
  587TP3     H213581   0.380   0.519   0.646  0.3613  0.1035 -0.3538
  588TP3      O13582   1.010   0.716   1.597 -0.6873  0.1162  0.3379
  588TP3     H113583   1.065   0.760   1.532  0.9945  0.0437  1.6319
  588TP3     H213584   0.921   0.731   1.567  0.0046  0.6084 -1.6359
  589TP3      O13585   4.674   4.656   0.129 -0.2367  0.1412 -0.4705
  589TP3     H113586   4.624   4.613   0.060 -1.0946  1.3856 -0.6729
  589TP3     H213587   4.620   4.644   0.208 -0.5601  0.9329 -0.5590
  590TP3      O13588   4.935   4.173   1.740  0.0823  0.3940 -0.4204
  590TP3     H113589   4.885   4.255   1.741 -1.7719 -0.6725  0.6543
  590TP3     H213590   4.932   4.144   1.649 -2.0672 -0.0553 -0.2506
  591TP3      O13591   1.556   0.593   9.256  0.3172 -0.4891 -0.1041
  591TP3     H113592   1.643   0.632   9.266  0.2777 -0.1563 -0.9564
  591TP3     H213593   1.568   0.525   9.190 -0.3619  0.5875 -1.3833
  592TP3      O13594   1.322   2.846   8.439 -0.5317  0.7767 -0.0538
  592TP3     H113595   1.406   2.872   8.476 -0.0050 -0.1537 -0.5612
  592TP3     H213596   1.265   2.831   8.515  0.1551  0.1418  0.3495
  593TP3      O13597   2.710   3.164   0.865 -0.1593 -0.4032  0.2422
  593TP3     H113598   2.700   3.074   0.833 -3.2190  0.2118 -0.8318
  593TP3     H213599   2.621   3.196   0.874  0.8510  2.6554  0.2923
  594TP3      O13600   2.108   1.358   2.546 -0.4337 -0.2003 -0.1658
  594TP3     H113601   2.176   1.360   2.614 -0.3748 -2.4010 -0.0726
  594TP3     H213602   2.055   1.436   2.563  0.6540  0.2829  1.2694
  595TP3      O13603   4.287   5.092   7.456 -0.3924 -0.0459 -0.2189
  595TP3     H113604   4.364   5.113   7.404 -0.3176  0.5156  0.1186
  595TP3     H213605   4.268   5.171   7.505  0.5930 -1.0595  1.9512
  596TP3      O13606   0.673   3.929   1.041 -0.1626  0.3475 -0.3339
  596TP3     H113607   0.626   3.887   0.968 -1.3725  1.6094 -0.3004
  596TP3     H213608   0.726   3.858   1.077 -1.7336 -1.0485 -0.6152
  597TP3      O13609   3.827   2.944   2.066 -0.0716 -0.4952 -0.5330
  597TP3     H113610   3.770   2.867   2.063  0.4058 -1.1420  2.8423
  597TP3     H213611   3.768   3.017   2.086 -0.0173 -0.9477  1.5865
  598TP3      O13612   3.594   5.104   9.245 -0.1261  0.0330 -0.1798
  598TP3     H113613   3.542   5.137   9.318  0.0067  1.2522 -0.6214
  598TP3     H213614   3.684   5.104   9.277 -0.4635 -4.2006  1.3929
  599TP3      O13615   3.584   2.006   0.969 -0.0398  0.0201 -0.1874
  599TP3     H113616   3.675   1.997   0.998 -0.2618  0.0745  0.5720
  599TP3     H213617   3.561   2.096   0.990 -1.1419 -0.7450  2.3920
  600TP3      O13618   3.016   2.072   0.926 -0.8339 -0.0699  0.0269
  600TP3     H113619   3.029   1.990   0.879  0.5891  0.8674 -1.3477
  600TP3     H213620   2.956   2.123   0.871 -2.3304 -0.4371  1.2540
  601TP3      O13621   0.216   1.236   9.377  0.2610  0.5597  0.4457
  601TP3     H113622   0.175   1.258   9.460 -1.4345 -0.3682 -0.1000
  601TP3     H213623   0.143   1.210   9.320  1.5186 -0.2485 -0.8726
  602TP3      O13624   0.490   4.134   7.119  0.2315  0.0232 -0.2230
  602TP3     H113625   0.409   4.179   7.093  0.6626  0.6490 -0.5307
  602TP3     H213626   0.553   4.158   7.051  0.7270 -0.2909  0.1187
  603TP3      O13627   2.936   2.649   1.035 -0.0801  0.3875 -0.3162
  603TP3     H113628   2.975   2.674   1.118  0.8479 -0.9024 -0.3329
  603TP3     H213629   3.007   2.658   0.971  0.8553 -3.4516 -0.1058
  604TP3      O13630   4.365   1.098   9.408  0.0161  0.8919 -0.1754
  604TP3     H113631   4.417   1.019   9.405 -0.4829  0.3434  2.7322
  604TP3     H213632   4.418   1.164   9.363  2.0240 -0.2716  0.3648
  605TP3      O13633   2.665   3.797   2.820 -0.7172 -0.6564 -0.6509
  605TP3     H113634   2.606   3.872   2.814 -1.3282 -1.0631  0.0846
  605TP3     H213635   2.653   3.751   2.736 -0.4654 -0.0300 -1.0333
  606TP3      O13636   2.062   3.749   9.382 -0.4527  0.1819 -0.3381
  606TP3     H113637   2.062   3.657   9.408  2.2748 -0.3612 -1.8415
  606TP3     H213638   2.056   3.748   9.287  0.1711  1.4978 -0.4236
  607TP3      O13639   2.415   5.046   8.671 -0.1627 -0.4330  0.4689
  607TP3     H113640   2.434   5.065   8.763 -2.2549  1.0421  0.6704
  607TP3     H213641   2.320   5.030   8.669 -0.4508  1.1208 -1.6161
  608TP3      O13642   3.256   2.449   1.990  0.0561 -0.2490 -0.1085
  608TP3     H113643   3.247   2.355   2.007 -1.1750 -0.0581  0.4129
  608TP3     H213644   3.197   2.490   2.053 -1.0830  0.7572 -1.7421
  609TP3      O13645   3.169   0.130   0.531 -0.2807  0.8323  0.6372
  609TP3     H113646   3.257   0.102   0.559 -0.1838  0.9095  0.4093
  609TP3     H213647   3.111   0.100   0.601 -0.2548 -0.4458  0.1340
  610TP3      O13648   2.010   5.176   7.374  0.4484  0.0090  0.0282
  610TP3     H113649   1.937   5.204   7.319  0.8768 -0.8072 -0.9811
  610TP3     H213650   1.988   5.087   7.400  0.9309 -0.1220 -0.0075
  611TP3      O13651   5.014   5.135   9.132  0.2934  0.2926 -0.3187
  611TP3     H113652   5.110   5.125   9.132  0.0962 -2.1279 -0.9192
  611TP3     H213653   4.996   5.197   9.062  1.3038 -1.2398 -2.0111
  612TP3      O13654   3.587   2.159   1.446  0.1836 -0.0520 -0.1393
  612TP3     H113655   3.669   2.175   1.494  0.8183  0.2347 -1.2775
  612TP3     H213656   3.519   2.167   1.512  0.8557  2.4331  0.3655
  613TP3      O13657   2.536   3.875   1.599 -0.0056 -0.2376 -0.1293
  613TP3     H113658   2.469   3.943   1.595  0.2113  0.0157  0.5790
  613TP3     H213659   2.502   3.811   1.662 -0.4436 -1.0545 -1.1509
  614TP3      O13660   4.229   0.552   7.938  0.3991  0.6997 -0.1076
  614TP3     H113661   4.174   0.512   7.871  0.2958  1.4638 -0.4880
  614TP3     H213662   4.300   0.489   7.952 -0.7399 -0.4961  0.6623
  615TP3      O13663   2.977   0.019   1.973 -0.0458  0.0206 -0.2150
  615TP3     H113664   3.021   0.002   2.056 -2.6761  1.5152  1.6306
  615TP3     H213665   2.911  -0.050   1.965 -0.6211  0.5846 -0.4371
  616TP3      O13666   2.387   2.175   7.480 -0.3535  0.4464  0.1997
  616TP3     H113667   2.383   2.156   7.574  1.9754 -0.0496  0.2511
  616TP3     H213668   2.442   2.106   7.444 -4.0290 -1.5497 -2.2227
  617TP3      O13669   2.112   1.918   8.022 -0.0532  0.4104 -0.0453
  617TP3     H113670   2.033   1.934   7.971  0.4891  0.1888 -0.9866
  617TP3     H213671   2.081   1.887   8.106 -0.9704  0.3331 -0.4067
  618TP3      O13672   2.532   4.532   7.811  0.6548  0.2077  0.0702
  618TP3     H113673   2.617   4.562   7.845 -0.0526  0.9437  1.2940
  618TP3     H213674   2.498   4.475   7.880 -0.2226  0.6105 -0.0235
  619TP3      O13675   1.690   3.085   1.240 -0.0670  0.0890  0.1664
  619TP3     H113676   1.741   3.050   1.167  0.9708  1.9166 -0.0535
  619TP3     H213677   1.622   3.138   1.199 -0.8928 -0.6935  0.5008
  620TP3      O13678   4.839   1.952   9.118  0.8758  0.0371  0.1333
  620TP3     H113679   4.770   2.006   9.080  0.0206 -0.3404  1.0957
  620TP3     H213680   4.921   1.990   9.086  0.2431  0.9923 -0.3704
  621TP3      O13681   1.342   1.107   2.192  0.6680 -0.2414 -0.0677
  621TP3     H113682   1.291   1.050   2.249 -0.8090  0.1602 -0.9488
  621TP3     H213683   1.351   1.059   2.110  0.0324  0.4696 -0.5685
  622TP3      O13684   1.295   1.639   8.170 -0.0124 -0.3545 -0.0506
  622TP3     H113685   1.353   1.570   8.138  0.4154  0.4952 -1.1731
  622TP3     H213686   1.227   1.593   8.218  0.9729 -1.4604  0.3392
  623TP3      O13687   4.267   0.238   1.180  0.7217 -0.0384 -0.0538
  623TP3     H113688   4.269   0.196   1.094 -1.6837 -0.3836 -0.0202
  623TP3     H213689   4.358   0.237   1.209  1.7344  0.6823 -2.8399
  624TP3      O13690   1.754   4.238   9.057 -0.3562 -0.5713 -0.1120
  624TP3     H113691   1.713   4.153   9.071 -0.8820 -0.3394 -0.2409
  624TP3     H213692   1.727   4.291   9.131 -0.8300 -0.2174 -0.5299
  625TP3      O13693   4.883   0.583   1.269  0.0025 -0.0572 -0.0882
  625TP3     H113694   4.844   0.622   1.347 -0.1775  0.7088 -0.5478
  625TP3     H213695   4.967   0.628   1.260 -0.7937  1.2652 -1.3971
  626TP3      O13696   1.374   4.345   7.786 -0.7508 -0.5518 -0.0522
  626TP3     H113697   1.332   4.381   7.864  1.1651  0.2264  0.6767
  626TP3     H213698   1.405   4.258   7.813 -0.0465 -0.2639  0.1022
  627TP3      O13699   4.986   3.060   7.490  0.0997  0.2033 -0.0932
  627TP3     H113700   5.050   3.089   7.425 -1.5709  1.6934 -1.1682
  627TP3     H213701   4.999   2.965   7.497 -0.0527 -0.1190 -3.0664
  628TP3      O13702   4.397   4.137   7.437 -0.3338 -0.4688  0.0239
  628TP3     H113703   4.409   4.209   7.375  2.9653 -2.7002 -2.2807
  628TP3     H213704   4.460   4.155   7.507 -1.3173  0.1120  0.7752
  629TP3      O13705   0.856   3.859   7.281  0.2820  0.2826 -0.3375
  629TP3     H113706   0.929   3.900   7.233  0.5778  0.9283  0.6406
  629TP3     H213707   0.854   3.769   7.248  0.2373  0.8020 -1.8233
  630TP3      O13708   1.828   1.419   2.845 -0.2412 -0.2396 -0.3469
  630TP3     H113709   1.826   1.358   2.771  1.6033 -0.7250 -0.0473
  630TP3     H213710   1.767   1.381   2.909 -0.7665 -0.5815 -1.0347
  631TP3      O13711   3.261   3.710   8.938  0.1454 -0.5154 -0.2853
  631TP3     H113712   3.187   3.770   8.943  0.8358  0.3113  0.3190
  631TP3     H213713   3.246   3.660   8.858 -2.0493 -1.6892  0.7420
  632TP3      O13714   0.896   4.208   2.116 -0.1223  0.0020 -0.4023
  632TP3     H113715   0.887   4.197   2.210 -0.1540 -0.6855 -0.4800
  632TP3     H213716   0.808   4.194   2.081 -0.0669  0.0310 -0.5552
  633TP3      O13717   1.789   1.035   1.398 -0.3649  0.0353 -0.0855
  633TP3     H113718   1.777   0.952   1.353  0.5086  0.0712 -0.4081
  633TP3     H213719   1.724   1.035   1.468 -0.4597 -0.8503 -0.1706
  634TP3      O13720   1.784   2.432   9.372 -0.6455  0.0124 -0.2329
  634TP3     H113721   1.703   2.411   9.420 -1.2884  0.4813 -1.0989
  634TP3     H213722   1.795   2.358   9.312  0.0698 -0.4891  0.4844
  635TP3      O13723   2.327   2.396   6.780  0.0134 -0.5017  0.4403
  635TP3     H113724   2.330   2.405   6.685 -2.0638 -1.4661  0.2184
  635TP3     H213725   2.419   2.390   6.807  0.6440 -0.2532 -1.4993
  636TP3      O13726   3.776   2.336   0.413  0.4796 -0.0775 -0.0026
  636TP3     H113727   3.850   2.322   0.471  0.0385  1.6248  1.0308
  636TP3     H213728   3.770   2.431   0.403  0.9947 -0.2835 -3.4962
  637TP3      O13729   4.767   3.539   1.837 -0.2662 -0.0723  0.3129
  637TP3     H113730   4.719   3.603   1.785 -0.8964 -0.7232  0.0666
  637TP3     H213731   4.766   3.459   1.784  1.6951  0.0659  0.0013
  638TP3      O13732   4.777   1.865   9.352 -0.4353 -0.2092 -0.6539
  638TP3     H113733   4.843   1.797   9.338 -0.2872  0.0141 -1.0613
  638TP3     H213734   4.780   1.917   9.272 -1.5592 -0.5766 -0.9450
  639TP3      O13735   1.157   4.043   9.860  0.3434 -0.4186 -0.0220
  639TP3     H113736   1.071   4.052   9.901 -0.2249 -1.9332 -0.7861
  639TP3     H213737   1.147   4.084   9.774  0.4502 -0.3885 -0.0202
  640TP3      O13738   0.011   2.619   3.045  0.0981 -0.3285 -0.2279
  640TP3     H113739   0.088   2.649   3.094 -0.2563 -1.1296  0.8572
  640TP3     H213740  -0.063   2.637   3.104 -0.2737 -1.9304 -0.1494
  641TP3      O13741   1.916   0.753   9.654 -0.8302 -0.2827 -0.1753
  641TP3     H113742   1.846   0.742   9.718  0.2491  1.3478  1.3660
  641TP3     H213743   1.989   0.702   9.689 -0.3128  0.4168 -0.2162
  642TP3      O13744   0.250   3.693   6.925  0.0048 -0.3134 -0.2874
  642TP3     H113745   0.286   3.626   6.984 -0.6278  1.0635  1.7674
  642TP3     H213746   0.157   3.671   6.919 -0.4903  1.0507  1.4859
  643TP3      O13747   3.461   4.649   1.857  0.0971  0.1706  0.3868
  643TP3     H113748   3.443   4.679   1.946  2.0838 -0.5835  1.0807
  643TP3     H213749   3.528   4.582   1.866 -0.2307 -0.5300 -1.6272
  644TP3      O13750   3.307   4.859   9.427  0.2406  0.3357  0.2902
  644TP3     H113751   3.398   4.834   9.409 -0.1352  0.1787 -1.5607
  644TP3     H213752   3.260   4.839   9.346 -0.8874  3.1879  0.1294
  645TP3      O13753   0.009   1.190   9.563  0.1587  0.4542  0.1243
  645TP3     H113754  -0.075   1.177   9.519  0.2393  0.5848 -0.0655
  645TP3     H213755  -0.015   1.216   9.652 -0.0182 -1.2355  0.6034
  646TP3      O13756   4.962   0.466   2.316 -0.1579 -0.2407 -0.3449
  646TP3     H113757   4.936   0.399   2.253 -0.6121  0.5422 -1.0105
  646TP3     H213758   4.879   0.494   2.356 -0.0674  0.4367 -0.6091
  647TP3      O13759   2.613   2.032   0.734  0.1551 -0.3609  0.1450
  647TP3     H113760   2.693   2.085   0.725 -0.8049  1.0189 -0.4913
  647TP3     H213761   2.542   2.091   0.711 -1.1235 -1.4058  1.2227
  648TP3      O13762   0.339   4.860   3.156  0.1716  0.0672 -0.3520
  648TP3     H113763   0.297   4.837   3.238 -0.0077  0.2216 -0.4019
  648TP3     H213764   0.431   4.875   3.179  0.6275 -2.0854 -0.5307
  649TP3      O13765   4.285   0.087   2.510 -0.6768  0.1290 -0.0763
  649TP3     H113766   4.209   0.143   2.497 -0.0710  0.8156 -0.7705
  649TP3     H213767   4.303   0.050   2.424  0.0017  0.2729 -0.0026
  650TP3      O13768   2.755   1.000   1.730 -0.2630  0.2522 -0.4112
  650TP3     H113769   2.768   1.024   1.822 -0.8059 -0.0640 -0.2514
  650TP3     H213770   2.727   0.909   1.733  2.4380 -0.7149 -1.0354
  651TP3      O13771   4.139   5.059   1.976  0.4476  0.2011 -0.5605
  651TP3     H113772   4.164   5.151   1.968 -0.0977  0.4175  0.1055
  651TP3     H213773   4.047   5.062   2.002  0.5362 -0.5202 -0.1348
  652TP3      O13774   4.799   1.573   7.864  0.2692  0.5732 -0.1084
  652TP3     H113775   4.882   1.534   7.891 -0.7860 -1.5333  0.2618
  652TP3     H213776   4.750   1.586   7.945  0.4395  2.4394 -0.2516
  653TP3      O13777   0.958   0.988   2.436 -0.2410 -0.3521 -0.6352
  653TP3     H113778   0.971   0.999   2.342 -0.9974 -0.7893 -0.7986
  653TP3     H213779   1.011   0.911   2.459  0.2351 -0.0294 -0.6243
  654TP3      O13780   2.581   1.334   7.936 -0.2398  0.0888  0.0515
  654TP3     H113781   2.501   1.383   7.949 -1.0245 -1.3684  1.0320
  654TP3     H213782   2.556   1.263   7.876  0.7041  0.4757 -0.8361
  655TP3      O13783   4.352   2.390   0.907 -0.2415  0.0561  0.5516
  655TP3     H113784   4.402   2.326   0.856 -0.5355  0.2708 -0.0128
  655TP3     H213785   4.418   2.454   0.935  0.0044 -0.3310  0.8696
  656TP3      O13786   4.094   2.860   8.346 -0.2932  0.1381  0.1054
  656TP3     H113787   4.123   2.900   8.265  0.9889  0.1059  0.5269
  656TP3     H213788   4.123   2.920   8.415 -2.4281  0.7949  0.5268
  657TP3      O13789   0.919   1.577   0.215 -0.5660 -0.3107  0.4574
  657TP3     H113790   0.915   1.636   0.290 -0.4506  0.4584 -0.1311
  657TP3     H213791   0.827   1.557   0.196 -0.5955 -0.5097  0.8039
  658TP3      O13792   2.180   0.515   1.671 -0.1982  0.2491  0.2529
  658TP3     H113793   2.272   0.490   1.681 -0.3451  0.1193  1.5416
  658TP3     H213794   2.183   0.609   1.654  0.1789  0.3108  0.6175
  659TP3      O13795   4.063   0.584   1.834 -0.1114 -0.0361 -0.1414
  659TP3     H113796   4.044   0.660   1.889  2.7272  1.0911 -0.5392
  659TP3     H213797   3.981   0.566   1.789 -1.0523  2.4501  0.4181
  660TP3      O13798   0.156   5.174   1.284  0.1605 -0.0410  0.2833
  660TP3     H113799   0.140   5.101   1.225  0.0068 -1.7389  2.3373
  660TP3     H213800   0.109   5.151   1.364  1.6947  1.3931  1.6649
  661TP3      O13801   3.803   2.806   9.090  0.1208 -0.3924  0.3950
  661TP3     H113802   3.735   2.856   9.045 -0.3785 -0.0853  1.4653
  661TP3     H213803   3.769   2.717   9.094 -0.2274 -0.2325  0.9544
  662TP3      O13804   0.348   1.576   8.733  0.1083 -0.1584 -0.0333
  662TP3     H113805   0.428   1.544   8.775  0.3016 -1.1308 -1.0934
  662TP3     H213806   0.375   1.598   8.644 -0.5432  0.7442 -0.0170
  663TP3      O13807   4.242   1.033   0.968 -0.0611 -0.0727 -0.4801
  663TP3     H113808   4.281   0.971   0.906  0.6530  0.0450 -0.1570
  663TP3     H213809   4.197   1.097   0.912  0.1029 -0.2808 -0.8554
  664TP3      O13810   2.398   1.782   8.624 -0.2348 -0.6500 -0.4156
  664TP3     H113811   2.367   1.710   8.569  1.1199 -0.9817 -0.7919
  664TP3     H213812   2.318   1.827   8.652 -1.0161 -1.2133 -1.6452
  665TP3      O13813   0.849   1.088   7.263  0.1793  0.0599  0.4509
  665TP3     H113814   0.939   1.109   7.287  1.2533  0.4868 -3.3114
  665TP3     H213815   0.853   0.998   7.230 -0.9798 -0.2362  1.0512
  666TP3      O13816   5.158   2.838   1.393  0.2032 -0.2184  0.2503
  666TP3     H113817   5.127   2.887   1.469 -1.2599 -2.9625  1.5704
  666TP3     H213818   5.078   2.810   1.348  0.8856 -2.2018  0.1711
  667TP3      O13819   4.444   0.811   7.874 -0.1803 -0.2328 -0.3472
  667TP3     H113820   4.487   0.749   7.933 -0.9854 -1.7510 -1.3055
  667TP3     H213821   4.384   0.860   7.931  0.1655 -0.6203  0.3628
  668TP3      O13822   4.593   2.223   3.868 -0.4320 -0.1829 -0.3784
  668TP3     H113823   4.584   2.288   3.938 -2.2525  0.2656 -0.9764
  668TP3     H213824   4.504   2.190   3.854 -0.2201  0.0454 -2.7395
  669TP3      O13825   4.367   3.730   0.133 -0.0616  0.1782  0.2742
  669TP3     H113826   4.432   3.660   0.138 -0.5889 -0.2231  1.8860
  669TP3     H213827   4.419   3.810   0.119  1.0208  0.1390  3.4192
  670TP3      O13828   0.274   3.882   0.628 -0.3704  0.0263  0.4629
  670TP3     H113829   0.310   3.794   0.623 -1.0335 -0.1928 -1.0221
  670TP3     H213830   0.226   3.893   0.546  1.5715  2.5940 -0.4841
  671TP3      O13831   1.009   2.790   7.959  0.1785  0.4482 -0.9444
  671TP3     H113832   1.061   2.819   8.034 -2.3867 -0.0388  1.1633
  671TP3     H213833   0.986   2.870   7.913  1.9258  0.7400 -1.3725
  672TP3      O13834   2.465   1.647  10.077  0.4820 -0.0407  0.0714
  672TP3     H113835   2.463   1.564  10.031  0.4414 -1.0910  1.8576
  672TP3     H213836   2.422   1.629  10.161 -2.8464  2.6765 -0.8093
  673TP3      O13837   1.010   3.378   2.222  0.1573  0.4019  0.0875
  673TP3     H113838   0.954   3.452   2.200 -0.0053  0.0617 -0.6720
  673TP3     H213839   1.041   3.345   2.137 -0.2881 -0.7898  0.3789
  674TP3      O13840   4.316   4.095   8.977 -0.0414  0.2201  0.0998
  674TP3     H113841   4.270   4.011   8.977  0.9147 -0.3162  0.2191
  674TP3     H213842   4.275   4.144   8.906 -0.7902 -0.2484  0.1982
  675TP3      O13843   2.246   1.676   2.976 -0.4603 -0.3378 -0.2411
  675TP3     H113844   2.236   1.666   2.881  0.5848  0.1372 -0.4124
  675TP3     H213845   2.341   1.682   2.989 -0.6505  3.2295  0.4436
  676TP3      O13846   3.328   3.450   2.389  0.4937  0.4945  0.0241
  676TP3     H113847   3.364   3.427   2.475  0.4261 -0.1218 -0.1079
  676TP3     H213848   3.233   3.447   2.401  0.3956 -2.4311 -0.7519
  677TP3      O13849   3.436   0.041   8.442 -0.0776 -0.1115 -0.5165
  677TP3     H113850   3.500   0.112   8.430 -2.3998  1.8352 -2.2741
  677TP3     H213851   3.481  -0.036   8.407  2.2269  0.5903  0.6676
  678TP3      O13852   4.307   4.933   8.235  0.3805  0.1401 -0.2735
  678TP3     H113853   4.261   4.854   8.264 -1.2423  1.2504  0.3574
  678TP3     H213854   4.387   4.901   8.193 -0.1415 -1.8088  0.1308
  679TP3      O13855   4.693   0.578   7.412 -0.3505  0.0032  0.3161
  679TP3     H113856   4.643   0.504   7.377 -0.4181 -0.6992  1.8175
  679TP3     H213857   4.629   0.628   7.463  0.2661 -0.4190  1.5402
  680TP3      O13858   4.619   3.443   0.749 -0.1306  0.1535 -0.3133
  680TP3     H113859   4.687   3.462   0.814 -0.3858  0.6270 -0.1807
  680TP3     H213860   4.597   3.351   0.763 -1.4446  0.6790  1.4742
  681TP3      O13861   3.780   4.606   7.777  0.1114  0.1628  0.0446
  681TP3     H113862   3.744   4.543   7.840  2.0653 -0.3556  0.7028
  681TP3     H213863   3.822   4.672   7.831  2.1639 -0.4983 -0.6605
  682TP3      O13864   2.414   4.524   7.074 -0.0094 -0.0583  0.4536
  682TP3     H113865   2.501   4.545   7.041 -0.7101  0.6681 -1.0381
  682TP3     H213866   2.354   4.572   7.017 -1.3865 -0.2404  1.6722
  683TP3      O13867   5.153   1.055   1.194 -0.6116 -0.1326 -0.2371
  683TP3     H113868   5.156   1.063   1.098 -0.7266 -0.4039 -0.2663
  683TP3     H213869   5.061   1.036   1.214 -0.5208 -0.4521 -0.1084
  684TP3      O13870   3.995   5.226   8.279  0.0451  0.0953  0.4019
  684TP3     H113871   3.985   5.271   8.363  1.1550 -0.5655  0.9178
  684TP3     H213872   3.970   5.135   8.297  1.0610 -0.2304  0.2416
  685TP3      O13873   2.528   4.034   3.060 -0.0248  0.7149 -0.0975
  685TP3     H113874   2.620   4.048   3.082 -0.0305  0.2904  0.2148
  685TP3     H213875   2.491   3.991   3.137 -0.0639 -0.7494 -0.8890
  686TP3      O13876   3.329   4.223  10.009 -0.0565  0.0848 -0.2787
  686TP3     H113877   3.247   4.265  10.036  0.9451  1.2636  1.0401
  686TP3     H213878   3.326   4.226   9.913 -0.8552  1.5662 -0.2413
  687TP3      O13879   2.655   0.251   8.241 -0.2573 -0.4399 -0.9564
  687TP3     H113880   2.696   0.213   8.320 -0.1325  1.1980 -0.2005
  687TP3     H213881   2.681   0.192   8.170  1.1076 -0.9758 -0.0517
  688TP3      O13882   3.738   0.074   7.781 -0.3040 -0.0248 -0.5981
  688TP3     H113883   3.663   0.130   7.759 -0.7873  0.1439  1.3077
  688TP3     H213884   3.755   0.092   7.873  1.5577 -0.7138 -0.7626
  689TP3      O13885   4.370   2.518   1.621 -0.2003  0.1299 -0.0536
  689TP3     H113886   4.321   2.594   1.589 -0.4905  0.5513  1.3237
  689TP3     H213887   4.359   2.452   1.553 -3.4207 -0.1196  0.5471
  690TP3      O13888   0.910   1.864   0.178  1.0934 -0.0786 -0.4303
  690TP3     H113889   0.909   1.818   0.262  0.2289 -0.8807 -0.8734
  690TP3     H213890   0.938   1.953   0.201  2.7081 -0.7593  0.4466
  691TP3      O13891   1.231   5.045   8.990  0.2748 -0.5895  0.1952
  691TP3     H113892   1.272   5.023   8.906 -0.0223  0.0666 -0.1277
  691TP3     H213893   1.139   5.062   8.968  0.8575  3.1985 -0.0120
  692TP3      O13894   3.405   4.456   0.143 -0.0435  0.4099  0.6796
  692TP3     H113895   3.424   4.367   0.114 -1.9435  0.1725  0.0248
  692TP3     H213896   3.475   4.509   0.105  1.2694 -0.8039  1.2908
  693TP3      O13897   1.155   2.717   1.692 -0.4665  0.1240  0.3677
  693TP3     H113898   1.157   2.736   1.785  0.6094  0.5516  0.2614
  693TP3     H213899   1.168   2.622   1.686 -2.7122 -0.2597  0.7360
  694TP3      O13900   4.740   4.235   2.524  0.7510  0.3369 -0.5366
  694TP3     H113901   4.719   4.147   2.554 -1.9124  1.0266 -0.1933
  694TP3     H213902   4.809   4.222   2.458  1.3359 -1.8404  0.4133
  695TP3      O13903   3.175   1.351   9.469  0.4546  0.5853 -0.3870
  695TP3     H113904   3.126   1.325   9.548  1.1991  1.0991  0.2648
  695TP3     H213905   3.116   1.410   9.423  0.3152  0.9202  0.2082
  696TP3      O13906   1.510   4.266   9.618  0.4036  0.0868 -0.4807
  696TP3     H113907   1.604   4.257   9.632  0.2021 -0.8401  0.3945
  696TP3     H213908   1.488   4.197   9.556  0.1497 -0.3071  0.0428
  697TP3      O13909   4.116   0.186   9.087  0.2674  0.2587  0.2319
  697TP3     H113910   4.181   0.122   9.058  1.2000  1.4273 -0.3392
  697TP3     H213911   4.117   0.179   9.182 -0.5822 -1.4445  0.1591
  698TP3      O13912   5.263   0.755   9.321  0.4515 -0.4000  0.0650
  698TP3     H113913   5.264   0.700   9.242 -0.5651 -0.6387  0.2104
  698TP3     H213914   5.341   0.728   9.370 -0.5329 -2.4131  0.6000
  699TP3      O13915   5.167   3.160   8.320  0.1218 -0.1389  0.3633
  699TP3     H113916   5.131   3.082   8.362  2.1471 -2.1476 -1.3982
  699TP3     H213917   5.169   3.138   8.227  1.3611  1.7649 -0.1064
  700TP3      O13918   2.164   1.093   2.687 -0.2256  0.0379  1.1164
  700TP3     H113919   2.091   1.115   2.629  0.2982 -1.1996 -0.1043
  700TP3     H213920   2.206   1.176   2.706 -0.0223  0.4506 -0.8916
  701TP3      O13921   2.447   2.874   1.825 -0.5077 -0.7002  0.6039
  701TP3     H113922   2.526   2.928   1.823  0.5083 -2.1462  0.4267
  701TP3     H213923   2.476   2.789   1.858 -2.0124 -1.2442  0.6310
  702TP3      O13924   1.013   4.105   0.408  0.0607  0.7093 -0.5718
  702TP3     H113925   1.018   4.011   0.422  0.8463  0.9479  0.9728
  702TP3     H213926   1.097   4.128   0.369 -0.0482  0.8030 -0.7534
  703TP3      O13927   3.889   0.709   2.348  0.0426  0.2825  0.2763
  703TP3     H113928   3.818   0.773   2.355  0.1691  0.4140  0.3526
  703TP3     H213929   3.868   0.643   2.414 -0.9571 -0.6038 -0.8660
  704TP3      O13930   1.794   0.753   9.307 -0.1448  0.7087 -0.1827
  704TP3     H113931   1.880   0.789   9.329  0.3762  1.2993 -2.8830
  704TP3     H213932   1.736   0.830   9.302 -0.0636  0.7142 -1.4666
  705TP3      O13933   1.506   3.350   0.552 -0.3052  0.8315 -0.4762
  705TP3     H113934   1.579   3.325   0.496 -0.7240 -0.4677 -0.4785
  705TP3     H213935   1.432   3.300   0.518 -0.9422  1.2822  0.2159
  706TP3      O13936   2.736   3.817   0.394  0.3351  0.0206  0.0937
  706TP3     H113937   2.656   3.870   0.396 -1.2168 -2.1155 -0.8377
  706TP3     H213938   2.806   3.880   0.380 -1.1584  1.9999  0.9678
  707TP3      O13939   3.002   4.598   2.330 -0.1786 -0.1159 -0.3060
  707TP3     H113940   3.052   4.560   2.258  0.1512 -2.3673  1.0165
  707TP3     H213941   2.936   4.532   2.351 -1.2463  1.1521  0.4807
  708TP3      O13942   3.862   3.260   6.962  0.2592 -0.7268  0.0007
  708TP3     H113943   3.877   3.172   6.999 -0.0451 -1.5276 -1.6681
  708TP3     H213944   3.785   3.249   6.906  0.4780  0.5119 -0.5656
  709TP3      O13945   0.518   0.335   8.197 -0.2221  0.0642  0.0576
  709TP3     H113946   0.611   0.312   8.197 -0.2318  0.0185  0.4055
  709TP3     H213947   0.517   0.431   8.193 -0.1702  0.0398 -0.5767
  710TP3      O13948   2.591   1.960   8.702  0.1505  0.4224  0.0160
  710TP3     H113949   2.583   1.963   8.797  0.9223  2.7927  0.0657
  710TP3     H213950   2.540   1.883   8.676 -0.7415  0.1806  2.2706
  711TP3      O13951   0.748   2.170   2.288  0.6842 -0.0211 -0.1503
  711TP3     H113952   0.801   2.125   2.222  0.1359  0.1270 -0.6990
  711TP3     H213953   0.685   2.105   2.317  0.7570 -0.0073  0.0371
  712TP3      O13954   4.974   5.033   2.054 -0.5146  0.3397 -0.4418
  712TP3     H113955   4.910   4.963   2.044  0.4824 -0.6598 -0.0144
  712TP3     H213956   5.045   5.009   1.994 -0.8668  1.8622 -1.5385
  713TP3      O13957   4.445   1.470   8.354  0.2587 -0.1826  0.2098
  713TP3     H113958   4.489   1.549   8.384  2.3442 -1.0348 -0.4325
  713TP3     H213959   4.464   1.404   8.421 -0.3784 -0.4764  0.1137
  714TP3      O13960   2.312   1.638   3.596 -0.3291  0.1852 -0.3266
  714TP3     H113961   2.400   1.677   3.597  0.2116 -0.9906 -0.4427
  714TP3     H213962   2.259   1.700   3.546  1.1912 -0.5809 -3.1417
  715TP3      O13963   1.390   3.350   0.165  0.2349 -0.4348 -0.0952
  715TP3     H113964   1.310   3.302   0.187 -0.5114  0.2546 -1.2142
  715TP3     H213965   1.453   3.282   0.142 -0.5233 -0.9237 -0.7731
  716TP3      O13966   1.868   3.209   0.356 -0.0229  0.0412 -0.2846
  716TP3     H113967   1.819   3.132   0.385  0.1578  0.2160  0.5076
  716TP3     H213968   1.839   3.223   0.266 -2.4767  0.9424  0.5498
  717TP3      O13969   1.077   0.325   7.783  0.6604 -0.5822 -0.2670
  717TP3     H113970   1.129   0.245   7.771 -0.3660 -1.5664  1.4781
  717TP3     H213971   1.118   0.369   7.858 -0.5885 -1.0771  0.7577
  718TP3      O13972   0.444   2.471   3.514 -0.2828 -0.2216 -0.0616
  718TP3     H113973   0.539   2.466   3.521 -0.1501 -0.7994 -1.9161
  718TP3     H213974   0.427   2.546   3.458 -0.8472 -0.9475 -0.8851
  719TP3      O13975   4.490   2.508   9.124  0.2160  0.4749 -0.2097
  719TP3     H113976   4.482   2.443   9.193 -0.5406  0.0537 -0.6822
  719TP3     H213977   4.462   2.462   9.044 -1.8343  1.7759 -0.3215
  720TP3      O13978   1.474   3.861   8.269  0.1004  0.6584  0.0970
  720TP3     H113979   1.427   3.794   8.219 -0.2969  0.7442  0.3446
  720TP3     H213980   1.408   3.930   8.283  0.8993  1.7922 -1.4516
  721TP3      O13981   3.730   0.341   0.779  0.5365 -0.6305  0.2775
  721TP3     H113982   3.797   0.273   0.784  0.5425 -0.6269  0.2425
  721TP3     H213983   3.772   0.419   0.818  0.5660 -0.6172  0.2190
  722TP3      O13984   1.088   2.536   9.944  0.1300 -0.6611  0.4172
  722TP3     H113985   1.107   2.548  10.037 -0.4001 -0.3395  0.4861
  722TP3     H213986   1.035   2.456   9.941 -1.1557  0.1605  0.5647
  723TP3      O13987   4.043   3.571   2.510  0.0993  0.2431  0.3993
  723TP3     H113988   3.983   3.568   2.435  1.0772 -0.4548 -0.3884
  723TP3     H213989   4.080   3.659   2.507  1.4143 -0.3124 -1.0157
  724TP3      O13990   1.520   4.731   2.218  0.2327 -0.2268  0.2233
  724TP3     H113991   1.525   4.819   2.180  0.2295 -0.5015 -0.4332
  724TP3     H213992   1.464   4.683   2.157 -0.4631 -0.4530  1.0311
  725TP3      O13993   2.708   0.878   9.112 -0.4385  0.5726  0.8884
  725TP3     H113994   2.743   0.957   9.153 -0.0406  0.5187  0.6552
  725TP3     H213995   2.784   0.823   9.098 -0.3272  1.2297 -1.3723
  726TP3      O13996   2.335   1.515   9.063  0.2143 -0.1981  0.6653
  726TP3     H113997   2.335   1.492   9.156  1.4359  1.3007  1.0592
  726TP3     H213998   2.419   1.557   9.047  0.6691 -1.7017 -1.4793
  727TP3      O13999   1.582   4.284   9.320  0.3402 -0.3111  0.0859
  727TP3     H114000   1.513   4.220   9.341 -0.8322  1.2658  1.2465
  727TP3     H214001   1.663   4.237   9.338 -0.4660 -1.7265  0.2023
  728TP3      O14002   2.408   1.086   1.483 -0.1756 -0.8125  0.4146
  728TP3     H114003   2.468   1.014   1.463  0.8250 -0.3372  1.5748
  728TP3     H214004   2.338   1.077   1.419  2.1902 -0.0727 -2.5016
  729TP3      O14005   0.478   0.970   0.386  0.0244 -0.6195  0.0140
  729TP3     H114006   0.432   1.054   0.374  0.7209 -0.3110 -0.5514
  729TP3     H214007   0.463   0.923   0.304  0.5488 -0.5919 -0.1019
  730TP3      O14008   0.217   3.782  10.016  0.0449 -0.1177 -0.2767
  730TP3     H114009   0.210   3.838  10.094  0.2690  0.1716 -0.4611
  730TP3     H214010   0.165   3.827   9.950 -0.1204 -0.3488 -0.3030
  731TP3      O14011   2.010   3.233   2.396 -0.2071  0.2429  0.0756
  731TP3     H114012   2.083   3.284   2.361 -0.7087  1.2163  0.4192
  731TP3     H214013   1.986   3.174   2.325  0.2397  0.6449 -0.4137
  732TP3      O14014   1.788   1.023   0.674  0.4314 -0.1582 -0.5156
  732TP3     H114015   1.804   1.020   0.580  2.0589 -1.4798 -0.2328
  732TP3     H214016   1.875   1.030   0.713 -0.2510  0.9634  0.9027
  733TP3      O14017   3.490   2.751   9.140  0.5212 -0.4080  0.1996
  733TP3     H114018   3.554   2.680   9.135  0.6406 -0.2256 -1.5733
  733TP3     H214019   3.515   2.810   9.069 -0.5118  0.6248  0.6658
  734TP3      O14020   3.224   3.141   0.001 -0.1312 -0.6073  0.1880
  734TP3     H114021   3.200   3.210   0.063 -0.2309  0.9398 -1.4990
  734TP3     H214022   3.160   3.149  -0.070  1.6010 -0.5064 -1.4207
  735TP3      O14023   3.032   1.463   6.705  0.2899  0.4441 -0.4893
  735TP3     H114024   2.990   1.547   6.683 -1.3392 -0.2710 -0.2321
  735TP3     H214025   3.070   1.478   6.792  1.0260  1.2533 -0.9288
  736TP3      O14026   1.226   4.359   9.000 -0.2375  0.4441 -0.3444
  736TP3     H114027   1.242   4.352   8.906 -1.3372 -1.4420 -0.4546
  736TP3     H214028   1.206   4.270   9.028  1.0486  0.7639  1.9033
  737TP3      O14029   4.775   3.410   0.311 -0.1461 -0.0620  0.2631
  737TP3     H114030   4.733   3.325   0.301 -0.6660  0.0384  1.4845
  737TP3     H214031   4.804   3.412   0.402 -1.1499  1.5153  0.5811
  738TP3      O14032   3.859   2.685   1.510 -0.4341  0.5125  0.0756
  738TP3     H114033   3.798   2.739   1.560  0.7940  1.3792  0.6961
  738TP3     H214034   3.910   2.638   1.576 -1.1185 -1.0348 -0.4471
  739TP3      O14035   4.675   0.743   2.388 -0.5957 -0.0689 -0.4085
  739TP3     H114036   4.678   0.812   2.321 -0.4567 -1.0170 -1.4210
  739TP3     H214037   4.761   0.748   2.431 -1.4346  1.9138  1.1851
  740TP3      O14038   3.750   4.243   9.962  0.0057 -0.5186 -0.1582
  740TP3     H114039   3.823   4.275  10.015 -1.8570 -0.9782  2.9761
  740TP3     H214040   3.783   4.163   9.921  0.8192 -1.8035  2.7150
  741TP3      O14041   1.452   3.893   2.101 -0.0838  0.2395 -0.7291
  741TP3     H114042   1.392   3.951   2.053  0.7456  0.8506 -1.0555
  741TP3     H214043   1.430   3.906   2.193  0.6056  1.6887 -0.7416
  742TP3      O14044   1.251   2.014   7.167  0.0215  0.0246  0.3142
  742TP3     H114045   1.321   2.074   7.193 -0.1076 -0.8811  2.9928
  742TP3     H214046   1.171   2.062   7.184 -0.0600 -0.5274  1.6266
  743TP3      O14047   0.435   3.112   0.609  0.1561  0.5024 -0.3931
  743TP3     H114048   0.445   3.091   0.702  0.9967  0.0832 -0.5641
  743TP3     H214049   0.345   3.086   0.588  1.1378 -3.4332 -0.6577
  744TP3      O14050   4.599   5.211   1.702  0.5545  0.0232 -0.3123
  744TP3     H114051   4.689   5.181   1.714 -0.2317 -1.8534  1.5004
  744TP3     H214052   4.598   5.300   1.740  1.1372 -0.8926  2.0575
  745TP3      O14053   4.510   2.685   1.379 -0.2391  0.2622 -0.1081
  745TP3     H114054   4.574   2.727   1.436  0.5771  1.2965 -1.7187
  745TP3     H214055   4.426   2.716   1.411  0.1080 -0.1421  1.2676
  746TP3      O14056   2.186   1.567   1.629  0.2553  0.1576 -0.0742
  746TP3     H114057   2.195   1.495   1.567 -0.2331 -1.3216  1.4815
  746TP3     H214058   2.185   1.525   1.715 -1.5176  1.8687  0.8490
  747TP3      O14059   4.848   3.886   1.770 -0.0323  0.1560 -0.1935
  747TP3     H114060   4.813   3.849   1.851 -2.4733 -0.1341 -1.2823
  747TP3     H214061   4.864   3.978   1.791 -1.8622  0.3985  0.3297
  748TP3      O14062   0.749   1.762   1.055 -0.2558  0.3140 -0.1591
  748TP3     H114063   0.752   1.674   1.092 -1.9158  0.8339  1.3405
  748TP3     H214064   0.664   1.796   1.082  0.5224  2.5331 -0.3441
  749TP3      O14065   2.124   0.802   2.213 -0.5479  0.6035 -0.2883
  749TP3     H114066   2.077   0.722   2.239  0.0516  0.0352 -0.8863
  749TP3     H214067   2.205   0.799   2.264  1.5738 -1.5545 -3.4006
  750TP3      O14068   4.460   0.133   9.775 -0.1239 -0.8017 -0.4449
  750TP3     H114069   4.393   0.151   9.841  1.5428  0.0411  1.1435
  750TP3     H214070   4.444   0.195   9.705 -1.0529 -0.6955 -0.1423
  751TP3      O14071   4.628   0.149   7.149 -0.4198  0.0109 -0.8399
  751TP3     H114072   4.625   0.245   7.154 -0.5895  0.1608 -2.9414
  751TP3     H214073   4.720   0.129   7.131 -0.5646 -0.1585 -1.3933
  752TP3      O14074   2.939   0.058   2.309 -0.4555 -0.4302  0.4850
  752TP3     H114075   2.850   0.045   2.277  0.0288 -1.9304 -0.3797
  752TP3     H214076   2.960  -0.024   2.355  0.4323 -0.0475  0.7814
  753TP3      O14077   4.051   0.373   1.316  0.3678  0.2571 -0.5434
  753TP3     H114078   4.112   0.333   1.254 -0.2939 -1.4604 -0.1250
  753TP3     H214079   4.107   0.411   1.384  1.0215  0.4608 -1.1787
  754TP3      O14080   1.039   2.312   7.538  0.0161 -0.1646 -0.5478
  754TP3     H114081   1.119   2.289   7.492  0.5667 -0.8455  0.7024
  754TP3     H214082   1.061   2.303   7.631 -1.5894 -0.6928 -0.1795
  755TP3      O14083   0.224   3.441   1.295  0.0613  0.1117 -0.3756
  755TP3     H114084   0.146   3.482   1.256  0.5180  1.2656 -0.1234
  755TP3     H214085   0.232   3.357   1.249 -0.5002  0.6070 -1.4287
  756TP3      O14086   3.478   4.722   1.234 -0.0291 -0.8019 -0.2109
  756TP3     H114087   3.443   4.771   1.309 -0.3685 -0.9359 -0.2779
  756TP3     H214088   3.451   4.631   1.251  0.2535 -0.8994 -0.2869
  757TP3      O14089   3.920   3.433   2.813 -0.3872 -0.4847  0.6548
  757TP3     H114090   3.844   3.434   2.872 -0.8931  0.7093  0.0106
  757TP3     H214091   3.991   3.401   2.868 -0.6013  1.5495  2.2705
  758TP3      O14092   4.124   2.494   2.252 -0.1178 -0.1934  0.8921
  758TP3     H114093   4.054   2.450   2.204  0.6728  0.9277 -1.3790
  758TP3     H214094   4.097   2.585   2.258  0.2132 -0.1402  1.8340
  759TP3      O14095   5.020   0.631   0.899  0.4419  0.0654 -0.2314
  759TP3     H114096   5.055   0.619   0.988  0.9368 -0.8954 -0.5472
  759TP3     H214097   4.990   0.722   0.898  0.8684  0.2365  0.7720
  760TP3      O14098   0.331   2.628   8.410 -0.4458  0.9068 -0.1332
  760TP3     H114099   0.245   2.587   8.403  0.8237 -1.9574 -0.4492
  760TP3     H214100   0.378   2.599   8.332  0.2803  4.0000 -0.9890
  761TP3      O14101   1.710   4.466   7.949 -0.0184 -0.4532  0.5282
  761TP3     H114102   1.646   4.514   8.000  1.5464  0.6239  1.5562
  761TP3     H214103   1.713   4.379   7.989 -1.2510 -0.7265  0.0675
  762TP3      O14104   4.708   1.241   0.028 -0.0313  0.2255 -0.3699
  762TP3     H114105   4.784   1.183   0.019 -0.6516 -1.1461  2.3962
  762TP3     H214106   4.714   1.274   0.118 -1.3771  2.1080 -0.9117
  763TP3      O14107   4.708   3.959   1.447 -0.7769 -0.3559 -0.6408
  763TP3     H114108   4.799   3.979   1.424 -0.4488 -0.4179  0.5477
  763TP3     H214109   4.711   3.938   1.541 -2.3104  1.6416 -0.0668
  764TP3      O14110   4.883   4.493   9.563 -0.0431 -0.1997 -0.7508
  764TP3     H114111   4.921   4.434   9.497 -0.6152 -0.6371 -0.6984
  764TP3     H214112   4.944   4.566   9.568 -0.2337  0.0645 -2.1006
  765TP3      O14113   0.431   2.404   1.816 -0.1248 -0.0356  0.1885
  765TP3     H114114   0.474   2.356   1.746 -0.8614 -0.3903 -0.0302
  765TP3     H214115   0.339   2.406   1.791 -0.1670  1.1801  0.3804
  766TP3      O14116   5.158   4.273   8.877 -0.2092  0.3618 -0.5162
  766TP3     H114117   5.138   4.352   8.827  1.4182  0.2082 -1.4964
  766TP3     H214118   5.251   4.257   8.860 -0.5569 -1.9676 -0.6548
  767TP3      O14119   4.310   3.593   9.776 -0.4569 -0.1037  0.7065
  767TP3     H114120   4.388   3.626   9.731 -1.6337  1.6775 -0.0898
  767TP3     H214121   4.273   3.669   9.820 -3.3807 -0.1422 -1.3765
  768TP3      O14122   3.794   2.063   1.870 -0.1354  0.4034 -0.3340
  768TP3     H114123   3.832   2.033   1.953  0.4059  1.8934 -0.0217
  768TP3     H214124   3.723   2.001   1.852  2.4679 -2.6972 -1.0410
  769TP3      O14125   3.555   3.502   0.576 -0.2690  0.0448  0.8308
  769TP3     H114126   3.508   3.559   0.635 -0.7579 -0.4222  0.8991
  769TP3     H214127   3.535   3.413   0.606 -1.4317 -0.2472 -0.6900
  770TP3      O14128   3.733   5.130   2.208  0.9780 -0.1472  0.2760
  770TP3     H114129   3.685   5.109   2.288 -0.6714 -0.3277 -0.7082
  770TP3     H214130   3.735   5.226   2.206 -0.3895 -0.0992 -0.2110
  771TP3      O14131   0.106   2.057   3.428  0.2694 -0.0919  0.2107
  771TP3     H114132   0.198   2.056   3.457  0.2479  0.7965  0.3311
  771TP3     H214133   0.057   2.074   3.508  0.0424  0.1134  0.0256
  772TP3      O14134   1.174   1.156   0.645  0.0075  0.4231  0.9533
  772TP3     H114135   1.146   1.140   0.555  0.9335 -2.5252  1.0780
  772TP3     H214136   1.252   1.211   0.636 -0.0816  0.4020 -0.0547
  773TP3      O14137   2.139   0.474   9.111  0.2868  0.6178 -0.4395
  773TP3     H114138   2.228   0.462   9.079 -0.1914 -2.8082 -0.9092
  773TP3     H214139   2.084   0.434   9.044 -1.6680  2.5625 -0.1161
  774TP3      O14140   1.039   2.212   9.160 -0.5854 -0.2662  0.0211
  774TP3     H114141   1.114   2.158   9.189 -0.2494  0.4093  0.4444
  774TP3     H214142   1.080   2.285   9.114 -1.0902 -0.9144 -1.4902
  775TP3      O14143   0.165   3.644   7.649  0.0612  0.6903  0.2186
  775TP3     H114144   0.207   3.599   7.575 -1.2084  1.3495 -0.9699
  775TP3     H214145   0.088   3.590   7.669 -1.2688  2.0187 -0.9783
  776TP3      O14146   4.252   0.971   3.664 -0.3589 -0.1454  0.3564
  776TP3     H114147   4.166   0.930   3.677 -0.5430 -0.2271 -0.9900
  776TP3     H214148   4.299   0.910   3.608 -0.4666  1.2398 -1.3077
  777TP3      O14149   1.704   3.811   1.458 -0.1204 -0.0097 -0.1920
  777TP3     H114150   1.678   3.827   1.367  0.3079  1.5778 -0.0647
  777TP3     H214151   1.685   3.718   1.472 -0.6491 -0.1715 -1.7458
  778TP3      O14152   3.549   4.779   9.342 -0.0977  0.4741  0.2109
  778TP3     H114153   3.552   4.783   9.246  1.5198  0.4114  0.2303
  778TP3     H214154   3.522   4.689   9.361 -0.8919  0.6228 -0.1771
  779TP3      O14155   3.036   0.835   1.560  0.2175 -0.0856  0.3303
  779TP3     H114156   3.058   0.745   1.585  2.0304  0.1376 -0.2968
  779TP3     H214157   3.003   0.875   1.640  0.1163 -1.0895  0.8019
  780TP3      O14158   1.901   5.026   1.226  0.4551  0.1283  0.1645
  780TP3     H114159   1.993   5.038   1.250  0.4408  0.1505  0.2097
  780TP3     H214160   1.899   5.041   1.132  0.3170  1.2216  0.3209
  781TP3      O14161   2.416   3.043   9.748 -0.0910  0.3605 -0.6949
  781TP3     H114162   2.364   3.005   9.677 -0.9800  0.8866 -0.3528
  781TP3     H214163   2.363   3.117   9.779  0.8644  0.9113 -0.3194
  782TP3      O14164   4.712   2.688   2.787 -0.3263  0.3128  0.4489
  782TP3     H114165   4.639   2.749   2.790  0.6016  1.4343  1.0316
  782TP3     H214166   4.684   2.614   2.840 -0.8060  0.9940  1.1557
  783TP3      O14167   1.666   4.509   9.239  0.1113  0.2605  0.5702
  783TP3     H114168   1.618   4.436   9.278  0.5504 -0.1591  0.3319
  783TP3     H214169   1.602   4.552   9.182 -0.3082  0.4083  1.1456
  784TP3      O14170   3.246   2.918   2.064 -0.2888 -0.2412  0.0519
  784TP3     H114171   3.196   2.877   1.994 -1.6156  0.5926  0.4673
  784TP3     H214172   3.207   3.005   2.074  2.9633  1.5433 -1.3743
  785TP3      O14173   1.957   5.099   1.695  0.0918 -0.3989 -0.0228
  785TP3     H114174   2.003   5.158   1.755 -1.3005  0.5468  0.1422
  785TP3     H214175   1.864   5.114   1.712 -0.3157 -1.5223 -1.0770
  786TP3      O14176   2.251   4.919   9.407 -0.1402 -0.2339  0.0467
  786TP3     H114177   2.266   4.993   9.349  0.3997 -0.8264 -0.5922
  786TP3     H214178   2.337   4.878   9.417  0.0814  0.6230  2.3796
  787TP3      O14179   4.670   4.975   7.540  0.0486  0.1863 -0.2290
  787TP3     H114180   4.654   4.893   7.494  1.6204  0.3389 -1.1002
  787TP3     H214181   4.634   5.043   7.483 -0.0104  0.2108 -0.1630
  788TP3      O14182   2.939   3.449   7.901 -0.2083 -0.5789  0.4400
  788TP3     H114183   2.954   3.512   7.830  0.4631  0.4923  1.4999
  788TP3     H214184   3.011   3.386   7.894 -1.4122 -1.8771 -1.2325
  789TP3      O14185   3.192   1.086   7.465  0.1208 -0.0315 -0.9403
  789TP3     H114186   3.181   0.993   7.486  1.7762  0.3607  2.2787
  789TP3     H214187   3.267   1.088   7.406  0.7077 -0.6829 -0.2351
  790TP3      O14188   2.394   0.862   3.050 -0.2620  0.4562  0.5955
  790TP3     H114189   2.391   0.912   3.132  1.9647  1.8241 -0.0352
  790TP3     H214190   2.377   0.928   2.982 -1.6464 -0.5756 -0.1011
  791TP3      O14191   4.916   0.956   8.105  0.3074  0.2447  0.2150
  791TP3     H114192   4.883   0.890   8.044 -3.0819  2.5665 -0.8098
  791TP3     H214193   4.914   1.037   8.054  2.4597  1.4839  1.9601
  792TP3      O14194   0.710   3.621   8.547 -0.0861  0.0078  0.3982
  792TP3     H114195   0.751   3.553   8.600 -1.4020 -0.6267  0.6671
  792TP3     H214196   0.683   3.688   8.610  0.9612  0.6618  0.1649
  793TP3      O14197   3.139   4.157   2.932  0.4771  0.2579 -0.0611
  793TP3     H114198   3.195   4.224   2.893  0.8269 -0.7454 -1.3972
  793TP3     H214199   3.187   4.125   3.008  1.9627 -0.8353 -1.3900
  794TP3      O14200   0.404   2.187   8.461 -0.0923 -0.0104 -0.1770
  794TP3     H114201   0.452   2.109   8.488 -1.1117 -1.5905 -2.6437
  794TP3     H214202   0.446   2.214   8.379  0.8616  2.6968  1.0888
  795TP3      O14203   3.104   4.164   2.325  0.0475  0.2749 -0.6750
  795TP3     H114204   3.061   4.141   2.407 -0.4729 -1.0214 -1.2789
  795TP3     H214205   3.185   4.114   2.325  0.0013  0.1937 -0.9734
  796TP3      O14206   0.780   1.490   8.259  0.3154  0.5040  0.5306
  796TP3     H114207   0.741   1.576   8.244  1.1150  0.9223  0.7903
  796TP3     H214208   0.842   1.504   8.331 -0.2396 -0.5001  1.2305
  797TP3      O14209   4.576   3.021   1.067  0.4217 -0.0213 -0.0877
  797TP3     H114210   4.623   2.953   1.019  0.8246  0.8185 -0.9287
  797TP3     H214211   4.489   2.984   1.082 -0.0984  0.0720 -2.4569
  798TP3      O14212   3.809   4.602   9.936 -0.2826  0.1681 -0.5883
  798TP3     H114213   3.905   4.593   9.938 -0.2496  0.2619 -1.5274
  798TP3     H214214   3.794   4.693   9.962 -0.2320 -0.3296  1.3645
  799TP3      O14215   4.686   0.993   8.784  0.3293  0.9016 -0.5507
  799TP3     H114216   4.678   1.059   8.852  2.0295 -0.6436  1.2934
  799TP3     H214217   4.602   0.947   8.785  0.6269  0.3248  1.2115
  800TP3      O14218   0.216   0.038   8.620 -0.2828 -0.3627 -0.7606
  800TP3     H114219   0.182   0.105   8.679  3.4587  0.6125  0.5299
  800TP3     H214220   0.189  -0.045   8.660  1.6926  0.2821  2.2387
  801TP3      O14221   0.722   4.385   1.550  0.3987  0.3090  0.5006
  801TP3     H114222   0.685   4.333   1.479 -1.6380  0.9515  1.0407
  801TP3     H214223   0.696   4.338   1.630  0.6924  0.8183  0.8995
  802TP3      O14224   0.453   3.670   2.015 -0.6430 -0.0621 -0.5754
  802TP3     H114225   0.445   3.628   2.100  0.4673 -0.9292 -0.8879
  802TP3     H214226   0.415   3.607   1.953  0.9236 -0.6017 -1.0311
  803TP3      O14227   0.866   1.835   9.202  0.0802  0.6615 -0.1196
  803TP3     H114228   0.852   1.835   9.107 -0.0193  3.0315 -0.1588
  803TP3     H214229   0.783   1.805   9.238  0.4336 -1.2471 -0.7466
  804TP3      O14230   0.705   1.695   2.262  0.6703 -0.6208  0.1322
  804TP3     H114231   0.689   1.657   2.176  0.0910 -1.9621  0.7951
  804TP3     H214232   0.799   1.709   2.265  0.4060  2.4748 -1.8874
  805TP3      O14233   4.588   1.392   7.204 -0.0070  0.4621 -0.6598
  805TP3     H114234   4.653   1.346   7.257  0.1934  1.5022  0.0329
  805TP3     H214235   4.612   1.372   7.114  0.1250 -0.6969 -0.3760
  806TP3      O14236   2.296   3.068   1.699  0.6558  0.3050  0.6681
  806TP3     H114237   2.235   3.041   1.630  0.4903  0.4617  0.7503
  806TP3     H214238   2.338   2.988   1.728  0.2776  0.1584  0.8108
  807TP3      O14239   4.902   2.462   9.755  0.9046  0.2219  0.2633
  807TP3     H114240   4.957   2.463   9.833 -0.3520 -0.2571  1.1761
  807TP3     H214241   4.816   2.489   9.785 -0.1563 -2.0487 -0.5075
  808TP3      O14242   1.188   3.587   3.286  0.1737  0.5667  0.3368
  808TP3     H114243   1.142   3.603   3.368 -0.5436  1.4956 -0.2299
  808TP3     H214244   1.211   3.674   3.254  1.8907  0.1474  0.3388
  809TP3      O14245   1.125   3.698   1.025 -0.4871 -0.0742 -0.9288
  809TP3     H114246   1.111   3.698   0.931  0.4535 -1.0041 -1.0836
  809TP3     H214247   1.039   3.718   1.062 -0.9810 -0.2182 -1.9617
  810TP3      O14248   4.978   2.849   7.012  0.1869  0.2949  0.3046
  810TP3     H114249   4.972   2.798   6.931  1.8292  1.1273 -0.4096
  810TP3     H214250   5.035   2.796   7.069  1.0179  0.7942 -0.0353
  811TP3      O14251   3.881   2.870   0.463 -0.2827  0.0618 -0.1450
  811TP3     H114252   3.968   2.834   0.451 -0.4131  0.1025 -1.2707
  811TP3     H214253   3.866   2.865   0.558  0.2579 -1.5190 -0.1093
  812TP3      O14254   4.964   0.066   2.355 -0.4599 -0.0681  0.3438
  812TP3     H114255   4.987   0.039   2.266 -0.0785 -0.6822  0.6303
  812TP3     H214256   5.038   0.120   2.383 -0.7462  0.4279  0.1585
  813TP3      O14257   0.486   1.033   2.141 -0.1006 -0.0667  0.0869
  813TP3     H114258   0.454   1.098   2.204 -0.4753 -1.9038  1.9017
  813TP3     H214259   0.581   1.043   2.142 -0.1799  0.7415  0.0088
  814TP3      O14260   2.898   1.373   8.921  0.2788  0.7239 -0.6502
  814TP3     H114261   2.854   1.366   8.836  1.3983 -0.3713 -1.1728
  814TP3     H214262   2.925   1.284   8.941  2.3315  1.3508 -0.4069
  815TP3      O14263   0.182   0.004   7.256 -0.2982 -0.3836  0.4079
  815TP3     H114264   0.213  -0.072   7.306 -0.4188  0.2263  1.4497
  815TP3     H214265   0.241   0.010   7.181 -0.3730 -1.5774  0.2413
  816TP3      O14266   3.338   4.915   3.786  0.4927  0.6611 -0.5542
  816TP3     H114267   3.330   5.003   3.749 -1.5140  0.5950 -0.3789
  816TP3     H214268   3.260   4.869   3.754  0.4738 -0.4263  0.9939
  817TP3      O14269   1.283   1.915   8.271 -0.0723 -0.7577 -0.4060
  817TP3     H114270   1.370   1.942   8.240  0.3676 -1.8881 -0.2448
  817TP3     H214271   1.280   1.821   8.251 -0.7541 -0.9954  0.7350
  818TP3      O14272   1.446   2.535   6.870  0.5073  0.6776 -0.4293
  818TP3     H114273   1.525   2.590   6.867 -0.0814  1.5404 -0.6649
  818TP3     H214274   1.389   2.571   6.802  0.2693 -0.5190 -0.8883
  819TP3      O14275   0.320   3.463   1.812 -0.5280 -0.6631 -0.1356
  819TP3     H114276   0.365   3.489   1.731  0.9177 -1.8198  0.2595
  819TP3     H214277   0.379   3.401   1.853 -1.4015 -0.3597  1.6634
  820TP3      O14278   3.381   4.057   2.695  0.6685 -0.3044 -0.0812
  820TP3     H114279   3.429   4.138   2.710  1.5284 -0.4374 -1.8607
  820TP3     H214280   3.365   4.056   2.601 -0.7247 -1.4534  0.1290
  821TP3      O14281   2.311   0.404   9.495 -0.2101  0.2847  0.0854
  821TP3     H114282   2.333   0.380   9.405 -1.3625 -1.7587  0.2854
  821TP3     H214283   2.359   0.341   9.549  1.0090  1.9011  1.0049
  822TP3      O14284   2.508   1.218   9.501  0.1758  0.0095 -0.6089
  822TP3     H114285   2.452   1.222   9.579 -1.7535  0.6552 -1.9653
  822TP3     H214286   2.524   1.124   9.489  0.2972 -0.1130  0.4186
  823TP3      O14287   3.101   5.045   3.410 -0.4019  0.1605  0.4947
  823TP3     H114288   3.173   5.108   3.407 -0.6007  0.3992 -2.6520
  823TP3     H214289   3.034   5.089   3.463  0.2203  1.7264  0.0315
  824TP3      O14290   0.354   2.557   0.590 -0.0979 -0.2050  0.4160
  824TP3     H114291   0.357   2.562   0.494 -0.2462  0.4783  0.4471
  824TP3     H214292   0.318   2.469   0.607  0.8623 -0.7249 -0.1325
  825TP3      O14293   0.150   4.900   2.101 -0.1783  0.4585 -0.1436
  825TP3     H114294   0.179   4.972   2.157  0.4561  0.7831 -0.8714
  825TP3     H214295   0.230   4.853   2.079 -0.5692 -0.3673  0.1797
  826TP3      O14296   0.242   0.107   2.133 -0.1778 -0.5460  0.1269
  826TP3     H114297   0.206   0.179   2.082 -1.7701 -0.4068  1.3942
  826TP3     H214298   0.242   0.033   2.072  0.3880  0.2023 -0.8259
  827TP3      O14299   2.972   5.021   9.800  0.0954 -0.1502  0.3311
  827TP3     H114300   3.038   4.992   9.863 -0.4344  0.6086  1.2713
  827TP3     H214301   3.023   5.048   9.723  0.9015  0.4776  1.0570
  828TP3      O14302   1.181   5.120   9.919 -0.3359 -0.1794  0.3991
  828TP3     H114303   1.204   5.030   9.894 -0.2001  0.1958 -0.8684
  828TP3     H214304   1.213   5.174   9.848 -1.0974  0.8180  0.7844
  829TP3      O14305   1.622   4.828   0.976  0.1682 -0.2291  0.1881
  829TP3     H114306   1.658   4.771   1.043 -1.7180 -1.3666  0.3063
  829TP3     H214307   1.652   4.916   1.000  0.4947 -0.7645  1.8183
  830TP3      O14308   0.383   5.097   2.537 -0.6527  0.4642 -0.6958
  830TP3     H114309   0.362   5.030   2.472  0.8340  0.4263 -1.1688
  830TP3     H214310   0.333   5.174   2.511  0.6145  0.7523 -2.4751
  831TP3      O14311   4.963   2.567   8.678  0.0611 -0.0251 -0.0311
  831TP3     H114312   5.052   2.567   8.641  0.5416  1.0421  1.0253
  831TP3     H214313   4.963   2.643   8.737 -0.8220 -1.3023  1.7124
  832TP3      O14314   3.356   1.001   0.878  0.4390  0.3620  0.0166
  832TP3     H114315   3.358   1.072   0.942 -0.5665  0.4627 -0.0358
  832TP3     H214316   3.447   0.977   0.865  0.6632  0.0189  1.8438
  833TP3      O14317   4.465   2.512   0.495 -0.1714 -0.3063 -0.4682
  833TP3     H114318   4.379   2.471   0.503 -0.2380 -0.3147 -1.1474
  833TP3     H214319   4.522   2.441   0.467  0.2327 -0.4807  0.7370
  834TP3      O14320   4.002   2.835   9.284  0.0657 -0.5557  0.1618
  834TP3     H114321   3.944   2.814   9.358 -0.6036 -0.7496 -0.4020
  834TP3     H214322   3.948   2.819   9.207  0.5729  0.1983 -0.3617
  835TP3      O14323   4.985   1.241   0.106 -0.1796 -0.7396  0.2482
  835TP3     H114324   5.022   1.154   0.089 -0.4151 -1.1369  1.6386
  835TP3     H214325   4.979   1.246   0.202 -0.3619  0.7333  0.1846
  836TP3      O14326   3.691   5.125   0.294  0.3390 -0.1325 -0.2849
  836TP3     H114327   3.643   5.090   0.219  0.1449  0.5437 -0.4872
  836TP3     H214328   3.783   5.104   0.276 -0.0143 -3.9608  1.4418
  837TP3      O14329   1.540   4.280   1.645 -0.3757 -0.2065  0.0105
  837TP3     H114330   1.466   4.322   1.688  0.4731  1.5195 -0.1228
  837TP3     H214331   1.524   4.293   1.551  0.0231  0.0644 -0.0218
  838TP3      O14332   2.769   2.437   2.658  0.5177 -0.1104 -0.0701
  838TP3     H114333   2.681   2.424   2.693  0.5735  1.0815  0.5503
  838TP3     H214334   2.769   2.387   2.576 -0.1046 -1.6853  0.8327
  839TP3      O14335   4.518   1.587   0.748  0.1389  0.5793  0.5790
  839TP3     H114336   4.527   1.559   0.657 -1.3484  2.5016 -0.2359
  839TP3     H214337   4.562   1.519   0.798  1.4896 -0.2642 -1.5913
  840TP3      O14338   3.706   1.716   1.455 -0.3408  0.3493 -0.1614
  840TP3     H114339   3.707   1.691   1.547 -0.1695  0.7770 -0.0446
  840TP3     H214340   3.798   1.725   1.432 -0.3991  1.8120  0.0684
  841TP3      O14341   4.529   4.160   7.654 -0.4204  0.1545 -0.1359
  841TP3     H114342   4.563   4.246   7.679 -0.9030  0.0557  0.9238
  841TP3     H214343   4.444   4.154   7.699 -0.2874 -0.9588 -0.0046
  842TP3      O14344   5.188   5.042   9.667  0.1006 -0.2708 -0.3693
  842TP3     H114345   5.231   5.022   9.583  1.4108  0.4684  0.0861
  842TP3     H214346   5.229   4.982   9.730  0.6169  0.5538  0.1028
  843TP3      O14347   2.872   2.794   9.676 -0.5007  0.1645 -0.3060
  843TP3     H114348   2.818   2.844   9.737 -0.9189  0.1913 -0.6979
  843TP3     H214349   2.946   2.764   9.729 -0.3755  0.9775 -0.0100
  844TP3      O14350   0.149   5.163   1.965 -0.0508 -0.4626  0.2252
  844TP3     H114351   0.174   5.077   1.931  1.6898  0.2804 -0.5161
  844TP3     H214352   0.114   5.145   2.052 -0.3963 -1.9827 -0.2015
  845TP3      O14353   2.999   2.350   2.805  0.2709  0.2452  0.5015
  845TP3     H114354   2.958   2.304   2.878 -0.3719 -0.5053 -0.3182
  845TP3     H214355   2.926   2.388   2.757  0.7421  1.5073  0.7247
  846TP3      O14356   0.658   4.591   9.699 -0.2310 -0.8912 -0.1766
  846TP3     H114357   0.685   4.571   9.609 -0.7945 -2.5806 -0.0047
  846TP3     H214358   0.690   4.517   9.750  1.1217  0.5933  1.2604
  847TP3      O14359   4.960   5.041   0.109  0.5282  0.6078  0.1318
  847TP3     H114360   5.048   5.042   0.147  0.8361 -0.4407 -0.5207
  847TP3     H214361   4.954   5.124   0.061  0.5945  1.3687  1.3749
  848TP3      O14362   0.507   4.878   7.667  0.0151  0.2396 -0.0314
  848TP3     H114363   0.481   4.953   7.721 -2.1045  0.4437 -1.2566
  848TP3     H214364   0.523   4.808   7.730  0.3903  1.2387  1.0263
  849TP3      O14365   1.038   5.022   7.440 -0.1927 -0.5531 -0.3265
  849TP3     H114366   0.991   4.949   7.481  0.1683 -0.3045  0.5560
  849TP3     H214367   0.970   5.088   7.424 -0.5000 -1.0258 -1.0237
  850TP3      O14368   4.466   1.994   2.641  0.2282  0.2827 -0.4570
  850TP3     H114369   4.419   2.024   2.563  0.9847  0.5165 -0.8319
  850TP3     H214370   4.443   1.902   2.650 -0.1984  0.3632 -0.7033
  851TP3      O14371   4.215   1.202   1.334 -0.1701 -0.6737  0.0789
  851TP3     H114372   4.251   1.155   1.258 -1.1893 -1.1196 -0.1488
  851TP3     H214373   4.220   1.139   1.405 -1.8058 -1.2930 -0.2922
  852TP3      O14374   2.716   2.989   6.887 -0.9906 -1.2229  0.2721
  852TP3     H114375   2.634   3.007   6.933 -1.1809  0.1993 -0.5472
  852TP3     H214376   2.763   3.072   6.890  1.0457 -2.3596  1.8828
  853TP3      O14377   3.644   0.515   1.958 -0.0740 -0.2079 -0.0400
  853TP3     H114378   3.632   0.542   1.867 -0.9818 -0.7840 -0.1101
  853TP3     H214379   3.726   0.556   1.986  0.2572 -0.1095 -1.1462
  854TP3      O14380   3.464   1.621   9.082  0.0967 -0.4271 -0.3208
  854TP3     H114381   3.414   1.702   9.094 -1.7743 -1.7745  1.8502
  854TP3     H214382   3.456   1.575   9.165  2.6412 -2.0665 -0.8665
  855TP3      O14383   1.608   4.478   8.647 -0.8618 -0.7022  0.0704
  855TP3     H114384   1.620   4.470   8.552 -1.9618 -0.7287 -0.0813
  855TP3     H214385   1.629   4.392   8.682 -1.6508 -1.0560 -0.2986
  856TP3      O14386   4.532   3.191   7.680  0.0817  0.0801  0.1148
  856TP3     H114387   4.554   3.106   7.642 -0.6978 -0.2092  0.2847
  856TP3     H214388   4.501   3.243   7.605 -0.0227  0.0088  0.1079
  857TP3      O14389   4.620   2.294   1.623  0.2678 -0.1739  0.0823
  857TP3     H114390   4.654   2.212   1.660  1.8684  0.5227  0.2332
  857TP3     H214391   4.696   2.335   1.583 -0.9924  0.0752 -2.2304
  858TP3      O14392   4.434   4.642   6.463 -0.0889 -0.5087  0.1310
  858TP3     H114393   4.433   4.570   6.526  1.3161 -1.1649 -0.5409
  858TP3     H214394   4.401   4.718   6.511  0.2026 -1.1745  1.4122
  859TP3      O14395   0.375   3.876   1.285  1.2299  0.4061  0.0298
  859TP3     H114396   0.287   3.910   1.301  1.0695 -0.9043  2.3716
  859TP3     H214397   0.428   3.914   1.355  2.0233 -0.5611 -0.0296
  860TP3      O14398   4.056   0.056   7.359 -0.0917  0.5114  0.0809
  860TP3     H114399   4.015   0.073   7.443 -0.8991  0.1051 -0.2260
  860TP3     H214400   4.014   0.116   7.298  0.5379  0.8523 -0.0277
  861TP3      O14401   4.927   1.611   8.257  0.3842 -0.5013  0.0076
  861TP3     H114402   4.847   1.596   8.207  0.1549 -0.1998  0.2785
  861TP3     H214403   4.964   1.691   8.219  0.2944 -0.3626  0.2096
  862TP3      O14404   4.141   3.106   7.000  0.1052 -0.2758 -0.1848
  862TP3     H114405   4.058   3.061   6.988  0.9046 -1.8244 -0.1652
  862TP3     H214406   4.135   3.183   6.943 -1.3361 -0.3293 -0.1422
  863TP3      O14407   3.991   3.275   9.002  0.1318  0.3392  0.0633
  863TP3     H114408   4.014   3.219   9.076 -1.9620  1.5509  1.7505
  863TP3     H214409   4.038   3.237   8.928  2.6890 -0.6856  2.0475
  864TP3      O14410   3.763   3.864   2.574  0.2479  0.8060  0.3578
  864TP3     H114411   3.782   3.780   2.617 -0.4450  0.7350  0.5429
  864TP3     H214412   3.832   3.923   2.605 -0.1605  0.7209  1.4809
  865TP3      O14413   3.007   3.254   7.328  0.6109  0.0738 -0.2874
  865TP3     H114414   2.949   3.205   7.270  1.5353 -1.3561 -0.0635
  865TP3     H214415   2.966   3.246   7.414  0.2972  0.4692 -0.3958
  866TP3      O14416   0.550   3.971   8.946  0.0780  0.5488 -0.3628
  866TP3     H114417   0.463   3.932   8.938  1.0428 -1.9765  0.3345
  866TP3     H214418   0.549   4.016   9.030 -0.1299 -0.7823  0.3760
  867TP3      O14419   3.030   0.376   0.433  0.2696 -0.6580 -0.3161
  867TP3     H114420   3.021   0.432   0.510  2.0403  1.6328 -1.6524
  867TP3     H214421   3.062   0.292   0.468 -0.9628 -0.3701  1.5961
  868TP3      O14422   1.252   2.030   9.248  0.0735  0.0387 -0.9699
  868TP3     H114423   1.310   2.010   9.322  1.1580  1.2038 -1.4468
  868TP3     H214424   1.201   1.951   9.235 -1.7771  0.5087  2.4281
  869TP3      O14425   1.899   1.916   8.355  0.1469 -0.2666  0.0494
  869TP3     H114426   1.890   2.011   8.347 -0.5272 -0.3678 -0.5346
  869TP3     H214427   1.825   1.890   8.409  0.4030 -0.4496  0.3125
  870TP3      O14428   3.208   2.057   3.447 -0.4267 -0.0033  0.1604
  870TP3     H114429   3.117   2.048   3.476  0.0932 -0.4433  1.7501
  870TP3     H214430   3.238   1.968   3.431 -1.0058  0.2478 -2.9804
  871TP3      O14431   0.021   2.041   3.169  0.3373  0.6389 -0.2936
  871TP3     H114432   0.062   2.033   3.255  0.6568  0.4585 -0.4598
  871TP3     H214433   0.069   1.980   3.113 -0.9948 -0.5665 -0.1939
  872TP3      O14434   4.953   4.385   0.568  0.1016  0.0964  0.0057
  872TP3     H114435   4.966   4.437   0.489  3.0599  0.4053  0.5587
  872TP3     H214436   4.894   4.314   0.541 -0.0605  0.9613 -2.0867
  873TP3      O14437   0.602   3.498   8.345  0.2949  0.3895 -0.1062
  873TP3     H114438   0.551   3.457   8.414  0.2239 -1.8335 -1.3792
  873TP3     H214439   0.651   3.567   8.389  0.0177 -0.7249  2.0828
  874TP3      O14440   0.721   4.806   9.249 -0.3327  0.1935  0.5290
  874TP3     H114441   0.675   4.873   9.299  0.3233 -0.0106  1.4274
  874TP3     H214442   0.664   4.729   9.255 -1.1738  0.6893 -0.6531
  875TP3      O14443   2.382   0.339   2.650 -0.0381  0.2100  0.0921
  875TP3     H114444   2.416   0.267   2.598 -1.4873 -0.4105 -0.0474
  875TP3     H214445   2.335   0.296   2.722 -0.5208  1.0090  0.2662
  876TP3      O14446   1.262   4.094   2.573 -0.5154 -0.0361  0.1455
  876TP3     H114447   1.200   4.163   2.550  1.1510  1.0535 -1.4628
  876TP3     H214448   1.283   4.052   2.489  2.1264  0.7866  0.2797
  877TP3      O14449   1.840   3.704   0.389  0.1063  0.0608 -0.0206
  877TP3     H114450   1.904   3.764   0.350  0.7686 -0.0359  0.8920
  877TP3     H214451   1.808   3.653   0.315  0.3235  0.8085 -0.6479
  878TP3      O14452   4.829   2.828   6.710 -0.2646  0.0968  0.5727
  878TP3     H114453   4.818   2.804   6.618  3.0753  2.0019 -0.4856
  878TP3     H214454   4.773   2.766   6.758 -0.7519 -2.1244 -2.5731
  879TP3      O14455   0.007   5.209   1.530  0.1792  0.0657 -0.0656
  879TP3     H114456   0.001   5.303   1.546  0.4632  0.0547  0.0964
  879TP3     H214457  -0.076   5.174   1.565 -1.1934  0.5887 -2.5921
  880TP3      O14458   2.051   0.026   0.130  0.2847  0.8023 -0.3686
  880TP3     H114459   2.112   0.085   0.086 -1.6142  0.3875 -3.9122
  880TP3     H214460   1.985   0.084   0.169  0.9139  1.1030  0.2823
  881TP3      O14461   2.741   0.495   6.911  0.2729  0.1533  0.3519
  881TP3     H114462   2.674   0.528   6.970  0.8244  1.6008  0.2086
  881TP3     H214463   2.693   0.465   6.834 -0.3741 -0.9686  1.1744
  882TP3      O14464   4.135   3.110   8.824 -0.5643 -0.1660  0.0234
  882TP3     H114465   4.117   3.060   8.744 -0.0466  1.1746 -0.9657
  882TP3     H214466   4.211   3.067   8.863 -1.4769 -1.5104  0.4380
  883TP3      O14467   2.029   4.378   1.810 -0.0327 -0.3815 -0.5897
  883TP3     H114468   2.055   4.386   1.718 -1.3358 -1.5603 -1.1115
  883TP3     H214469   1.939   4.345   1.806 -0.1715 -0.3056  1.1157
  884TP3      O14470   5.172   1.070   0.899  0.1679 -0.1199  0.2749
  884TP3     H114471   5.224   1.002   0.857 -2.0928 -0.5800 -2.0025
  884TP3     H214472   5.200   1.151   0.858  1.2573  0.0833  1.3577
  885TP3      O14473   1.571   2.288   2.314  0.1539  0.5549 -0.1036
  885TP3     H114474   1.660   2.323   2.315  0.4404 -0.1395  1.3940
  885TP3     H214475   1.550   2.272   2.406 -0.5417 -1.7181 -0.5878
  886TP3      O14476   4.564   1.116   1.437 -0.6388  0.1357 -0.0388
  886TP3     H114477   4.531   1.032   1.469  0.6169  0.1072  1.2619
  886TP3     H214478   4.549   1.113   1.342  0.7474 -2.2109 -0.2598
  887TP3      O14479   4.884   4.073  10.115 -0.0220  0.3083 -0.2207
  887TP3     H114480   4.807   4.089  10.169  0.1842 -0.5463  0.3509
  887TP3     H214481   4.874   4.132  10.041 -0.7253  0.9165  0.3407
  888TP3      O14482   3.510   4.696   8.293 -0.0551  0.2386  0.3153
  888TP3     H114483   3.600   4.705   8.260  0.4733 -0.9735  1.3075
  888TP3     H214484   3.480   4.613   8.256 -0.8511  0.7329 -0.1598
  889TP3      O14485   0.782   0.752   9.294 -0.3645  0.1355 -0.3013
  889TP3     H114486   0.804   0.711   9.378  0.3941 -0.0912 -0.6081
  889TP3     H214487   0.736   0.683   9.245 -0.2262  0.0602 -0.3244
  890TP3      O14488   0.530   5.163   7.722 -0.0700 -0.4055 -0.5897
  890TP3     H114489   0.469   5.221   7.767 -0.4711 -1.9302  0.9507
  890TP3     H214490   0.535   5.197   7.633  0.3333  2.4229  0.4316
  891TP3      O14491   4.728   2.120   2.551 -0.1610  0.0318  0.5259
  891TP3     H114492   4.676   2.153   2.625  0.7787  3.0987 -0.0563
  891TP3     H214493   4.678   2.144   2.473  0.2048 -0.6508  0.0682
  892TP3      O14494   0.061   3.289   9.532 -1.0793 -0.0774  0.1189
  892TP3     H114495   0.101   3.277   9.446 -0.0737 -0.1444  0.5697
  892TP3     H214496   0.036   3.381   9.534 -0.7744  0.0118 -0.1109
  893TP3      O14497   3.975   3.963   9.626 -0.3877 -0.4496  0.0565
  893TP3     H114498   3.923   3.916   9.561  0.4606 -0.2213 -0.8232
  893TP3     H214499   4.007   4.040   9.579 -1.5293  0.9108  1.3766
  894TP3      O14500   4.168   0.747   7.771  0.0815  0.1328  0.4773
  894TP3     H114501   4.085   0.700   7.759 -0.1114  0.1707  1.5151
  894TP3     H214502   4.221   0.688   7.825  1.1244 -0.3110 -0.9590
  895TP3      O14503   0.151   2.156   8.598 -0.2474  0.2923 -0.1680
  895TP3     H114504   0.120   2.246   8.593 -0.0316  0.4043  0.4290
  895TP3     H214505   0.238   2.158   8.558  0.5518  0.7414  1.4933
  896TP3      O14506   2.172   1.065   9.904  0.2667 -1.1078  0.0405
  896TP3     H114507   2.091   1.078   9.856  0.0853 -0.2017  0.5747
  896TP3     H214508   2.144   1.049   9.995  0.7081  3.0267  1.0898
  897TP3      O14509   1.973   4.547   0.304  0.6787  0.4475  0.2120
  897TP3     H114510   1.953   4.639   0.293 -0.7279  0.1914  0.4729
  897TP3     H214511   2.002   4.539   0.395 -1.2474  0.3157  0.8494
  898TP3      O14512   4.357   2.580   3.005  0.0885  0.0849  0.2554
  898TP3     H114513   4.299   2.650   3.033 -1.2001 -0.1878 -1.5439
  898TP3     H214514   4.299   2.512   2.971  1.4088 -0.1245 -1.8123
  899TP3      O14515   3.191   2.731   1.149  0.1476  0.3298 -0.1937
  899TP3     H114516   3.244   2.785   1.090 -2.7482  0.7940 -2.6082
  899TP3     H214517   3.213   2.641   1.126  1.6904  0.4471  0.6764
  900TP3      O14518   1.283   4.482   7.552  0.4528 -0.0499  0.1301
  900TP3     H114519   1.363   4.465   7.602  0.5552  1.6302  0.5829
  900TP3     H214520   1.214   4.487   7.619  0.0072 -1.0969 -0.2236
  901TP3      O14521   1.348   2.128   7.616  0.2218  0.0634 -0.6497
  901TP3     H114522   1.364   2.206   7.670 -0.1224  0.6727 -1.3978
  901TP3     H214523   1.295   2.161   7.543 -1.8721 -1.2831  0.1613
  902TP3      O14524   0.919   4.134   7.660 -0.0189  0.5138 -0.1905
  902TP3     H114525   0.852   4.200   7.641 -0.9341 -0.7341 -1.5265
  902TP3     H214526   0.997   4.167   7.616 -0.4845  0.6918 -0.9080
  903TP3      O14527   3.308   0.307   0.284 -0.6921  0.1307  0.1233
  903TP3     H114528   3.291   0.283   0.192 -1.0535  1.9591 -0.3188
  903TP3     H214529   3.227   0.284   0.329 -0.9977  0.4287 -0.2650
  904TP3      O14530   3.740   2.486   6.932 -0.2323 -0.1224  0.4342
  904TP3     H114531   3.714   2.416   6.872 -1.1456  1.4776 -1.1485
  904TP3     H214532   3.667   2.492   6.993 -0.9945  0.5649 -0.5046
  905TP3      O14533   2.194   0.980   8.478  0.0978  0.4460 -0.9143
  905TP3     H114534   2.266   0.973   8.541 -1.7113 -0.0932  1.1739
  905TP3     H214535   2.203   0.903   8.422 -0.2627 -0.9530  0.8947
  906TP3      O14536   5.026   3.464   8.462  0.0061 -0.3811  0.3933
  906TP3     H114537   5.109   3.423   8.437 -0.1391  0.4811 -1.6664
  906TP3     H214538   5.050   3.553   8.486 -0.5164  0.7614 -2.8198
  907TP3      O14539   3.803   4.061   6.512  0.3796 -0.2156 -0.0420
  907TP3     H114540   3.845   4.140   6.478  2.4002 -2.0218 -2.0333
  907TP3     H214541   3.864   3.990   6.492 -0.3938 -2.1143  3.4412
  908TP3      O14542   0.176   0.517   8.865  0.2013  0.4291  0.7062
  908TP3     H114543   0.177   0.459   8.790 -1.6976  1.5190 -0.2456
  908TP3     H214544   0.119   0.590   8.838  2.3254  2.6898  1.8540
  909TP3      O14545   3.363   1.382   8.336 -0.0107  0.1366  0.0112
  909TP3     H114546   3.318   1.365   8.419  0.3922 -0.6122  0.0807
  909TP3     H214547   3.453   1.401   8.362  0.1230 -0.1365 -0.2583
  910TP3      O14548   0.599   3.326   0.702 -0.4366 -0.1828  0.3678
  910TP3     H114549   0.674   3.359   0.652 -1.3758  1.6533  0.0713
  910TP3     H214550   0.573   3.246   0.656  2.0448 -1.5607  1.2099
  911TP3      O14551   0.291   3.545   0.047  0.9709 -0.3086 -0.6257
  911TP3     H114552   0.268   3.457   0.019  0.8795 -0.3601 -0.3952
  911TP3     H214553   0.269   3.601  -0.027  0.5986 -0.4227 -0.6015
  912TP3      O14554   0.371   0.346   7.226 -0.4858 -0.2081  0.3800
  912TP3     H114555   0.408   0.430   7.197 -0.5762 -0.2521  0.1284
  912TP3     H214556   0.393   0.285   7.155 -1.5701 -0.0942 -0.0818
  913TP3      O14557   0.635   3.048   1.270  0.1596  0.0395 -0.9604
  913TP3     H114558   0.649   2.983   1.339  0.1547  0.7262 -0.2949
  913TP3     H214559   0.600   3.124   1.316  1.0116  0.8350 -1.5939
  914TP3      O14560   0.754   1.652   1.540 -0.2517  0.3160 -0.0314
  914TP3     H114561   0.743   1.558   1.555  1.0062  0.3392  1.3130
  914TP3     H214562   0.717   1.667   1.453 -0.8075 -1.3507 -0.1241
  915TP3      O14563   1.274   5.169   1.296  0.3531 -0.8676  0.5888
  915TP3     H114564   1.189   5.125   1.287  0.7571 -1.5237 -0.0670
  915TP3     H214565   1.258   5.257   1.262  0.1214 -1.2245 -0.2587
  916TP3      O14566   2.897   1.548   1.511  0.1421 -0.0860  0.0949
  916TP3     H114567   2.939   1.631   1.534 -0.1000 -0.2669  1.2659
  916TP3     H214568   2.812   1.573   1.474 -0.1451  0.1925  0.9128
  917TP3      O14569   4.641   3.068   1.338  0.5715  0.6633 -0.4372
  917TP3     H114570   4.631   3.044   1.246  0.4469  0.8055 -0.4617
  917TP3     H214571   4.704   3.005   1.373 -0.9012 -0.7029 -0.1167
  918TP3      O14572   5.246   3.406   6.518  0.8319  0.9594  0.1147
  918TP3     H114573   5.280   3.495   6.512  0.7293  0.9628 -0.5751
  918TP3     H214574   5.324   3.350   6.512  0.8756  1.0008  0.3098
  919TP3      O14575   1.335   4.833   6.585 -0.4441 -0.6276  0.0864
  919TP3     H114576   1.258   4.890   6.584 -0.4287 -0.5524  1.4901
  919TP3     H214577   1.409   4.893   6.576 -0.4828 -0.5305  0.3943
  920TP3      O14578   4.897   1.785   1.093 -0.2121  0.6673 -0.1721
  920TP3     H114579   4.817   1.774   1.144 -0.4871  1.5111 -0.3954
  920TP3     H214580   4.877   1.747   1.008  0.5153 -1.4694  0.5475
  921TP3      O14581   3.965   2.729   1.252 -0.5095 -0.0434 -0.3605
  921TP3     H114582   4.014   2.648   1.238 -1.7853 -0.9376  0.0893
  921TP3     H214583   3.951   2.733   1.346 -0.4834  0.6935 -0.3821
  922TP3      O14584   4.605   4.978   0.182 -0.2615  0.3091  0.4629
  922TP3     H114585   4.585   5.020   0.267  1.7250  1.5093  0.3943
  922TP3     H214586   4.561   5.034   0.118  0.8742  1.2808  0.5036
  923TP3      O14587   2.641   4.366   0.680 -0.4882  0.7265  0.5515
  923TP3     H114588   2.583   4.304   0.725 -1.3634 -1.6269 -3.3267
  923TP3     H214589   2.582   4.437   0.652 -0.3508  1.1076  1.1942
  924TP3      O14590   2.988   0.753   0.866 -0.2267  0.3235 -0.0292
  924TP3     H114591   2.909   0.764   0.813  0.1139  0.1286 -0.5717
  924TP3     H214592   3.060   0.772   0.807  0.2204 -1.1142  0.0110
  925TP3      O14593   4.837   3.689   8.129 -0.6142  0.0643 -0.2039
  925TP3     H114594   4.791   3.744   8.065  1.7688  1.7048 -0.6397
  925TP3     H214595   4.836   3.601   8.090 -2.1099  0.3465 -0.8582
  926TP3      O14596   4.237   1.397   3.598  0.4069 -0.5234  0.4075
  926TP3     H114597   4.300   1.458   3.637 -0.4778  0.2740  0.6443
  926TP3     H214598   4.254   1.313   3.641 -0.4978  0.3125  2.5331
  927TP3      O14599   2.117   5.114   0.843  0.0124 -0.4550 -0.2223
  927TP3     H114600   2.146   5.124   0.753 -0.2530 -2.1516 -0.5287
  927TP3     H214601   2.161   5.184   0.891  1.5065 -0.5788 -1.3685
  928TP3      O14602   3.709   0.539   2.822  0.3598  0.1241  0.2377
  928TP3     H114603   3.717   0.607   2.889 -0.5936  1.9501 -1.4077
  928TP3     H214604   3.638   0.483   2.853  0.2623  0.6547  0.9973
  929TP3      O14605   1.765   0.183   8.703 -0.1017 -0.3776  0.4692
  929TP3     H114606   1.810   0.101   8.722 -1.5864 -0.6438  3.4308
  929TP3     H214607   1.690   0.158   8.650  1.2732 -0.3740 -1.5935
  930TP3      O14608   2.628   0.589   0.029 -0.4822 -0.1914  0.2449
  930TP3     H114609   2.715   0.612   0.061 -1.4009  0.5791  2.3926
  930TP3     H214610   2.572   0.662   0.056 -2.0355 -1.2433  0.0358
  931TP3      O14611   1.561   0.067   2.188  0.6068 -0.5002  0.2839
  931TP3     H114612   1.476   0.027   2.170  0.4243 -0.7167  1.5491
  931TP3     H214613   1.545   0.126   2.262  1.4959 -0.3485  0.3689
  932TP3      O14614   2.965   4.537   3.237  0.0564 -0.8648  0.2194
  932TP3     H114615   2.909   4.461   3.218 -0.5680 -0.3588 -0.0112
  932TP3     H214616   2.947   4.559   3.328  0.8448 -1.4855  0.5307
  933TP3      O14617   1.628   3.955   9.327 -0.3510 -0.3772 -0.1614
  933TP3     H114618   1.545   4.002   9.333 -0.7011 -0.7741 -1.6226
  933TP3     H214619   1.604   3.863   9.325  0.1136 -0.4974 -0.5844
  934TP3      O14620   4.269   4.128   7.773  0.3558  0.2988  0.1852
  934TP3     H114621   4.268   4.036   7.748 -0.4443  0.0926  0.9581
  934TP3     H214622   4.190   4.165   7.733  0.2297  0.4589  0.5805
  935TP3      O14623   2.002   1.484   1.033 -0.3536  0.1225 -0.4858
  935TP3     H114624   2.074   1.445   1.082 -0.1854 -0.4784 -1.2028
  935TP3     H214625   2.023   1.578   1.030 -0.4927  0.2153  0.7834
  936TP3      O14626   3.018   4.650   7.141  0.4717  0.0865  0.3345
  936TP3     H114627   3.077   4.664   7.067  1.5602 -0.3742  1.0878
  936TP3     H214628   2.947   4.713   7.128  1.0441  0.5410 -0.6768
  937TP3      O14629   0.889   4.572  10.103  0.8660  0.2437 -0.3027
  937TP3     H114630   0.901   4.647  10.161 -0.9171 -0.0972  0.5916
  937TP3     H214631   0.976   4.533  10.095  1.9321  2.5903 -1.1015
  938TP3      O14632   4.973   2.858   0.732  0.3098 -0.1219  0.2190
  938TP3     H114633   5.063   2.891   0.732  0.1567  0.2907  0.4474
  938TP3     H214634   4.961   2.821   0.644 -0.0632  1.8938 -0.6341
  939TP3      O14635   1.544   1.280   2.027 -0.3688 -0.4684 -0.1961
  939TP3     H114636   1.515   1.189   2.016 -0.8246 -0.2206 -1.1903
  939TP3     H214637   1.528   1.299   2.119 -0.1349 -1.4372  0.0572
  940TP3      O14638   0.541   3.405   8.089  0.2380  0.4806 -0.3401
  940TP3     H114639   0.548   3.439   8.178 -1.1378  1.2616 -0.4972
  940TP3     H214640   0.458   3.357   8.089  0.6581 -0.2612 -0.9728
  941TP3      O14641   0.983   0.382   9.162  0.1499  0.0590 -0.5433
  941TP3     H114642   1.071   0.412   9.187 -0.3102  1.7239 -0.7922
  941TP3     H214643   0.943   0.458   9.120 -1.4264 -0.6686 -0.4287
  942TP3      O14644   2.970   1.347   7.746 -0.2292 -0.2059 -0.0411
  942TP3     H114645   2.965   1.383   7.834 -1.8866  0.3488 -0.3248
  942TP3     H214646   3.026   1.409   7.698 -1.8884  1.2852 -0.1584
  943TP3      O14647   1.035   0.490   6.689 -0.5125  0.6517 -0.0344
  943TP3     H114648   0.941   0.469   6.691 -0.5315  0.6010  2.9821
  943TP3     H214649   1.079   0.406   6.701 -0.0053  0.5923 -2.0595
  944TP3      O14650   1.997   4.684   9.536 -0.9754  0.2840 -0.4642
  944TP3     H114651   1.914   4.719   9.504 -1.0652  0.8433  0.3497
  944TP3     H214652   1.979   4.657   9.626 -0.0187  1.4305  0.1005
  945TP3      O14653   1.554   5.026   6.481 -0.1088  0.5041 -0.2991
  945TP3     H114654   1.544   5.119   6.461 -0.6872  0.9284  1.7226
  945TP3     H214655   1.644   5.006   6.457 -0.1010  1.4646 -1.1463
  946TP3      O14656   4.214   3.404   1.784  0.2417 -0.2389  0.4282
  946TP3     H114657   4.149   3.347   1.824 -0.1920 -0.1607 -0.1448
  946TP3     H214658   4.298   3.375   1.820 -0.1193 -0.2628  1.2668
  947TP3      O14659   3.828   2.624   2.880 -0.1807 -0.3577  0.1146
  947TP3     H114660   3.877   2.696   2.919  1.7133 -1.4340 -0.1881
  947TP3     H214661   3.891   2.553   2.873 -1.9596 -2.0250  0.2845
  948TP3      O14662   0.878   1.750   0.424  0.3967  0.3390  0.1579
  948TP3     H114663   0.787   1.723   0.431  0.1612  0.7674 -1.0378
  948TP3     H214664   0.885   1.827   0.480  0.0191  0.3314  0.2144
  949TP3      O14665   2.118   0.691   0.890 -0.9451  0.2793  0.5003
  949TP3     H114666   2.040   0.718   0.940 -0.4867 -1.1605  2.1079
  949TP3     H214667   2.137   0.603   0.922 -0.5227 -0.6935 -2.2068
  950TP3      O14668   1.069   3.083   1.440 -0.5686  0.1242 -0.4996
  950TP3     H114669   1.136   3.035   1.392  1.0293  0.6125  1.1220
  950TP3     H214670   1.030   3.018   1.498  0.2270  0.3479  0.2983
  951TP3      O14671   1.405   3.401   1.577  0.4407  0.3111 -0.3614
  951TP3     H114672   1.317   3.390   1.543 -0.2541 -1.3444  1.7553
  951TP3     H214673   1.424   3.319   1.622  2.4758  1.1966  0.5109
  952TP3      O14674   0.951   1.913   2.471  0.3369  0.0709  0.5133
  952TP3     H114675   0.990   1.826   2.478  1.7653  0.7339  1.3239
  952TP3     H214676   0.924   1.920   2.380  1.1531 -0.8382  0.1860
  953TP3      O14677   1.773   0.684   0.895 -0.6958 -0.4592 -0.2472
  953TP3     H114678   1.825   0.747   0.945 -0.1110  0.4316 -1.8790
  953TP3     H214679   1.682   0.704   0.918 -0.4094 -1.2591  1.7566
  954TP3      O14680   2.264   0.060   8.142 -0.2252 -0.1388  0.3510
  954TP3     H114681   2.331  -0.008   8.136 -0.9139 -0.7742 -0.3609
  954TP3     H214682   2.269   0.105   8.058 -3.2374 -2.6774 -1.4053
  955TP3      O14683   2.256   3.937   7.635  0.3484  0.1348  0.6341
  955TP3     H114684   2.206   3.950   7.715  0.4071  0.5238  0.6134
  955TP3     H214685   2.228   4.009   7.578  0.4827 -0.0001  0.3964
  956TP3      O14686   4.501   3.947   0.075  0.4444 -0.0600 -0.1067
  956TP3     H114687   4.416   3.987   0.092 -0.1924 -0.7897 -1.3627
  956TP3     H214688   4.558   4.020   0.050  0.4813  0.5572  1.6990
  957TP3      O14689   1.061   4.058   3.509  0.1573  0.3815 -0.1789
  957TP3     H114690   0.985   4.117   3.505 -1.0235 -1.1488 -2.7538
  957TP3     H214691   1.108   4.073   3.427  0.8023 -0.9793 -0.0895
  958TP3      O14692   2.574   0.096   7.635  0.1786 -0.5389 -0.6383
  958TP3     H114693   2.616   0.145   7.565 -0.6365  0.9665 -0.1104
  958TP3     H214694   2.481   0.121   7.630 -0.3857 -2.4216 -0.6552
  959TP3      O14695   2.822   3.500   1.903  0.5483 -0.2424  0.6235
  959TP3     H114696   2.826   3.405   1.912  1.1553 -0.4029 -0.9716
  959TP3     H214697   2.855   3.517   1.814  1.2734  1.5215  1.1811
  960TP3      O14698   0.164   4.088   1.019  0.5162  0.5796  0.1781
  960TP3     H114699   0.163   4.004   0.973  0.9679  0.4657  0.3781
  960TP3     H214700   0.075   4.121   1.008  0.3879  0.1681 -0.0698
  961TP3      O14701   3.702   0.847   0.475 -0.2231 -0.2918 -0.0303
  961TP3     H114702   3.791   0.878   0.462 -0.4519  0.6379  0.5240
  961TP3     H214703   3.691   0.777   0.410  1.0302 -0.6920  0.1623
  962TP3      O14704   2.979   2.397  10.047  0.5940  0.2098  0.4076
  962TP3     H114705   2.954   2.374   9.957  0.8274 -0.0772  0.4124
  962TP3     H214706   3.028   2.320  10.078 -0.0723  0.0221  1.0179
  963TP3      O14707   0.257   4.948   9.976 -0.4665  0.3342  0.3169
  963TP3     H114708   0.312   4.870   9.986 -1.1060 -0.1484  0.1764
  963TP3     H214709   0.294   5.012  10.037  0.3199  0.0694  0.1304
  964TP3      O14710   2.719   0.911   8.832 -0.0358 -0.5290  0.1533
  964TP3     H114711   2.667   0.880   8.907 -0.8450  1.0929  0.3043
  964TP3     H214712   2.654   0.947   8.772  0.6971 -0.9924 -0.9410
  965TP3      O14713   4.016   4.717   9.357  0.3067  0.3580  0.2809
  965TP3     H114714   4.059   4.682   9.279  1.6091  0.7686  0.7700
  965TP3     H214715   4.074   4.691   9.429  0.8365  2.6187  0.7752
  966TP3      O14716   5.110   2.595   1.745  0.6300 -0.4114  0.4321
  966TP3     H114717   5.046   2.633   1.806  1.3125 -0.7383  1.3691
  966TP3     H214718   5.059   2.534   1.691 -0.0183  0.0289  0.5323
  967TP3      O14719   3.353   1.796   8.388  0.0010 -0.1857  0.1491
  967TP3     H114720   3.401   1.783   8.470 -1.3737  1.3287  1.2429
  967TP3     H214721   3.261   1.785   8.411 -0.3288 -2.3130 -1.7663
  968TP3      O14722   2.593   5.175   0.953  0.6007  0.3461  0.5319
  968TP3     H114723   2.666   5.117   0.974  0.3206 -0.7079 -1.1770
  968TP3     H214724   2.519   5.140   1.004  1.1930  1.3135  2.1319
  969TP3      O14725   1.483   1.615   1.059 -0.3974  0.1654 -0.6862
  969TP3     H114726   1.487   1.521   1.039  0.5379  0.2819 -1.0905
  969TP3     H214727   1.434   1.653   0.986 -2.7808 -0.2741  0.5753
  970TP3      O14728   1.282   2.395   8.290 -0.1633 -0.3639 -0.0416
  970TP3     H114729   1.349   2.455   8.259  0.4846 -1.5685 -1.0679
  970TP3     H214730   1.204   2.449   8.300  0.5329  0.7440 -0.3829
  971TP3      O14731   0.055   3.531   1.828 -0.0929 -0.0376  0.5944
  971TP3     H114732   0.030   3.620   1.805 -0.0953 -0.3167 -0.5024
  971TP3     H214733   0.150   3.527   1.813 -0.1999 -0.4099 -0.0368
  972TP3      O14734   1.593   1.664   1.898 -0.2930 -0.0663 -0.0830
  972TP3     H114735   1.641   1.680   1.816  0.4104  0.2275  0.3775
  972TP3     H214736   1.581   1.751   1.936 -1.0402 -0.1541 -0.0944
  973TP3      O14737   5.137   0.281   2.388 -0.4582 -0.5039  0.2666
  973TP3     H114738   5.075   0.352   2.374  0.5615 -0.0078 -2.3424
  973TP3     H214739   5.223   0.322   2.376  0.3390 -1.5088  2.1516
  974TP3      O14740   0.866   4.264   3.399 -0.2132  0.4921  0.0243
  974TP3     H114741   0.801   4.334   3.391 -0.1792  0.4472 -0.7173
  974TP3     H214742   0.885   4.238   3.309  1.6575  1.2669  0.1445
  975TP3      O14743   4.459   1.302  10.094  0.7620  0.0051 -0.2656
  975TP3     H114744   4.548   1.285  10.125 -0.2469 -1.6179  2.0376
  975TP3     H214745   4.434   1.222  10.048  0.3448  0.2782 -0.5170
  976TP3      O14746   3.965   4.353   0.755  0.0668  0.1582  0.0628
  976TP3     H114747   3.958   4.444   0.729 -0.9377  0.0974  0.0870
  976TP3     H214748   4.059   4.338   0.767  0.5865  0.3467 -2.9593
  977TP3      O14749   5.268   4.286   1.720 -1.0130  0.1862  0.0722
  977TP3     H114750   5.352   4.287   1.674 -0.9822  1.6861  0.1289
  977TP3     H214751   5.205   4.319   1.655 -1.1640  1.1994  0.7141
  978TP3      O14752   2.599   3.614   1.993 -0.7597  0.5801  0.4773
  978TP3     H114753   2.598   3.632   2.087 -0.2054 -0.3731  0.6786
  978TP3     H214754   2.685   3.574   1.977 -1.0051  0.3649 -0.3581
  979TP3      O14755   1.225   1.581   9.938  0.6102 -0.2863  0.2583
  979TP3     H114756   1.316   1.605   9.926  0.5904  0.3176  1.2260
  979TP3     H214757   1.201   1.618  10.023 -0.9997  1.0067 -0.6824
  980TP3      O14758   0.718   2.142   8.947 -0.1024 -0.1578 -0.5251
  980TP3     H114759   0.724   2.074   9.014  0.3901  1.3299  1.0240
  980TP3     H214760   0.806   2.179   8.943 -0.2710  0.1634 -1.6059
  981TP3      O14761   3.096   1.314   1.973 -0.1899 -0.4931  0.2448
  981TP3     H114762   3.174   1.360   2.002 -0.1729 -0.7822  0.6708
  981TP3     H214763   3.055   1.373   1.910  0.6651 -0.5835 -0.4041
  982TP3      O14764   2.424   1.251   1.722 -0.5711  0.0480  0.6322
  982TP3     H114765   2.397   1.200   1.646  0.4929 -1.2108  1.0628
  982TP3     H214766   2.397   1.197   1.797 -1.1832  1.0488  1.1468
  983TP3      O14767   1.725   4.482   0.479  0.0720  0.2359 -0.3056
  983TP3     H114768   1.632   4.464   0.466 -0.2466  1.5888 -0.0895
  983TP3     H214769   1.732   4.507   0.571  0.8008 -0.6424 -0.1087
  984TP3      O14770   0.262   3.740   1.539  0.0695 -0.2115 -0.0642
  984TP3     H114771   0.185   3.731   1.483  0.9349 -0.7038 -1.2278
  984TP3     H214772   0.278   3.834   1.543  0.0485 -0.1720 -0.7525
  985TP3      O14773   4.881   0.078   1.849 -0.1405  0.0575 -0.4613
  985TP3     H114774   4.907   0.017   1.780 -2.2168 -0.6528 -0.6818
  985TP3     H214775   4.843   0.152   1.801  0.6272  0.6761 -0.1313
  986TP3      O14776   1.447   4.319   8.422 -0.2075 -0.0585 -0.0468
  986TP3     H114777   1.461   4.260   8.496  0.3154 -0.7423 -0.6722
  986TP3     H214778   1.533   4.358   8.406 -0.5421  0.8713  0.3441
  987TP3      O14779   1.125   3.317   3.240  0.0140 -0.0879 -0.3666
  987TP3     H114780   1.110   3.411   3.248  0.6667  0.1022 -1.2109
  987TP3     H214781   1.194   3.299   3.304 -1.5384 -0.3941  1.2783
  988TP3      O14782   3.374   2.009   8.215  0.0394  0.3426  0.2036
  988TP3     H114783   3.362   1.933   8.273 -0.2603  0.5096  0.3621
  988TP3     H214784   3.466   2.003   8.187 -0.1486 -0.4300 -0.2820
  989TP3      O14785   2.369   0.884   8.667 -0.0133 -0.3963 -0.4122
  989TP3     H114786   2.371   0.937   8.746 -1.2978  1.0893 -1.3270
  989TP3     H214787   2.317   0.807   8.691 -1.9994  0.9345 -0.2880
  990TP3      O14788   4.475   2.989   4.048  0.4523 -0.1301  0.1097
  990TP3     H114789   4.473   3.071   3.997  1.2552 -0.0207  0.2452
  990TP3     H214790   4.508   3.016   4.134 -0.0112 -0.4738  0.3952
  991TP3      O14791   3.912   3.757   3.615 -0.3367  0.6769 -0.8474
  991TP3     H114792   4.000   3.723   3.631 -0.1690  1.0201 -1.0084
  991TP3     H214793   3.926   3.831   3.555 -0.3985  2.7443  1.5377
  992TP3      O14794   0.492   2.109   2.817 -0.4992 -0.3498 -0.0234
  992TP3     H114795   0.491   2.051   2.741 -0.3062 -0.9162  0.4058
  992TP3     H214796   0.399   2.118   2.841 -0.3815 -2.3437  1.3149
  993TP3      O14797   3.397   4.276   7.724  0.0092 -0.0078 -0.0154
  993TP3     H114798   3.346   4.231   7.791 -0.7219 -0.5281 -0.9073
  993TP3     H214799   3.338   4.342   7.688 -0.0189 -0.5600 -1.0020
  994TP3      O14800   4.523   2.186   9.213  0.4949 -0.4538  0.4791
  994TP3     H114801   4.539   2.104   9.166 -2.4487 -1.8710  1.6924
  994TP3     H214802   4.452   2.229   9.165  0.5021  0.2831  1.1021
  995TP3      O14803   3.891   4.402   8.972  0.0452  0.0039  0.5947
  995TP3     H114804   3.815   4.379   8.918 -0.9096  0.9452  1.4972
  995TP3     H214805   3.931   4.318   8.995 -0.0857 -0.4572 -0.7587
  996TP3      O14806   2.552   2.660   1.953 -0.0373  0.1704  0.7819
  996TP3     H114807   2.528   2.569   1.934  1.3125 -0.7877  3.2503
  996TP3     H214808   2.645   2.656   1.972 -0.4114  1.5949  3.3070
  997TP3      O14809   5.274   3.382   8.408 -0.7702  0.1672 -0.7917
  997TP3     H114810   5.324   3.428   8.340  1.4439  1.1815  1.3656
  997TP3     H214811   5.262   3.294   8.374  1.7106  0.1657 -1.8536
  998TP3      O14812   0.089   0.279   7.815 -0.0848  0.3834  0.3651
  998TP3     H114813   0.071   0.257   7.906  0.1331 -1.6732 -0.0414
  998TP3     H214814   0.124   0.198   7.777 -0.6173  1.0442 -1.6710
  999TP3      O14815   2.440   3.886   0.650 -0.0832  0.0497 -0.2848
  999TP3     H114816   2.510   3.838   0.693 -2.3311 -1.6306  1.7989
  999TP3     H214817   2.410   3.949   0.717 -1.3460 -0.1406 -0.6445
 1000TP3      O14818   0.151   5.013   7.542  1.0401 -0.0945 -0.2722
 1000TP3     H114819   0.093   5.088   7.557 -1.0715 -1.6668 -0.1033
 1000TP3     H214820   0.195   5.033   7.459 -0.3103  0.8684 -0.8013
 1001TP3      O14821   3.579   0.804   1.509 -0.4088 -0.6660  0.8216
 1001TP3     H114822   3.505   0.830   1.565  1.1255  3.7969  1.2198
 1001TP3     H214823   3.654   0.803   1.568  0.7429  1.0615 -0.4902
 1002TP3      O14824   1.753   4.935   8.966  0.2292  0.0320  0.1991
 1002TP3     H114825   1.666   4.895   8.960  0.6349 -0.8030 -0.4353
 1002TP3     H214826   1.805   4.889   8.900  0.7123  1.7219 -0.6470
 1003TP3      O14827   5.025   3.801   1.406  0.5853 -0.4785  0.3016
 1003TP3     H114828   5.018   3.896   1.401  0.9291 -0.4722 -0.1512
 1003TP3     H214829   5.030   3.782   1.499 -1.2171 -0.1913  0.4971
 1004TP3      O14830   1.581   3.986   8.487 -0.7091 -0.5554  0.1901
 1004TP3     H114831   1.509   3.973   8.549 -0.9411  0.9082  0.2573
 1004TP3     H214832   1.548   3.951   8.404 -2.1194  1.3918 -0.1464
 1005TP3      O14833   3.267   3.232   2.199  0.0473 -0.0627  0.4568
 1005TP3     H114834   3.302   3.293   2.264 -1.3805 -1.4206  2.6137
 1005TP3     H214835   3.174   3.225   2.221 -0.2563 -1.3628 -1.1179
 1006TP3      O14836   1.733   0.924   0.421 -0.3751  0.0220  0.5330
 1006TP3     H114837   1.754   0.838   0.458 -2.1498  0.3290  2.4962
 1006TP3     H214838   1.638   0.923   0.410 -0.2216  1.0711 -1.3033
 1007TP3      O14839   4.618   3.489   9.548  0.0069  0.5963  0.0913
 1007TP3     H114840   4.678   3.562   9.537  1.0816 -0.1537  0.7584
 1007TP3     H214841   4.531   3.526   9.530  0.4464  2.1701  1.0281
 1008TP3      O14842   3.996   3.580   0.445  0.1217  0.1039 -0.1104
 1008TP3     H114843   4.004   3.548   0.535  0.9003 -0.8621 -0.5013
 1008TP3     H214844   4.079   3.626   0.428 -0.7846  1.9611  0.2762
 1009TP3      O14845   4.475   2.851   8.679 -0.0757  0.1226 -0.0022
 1009TP3     H114846   4.475   2.934   8.726  1.6200  0.5844 -0.7268
 1009TP3     H214847   4.510   2.873   8.592 -0.9507 -1.1064 -0.6898
 1010TP3      O14848   5.206   0.256   9.480  0.0217  0.2088  0.8648
 1010TP3     H114849   5.141   0.311   9.523  0.3301  0.0449  1.5571
 1010TP3     H214850   5.213   0.292   9.392 -0.2460  0.8798  1.1104
 1011TP3      O14851   1.749   0.094   2.014 -0.0097 -0.7631  0.3163
 1011TP3     H114852   1.674   0.085   2.073 -0.7860 -1.0558 -0.6980
 1011TP3     H214853   1.735   0.179   1.971  0.1873 -0.8614  0.0591
 1012TP3      O14854   4.037   4.547   9.595 -0.3816 -0.1321 -0.5542
 1012TP3     H114855   4.053   4.467   9.645  3.8222  2.3674  2.8264
 1012TP3     H214856   3.961   4.587   9.638 -0.2642 -0.6026  0.1088
 1013TP3      O14857   4.164   3.649   6.495  0.3049  0.0867  0.3526
 1013TP3     H114858   4.144   3.555   6.484  0.7345  0.0734 -0.3537
 1013TP3     H214859   4.209   3.673   6.414 -0.7650  1.1691  0.0569
 1014TP3      O14860   1.318   3.378   2.083  0.0730  0.0431 -0.2736
 1014TP3     H114861   1.262   3.455   2.071 -1.3806 -0.8378  0.5612
 1014TP3     H214862   1.273   3.308   2.035  0.1093 -0.8308  0.9184
 1015TP3      O14863   1.363   2.417   2.147 -0.3949 -0.4073  0.1292
 1015TP3     H114864   1.447   2.456   2.169 -0.2666 -1.0149  0.7735
 1015TP3     H214865   1.379   2.323   2.148 -0.4780 -0.4997 -2.3124
 1016TP3      O14866   4.152   2.540   9.052 -0.3828  0.1818  0.0410
 1016TP3     H114867   4.226   2.506   9.103  1.7930  1.8683 -1.7922
 1016TP3     H214868   4.144   2.480   8.978 -0.4605  0.3641 -0.0971
 1017TP3      O14869   3.661   2.072   3.893  0.3491 -0.4460  0.2933
 1017TP3     H114870   3.734   2.129   3.916 -1.2147  2.2863 -0.9664
 1017TP3     H214871   3.626   2.109   3.812 -2.2478 -1.7590  0.6926
 1018TP3      O14872   2.408   1.277   8.441  0.1742 -0.3619 -0.3607
 1018TP3     H114873   2.482   1.332   8.417 -1.7831  1.9739 -1.4254
 1018TP3     H214874   2.416   1.266   8.536  1.0076  1.1659 -0.2285
 1019TP3      O14875   1.313   0.894   1.133  0.3202 -0.1434  0.2244
 1019TP3     H114876   1.351   0.936   1.210 -0.1492 -1.7338  1.3953
 1019TP3     H214877   1.223   0.873   1.159 -0.9340  2.0435 -1.8870
 1020TP3      O14878   1.644   2.710   6.909  0.2027  0.0952  0.5604
 1020TP3     H114879   1.677   2.766   6.979  0.6406  0.8240 -0.2116
 1020TP3     H214880   1.723   2.676   6.866  0.0274 -2.6989  2.1700
 1021TP3      O14881   3.303   0.619   9.139 -0.1602  0.2318 -0.2630
 1021TP3     H114882   3.369   0.687   9.156 -0.7360  0.7155  0.0614
 1021TP3     H214883   3.299   0.614   9.043  0.5510 -0.0067 -0.2894
 1022TP3      O14884   4.150   2.028   2.196  0.0735 -0.0186  0.0620
 1022TP3     H114885   4.189   2.101   2.147 -0.7342  0.3708 -0.0158
 1022TP3     H214886   4.078   2.068   2.245 -1.7696 -1.0905 -1.6380
 1023TP3      O14887   0.978   2.509   0.475 -0.9761 -0.2321 -0.6988
 1023TP3     H114888   0.910   2.566   0.512 -0.3876  0.3530 -0.4967
 1023TP3     H214889   0.982   2.533   0.383 -0.6640  0.1321 -0.5947
 1024TP3      O14890   4.441   2.331   1.881 -0.0675 -0.1067  0.4772
 1024TP3     H114891   4.492   2.314   1.802 -1.9435 -0.0624 -0.8245
 1024TP3     H214892   4.502   2.371   1.942  1.4389 -0.1492 -0.9540
 1025TP3      O14893   4.555   0.998   3.182 -1.2006  0.3160 -0.5739
 1025TP3     H114894   4.573   0.911   3.219  0.5966 -0.0267 -2.0829
 1025TP3     H214895   4.469   1.021   3.217 -1.6699 -1.9929  0.0096
 1026TP3      O14896   0.679   3.401   2.126  0.0870  0.0245 -0.2163
 1026TP3     H114897   0.685   3.328   2.188  0.2127  0.5623  0.4184
 1026TP3     H214898   0.619   3.370   2.058 -0.0227 -0.5925  0.1554
 1027TP3      O14899   3.819   4.813   8.398 -0.3221  0.0545  0.1894
 1027TP3     H114900   3.768   4.828   8.478 -0.2282 -1.7232  0.6324
 1027TP3     H214901   3.894   4.762   8.428  0.0997 -0.0009 -0.9407
 1028TP3      O14902   4.457   4.367   6.992 -0.8844  0.2826 -0.5323
 1028TP3     H114903   4.502   4.359   6.908  0.1311 -0.5534  0.0631
 1028TP3     H214904   4.400   4.290   6.997  0.1431 -0.4565  0.1524
 1029TP3      O14905   1.902   0.843   1.037 -0.2246  0.1436 -0.4525
 1029TP3     H114906   1.930   0.935   1.030  0.1044  0.0419 -0.5051
 1029TP3     H214907   1.868   0.835   1.126  0.8069  0.0359 -0.0562
 1030TP3      O14908   3.213   3.224   7.622 -0.3609  0.1595  0.0522
 1030TP3     H114909   3.175   3.193   7.704 -0.3873 -1.3889 -0.5067
 1030TP3     H214910   3.160   3.182   7.554 -0.0044  0.9913 -0.7594
 1031TP3      O14911   0.576   5.001   8.014 -0.3715  0.1823 -0.1077
 1031TP3     H114912   0.646   4.939   8.035  0.7003  1.3198 -0.2244
 1031TP3     H214913   0.499   4.965   8.058  0.6214 -0.2963  1.3441
 1032TP3      O14914   1.364   3.896   8.632 -0.4512  0.2149  0.5324
 1032TP3     H114915   1.296   3.892   8.564  1.3642  0.7879 -1.4048
 1032TP3     H214916   1.386   3.804   8.649  1.4094  0.0162 -2.2246
 1033TP3      O14917   3.960   4.326  10.119  0.1368 -0.3877  0.4799
 1033TP3     H114918   3.970   4.419  10.097 -0.0568 -0.0599  1.6941
 1033TP3     H214919   3.921   4.326  10.207 -0.1740 -1.6197  0.3657
 1034TP3      O14920   2.404   4.908   8.101 -0.4194  0.5058 -0.2519
 1034TP3     H114921   2.442   4.848   8.164  1.1370  1.2430 -0.4410
 1034TP3     H214922   2.365   4.851   8.035 -0.3281 -0.2812  0.3582
 1035TP3      O14923   2.478   1.751   2.228 -0.0270 -0.1059  0.1158
 1035TP3     H114924   2.487   1.826   2.169 -0.3818  1.9606  2.5596
 1035TP3     H214925   2.567   1.733   2.258 -0.1162  0.2049  0.5637
 1036TP3      O14926   2.267   2.928   8.372  0.3002 -0.0090  0.6289
 1036TP3     H114927   2.195   2.946   8.312 -0.3850 -0.7483  1.2081
 1036TP3     H214928   2.231   2.865   8.435  1.2868  0.0266  1.2522
 1037TP3      O14929   0.163   0.648   1.043 -0.0093 -0.1169 -0.0349
 1037TP3     H114930   0.210   0.684   0.968  1.8076 -2.9329 -0.3859
 1037TP3     H214931   0.172   0.553   1.034 -4.0230 -0.8185  1.0591
 1038TP3      O14932   5.282   5.091   0.080  0.2134 -0.0040 -0.2647
 1038TP3     H114933   5.223   5.165   0.063  2.6737  1.8833 -1.2681
 1038TP3     H214934   5.311   5.104   0.170  0.2134 -0.0799 -0.2541
 1039TP3      O14935   0.077   4.971   0.618 -0.5274  0.1686 -0.5579
 1039TP3     H114936   0.147   4.935   0.672  0.6396  0.2004 -2.0024
 1039TP3     H214937  -0.003   4.932   0.654  0.5136 -2.6455 -1.0348
 1040TP3      O14938   0.533   1.487   8.977  0.2049  0.3561  0.0212
 1040TP3     H114939   0.458   1.479   9.036  0.6422 -1.8299  0.3712
 1040TP3     H214940   0.607   1.505   9.035  0.3834 -0.3049  0.0155
 1041TP3      O14941   5.133   1.465   0.175  0.1418 -0.1825 -0.0301
 1041TP3     H114942   5.218   1.424   0.156 -0.5383 -1.3245 -0.7380
 1041TP3     H214943   5.069   1.399   0.149 -1.0031  1.1677 -0.7553
 1042TP3      O14944   0.467   5.275   8.767  0.2013 -0.2098  0.0627
 1042TP3     H114945   0.386   5.303   8.724 -0.3264 -0.0061  1.1422
 1042TP3     H214946   0.536   5.295   8.705 -0.2894  2.1374  0.1924
 1043TP3      O14947   1.487   0.405   8.023 -0.9172 -0.3059  0.0329
 1043TP3     H114948   1.508   0.383   8.114 -2.2622  0.1489  0.4841
 1043TP3     H214949   1.528   0.490   8.009 -0.3247 -0.5830  0.0613
 1044TP3      O14950   1.458   3.147   1.657 -0.2981 -0.2527 -0.0818
 1044TP3     H114951   1.414   3.069   1.624 -0.7623 -1.1085  2.3797
 1044TP3     H214952   1.550   3.121   1.666 -0.5667 -0.7792  1.3635
 1045TP3      O14953   2.297   4.983   1.351  0.1015 -0.2601  0.3823
 1045TP3     H114954   2.262   5.058   1.304 -0.1208 -0.4928  0.1740
 1045TP3     H214955   2.228   4.958   1.413 -0.5855 -1.4114 -0.7994
 1046TP3      O14956   4.928   1.606   6.685  0.1429  0.3932  0.4323
 1046TP3     H114957   4.979   1.571   6.759 -1.9988 -1.4661  1.1449
 1046TP3     H214958   4.915   1.530   6.628 -0.9465  1.0536 -0.2120
 1047TP3      O14959   0.510   3.943   1.994  0.2766  0.4652 -0.7583
 1047TP3     H114960   0.559   3.896   1.926 -0.4981 -0.0022 -1.0122
 1047TP3     H214961   0.447   3.879   2.026  0.1711  0.9006 -0.0776
 1048TP3      O14962   3.856   5.272   1.894 -0.4340 -0.3275  0.0278
 1048TP3     H114963   3.951   5.283   1.900  0.0195 -2.9052 -0.9709
 1048TP3     H214964   3.820   5.351   1.934  2.1146  0.8080  0.2795
 1049TP3      O14965   1.958   4.000   9.873  0.2404  0.1270 -0.4557
 1049TP3     H114966   1.890   4.039   9.818  0.9173  1.1100 -0.6102
 1049TP3     H214967   2.000   3.935   9.817 -0.1638 -0.0554 -0.5549
 1050TP3      O14968   4.191   0.878   9.973 -0.3686 -0.2810 -0.4496
 1050TP3     H114969   4.144   0.922  10.044 -0.3748  0.8290 -1.1183
 1050TP3     H214970   4.178   0.785   9.990  0.4550 -0.0736  1.5580
 1051TP3      O14971   3.793   1.000   8.161 -0.6573  0.0639  0.0431
 1051TP3     H114972   3.837   0.917   8.178 -0.3859  0.1876 -0.0540
 1051TP3     H214973   3.705   0.988   8.197 -0.9585 -0.6377 -0.9053
 1052TP3      O14974   0.603   2.087   9.453 -0.9108 -0.6485  0.3411
 1052TP3     H114975   0.526   2.143   9.448 -0.4905  0.0782  1.5850
 1052TP3     H214976   0.670   2.141   9.494  0.3110 -1.2406 -0.7921
 1053TP3      O14977   1.242   4.128   1.372  0.9832 -0.4832  0.6363
 1053TP3     H114978   1.213   4.133   1.463 -2.7534 -0.1663 -0.3746
 1053TP3     H214979   1.195   4.052   1.337  0.5823  0.6677 -1.5077
 1054TP3      O14980   0.022   0.444   9.880  0.6818 -0.1530  0.3115
 1054TP3     H114981   0.039   0.534   9.851 -0.9620  0.5203  1.3125
 1054TP3     H214982  -0.072   0.441   9.898  1.1689 -1.1049  3.3728
 1055TP3      O14983   1.878   1.842   7.923 -0.4016  0.0331 -0.3143
 1055TP3     H114984   1.784   1.824   7.918 -0.1079 -2.1343  0.9493
 1055TP3     H214985   1.919   1.756   7.928  1.7730  0.8794 -1.9366
 1056TP3      O14986   1.250   0.340   9.360  0.3572 -0.3052  0.0454
 1056TP3     H114987   1.266   0.278   9.289  1.8365  0.0537  0.0454
 1056TP3     H214988   1.260   0.426   9.319 -1.6767 -0.0197  0.0435
 1057TP3      O14989   4.868   2.332   8.931  0.4787 -0.3241 -0.3954
 1057TP3     H114990   4.877   2.408   8.988 -0.5954 -1.3433  1.2200
 1057TP3     H214991   4.933   2.270   8.966  1.2021 -0.2481 -1.5669
 1058TP3      O14992   1.342   4.139   1.096  0.1550 -0.3637  0.2673
 1058TP3     H114993   1.305   4.157   1.182 -2.6100  1.2163 -1.1198
 1058TP3     H214994   1.289   4.067   1.062  0.3474 -0.0977 -0.6293
 1059TP3      O14995   2.269   4.836   2.421 -0.4980  0.0816 -0.1088
 1059TP3     H114996   2.263   4.754   2.372  0.6422  0.6468 -1.2598
 1059TP3     H214997   2.305   4.811   2.506  2.9502 -0.3233 -1.5270
 1060TP3      O14998   1.355   1.971   7.854 -0.0650 -0.5487 -0.1173
 1060TP3     H114999   1.336   2.014   7.771 -1.1055  1.1349  0.9317
 1060TP3     H215000   1.385   2.041   7.911 -0.4241 -1.4647  1.2523
 1061TP3      O15001   1.205   5.232   8.554  0.1053  0.1723 -0.4308
 1061TP3     H115002   1.225   5.168   8.623 -3.1759 -0.9181 -0.3068
 1061TP3     H215003   1.235   5.190   8.473 -1.0209 -1.0828 -0.2283
 1062TP3      O15004   2.117   3.604   0.610  0.0347 -0.2124 -0.7463
 1062TP3     H115005   2.190   3.565   0.562 -0.9236 -1.9106 -0.9210
 1062TP3     H215006   2.040   3.556   0.578 -0.7484 -0.8122  1.8388
 1063TP3      O15007   2.619   2.344   9.785 -0.1900 -0.3112  0.1729
 1063TP3     H115008   2.533   2.321   9.750 -0.2497  1.0275 -0.6308
 1063TP3     H215009   2.613   2.325   9.878 -0.7428 -1.9538 -0.1705
 1064TP3      O15010   3.974   1.977   1.438 -0.6021 -1.2756  0.1213
 1064TP3     H115011   3.923   1.918   1.382  1.2293 -2.3480 -0.4863
 1064TP3     H215012   4.035   2.020   1.378  0.1643 -1.0756  1.0228
 1065TP3      O15013   5.271   2.117   3.669 -0.0678  0.3700  0.2146
 1065TP3     H115014   5.182   2.088   3.647 -0.2968  0.6975  0.6852
 1065TP3     H215015   5.261   2.160   3.754  0.5328  0.4726  0.2337
 1066TP3      O15016   4.422   2.688   2.148  0.3547  0.4989 -0.2119
 1066TP3     H115017   4.330   2.694   2.123 -0.1671  1.1510  1.6347
 1066TP3     H215018   4.437   2.766   2.202  1.1991 -0.9446  1.7988
 1067TP3      O15019   0.491   0.985   0.868 -0.1840 -0.2617 -0.0687
 1067TP3     H115020   0.467   1.076   0.888  2.2439  0.2357  0.9697
 1067TP3     H215021   0.526   0.988   0.779 -0.9345 -0.3773 -0.3754
 1068TP3      O15022   3.504   1.898   1.429  0.1720 -0.1190 -0.5212
 1068TP3     H115023   3.551   1.981   1.434  0.1197 -0.1136 -0.1025
 1068TP3     H215024   3.572   1.832   1.440  0.1949 -0.1317 -0.7277
 1069TP3      O15025   0.255   3.092   0.142  0.5362 -0.1703 -0.0280
 1069TP3     H115026   0.207   3.160   0.096  0.6410  1.6706  2.3648
 1069TP3     H215027   0.188   3.030   0.171  0.5726 -1.9958 -3.3677
 1070TP3      O15028   1.971   4.125   7.374 -0.0121  0.0421  0.3658
 1070TP3     H115029   1.894   4.093   7.327 -1.2790  2.6879  0.4707
 1070TP3     H215030   1.936   4.179   7.445  1.9058  1.1266  0.5811
 1071TP3      O15031   4.891   1.480   0.368 -0.4568 -0.3886 -0.6115
 1071TP3     H115032   4.802   1.513   0.352 -0.4283  0.4666  0.8277
 1071TP3     H215033   4.945   1.525   0.303 -0.8936  0.0328 -0.6923
 1072TP3      O15034   4.126   1.312   8.612 -0.0428 -0.0477 -0.1434
 1072TP3     H115035   4.200   1.278   8.661  0.8428  0.2522 -1.2174
 1072TP3     H215036   4.104   1.243   8.549 -1.3598 -0.5556  0.8251
 1073TP3      O15037   2.198   0.968   8.995 -0.0998 -0.6137  0.7712
 1073TP3     H115038   2.193   0.873   9.007 -1.4967 -0.4572  1.6202
 1073TP3     H215039   2.229   1.001   9.080 -0.1289 -0.2703  0.6496
 1074TP3      O15040   2.119   3.338   1.915 -0.1837  0.0098 -0.2715
 1074TP3     H115041   2.080   3.251   1.925 -2.1933  1.0114  1.2167
 1074TP3     H215042   2.124   3.352   1.821  1.8737 -2.3744 -0.6321
 1075TP3      O15043   3.685   2.545   9.992  0.2194 -0.4422  0.0303
 1075TP3     H115044   3.679   2.604   9.917  0.9890 -1.3355 -0.7635
 1075TP3     H215045   3.759   2.578  10.043 -0.7107  0.5546  0.7686
 1076TP3      O15046   3.223   1.713   2.318 -0.1683 -0.6722  0.6946
 1076TP3     H115047   3.166   1.790   2.326  1.3763  0.5337  0.5760
 1076TP3     H215048   3.210   1.683   2.228  0.3124  0.3730  0.2573
 1077TP3      O15049   5.276   0.183   8.056  0.2023 -0.0640  0.2605
 1077TP3     H115050   5.246   0.161   8.144  1.4810 -1.3034  0.4432
 1077TP3     H215051   5.196   0.197   8.006 -0.5542  0.5220  1.5692
 1078TP3      O15052   2.360   4.973   6.740 -0.0561  0.0949 -0.1278
 1078TP3     H115053   2.368   4.880   6.761 -0.3704  0.3340  1.1455
 1078TP3     H215054   2.266   4.991   6.746  0.1391  0.8143  1.1852
 1079TP3      O15055   2.901   3.412   1.070  0.0180  0.7848 -0.9863
 1079TP3     H115056   2.906   3.430   0.976 -2.3936 -1.7935 -1.7166
 1079TP3     H215057   2.826   3.464   1.100  0.0078  0.6408 -0.7626
 1080TP3      O15058   4.507   0.473   8.276  0.2089 -0.5460 -0.0164
 1080TP3     H115059   4.505   0.450   8.183 -0.1967  0.5287 -0.2977
 1080TP3     H215060   4.573   0.543   8.281 -0.1701 -0.2130  0.3988
 1081TP3      O15061   4.351   0.117   0.963 -0.0962 -0.3130  0.6008
 1081TP3     H115062   4.400   0.039   0.990 -0.0634 -0.4380  0.1755
 1081TP3     H215063   4.394   0.147   0.883 -0.3345 -0.0647  0.5628
 1082TP3      O15064   5.045   2.251   9.330 -0.3442  0.2525 -0.0553
 1082TP3     H115065   5.088   2.283   9.409 -0.8889  1.2370 -0.1423
 1082TP3     H215066   4.951   2.250   9.352 -0.4167 -0.4797 -0.3495
 1083TP3      O15067   2.750   0.345   0.930 -0.2491 -0.3372  0.0867
 1083TP3     H115068   2.751   0.250   0.917  2.1588 -0.4349  0.3967
 1083TP3     H215069   2.819   0.377   0.871  0.2719  0.9680  1.3473
 1084TP3      O15070   4.084   4.786   8.534  0.1359 -0.1130  0.2325
 1084TP3     H115071   4.072   4.879   8.518  3.8955  0.3042 -1.1901
 1084TP3     H215072   4.122   4.781   8.621  0.4283 -0.2746  0.0969
 1085TP3      O15073   1.151   1.399   2.807 -0.2499 -0.4559 -0.0954
 1085TP3     H115074   1.220   1.465   2.818  0.1487 -0.8027 -0.4968
 1085TP3     H215075   1.133   1.399   2.713  1.7891 -2.9345 -0.5986
 1086TP3      O15076   4.053   0.507   8.617 -0.6231  0.4182 -1.0616
 1086TP3     H115077   4.001   0.454   8.677  0.5490 -2.0235 -2.0475
 1086TP3     H215078   4.008   0.592   8.615 -2.9881 -0.6917  0.1628
 1087TP3      O15079   1.305   0.487   1.329 -0.0788  0.0092  0.0660
 1087TP3     H115080   1.290   0.401   1.291  0.1993  0.3968 -0.9338
 1087TP3     H215081   1.321   0.469   1.422 -2.1616 -0.8169  0.3138
 1088TP3      O15082   3.015   3.851   2.330  0.1129  0.6416 -0.6853
 1088TP3     H115083   3.060   3.932   2.354 -1.2709  0.7657  1.7405
 1088TP3     H215084   3.085   3.794   2.297  1.6820  1.6434  0.7365
 1089TP3      O15085   3.531   3.622   9.046  0.0061  0.2513  0.2097
 1089TP3     H115086   3.615   3.656   9.016 -1.2463  0.9332 -2.8928
 1089TP3     H215087   3.501   3.567   8.974 -2.2229  0.0319  1.2357
 1090TP3      O15088   1.539   2.208   2.611 -1.2489 -0.1118 -0.4430
 1090TP3     H115089   1.558   2.271   2.681 -1.9173 -0.5270  0.1295
 1090TP3     H215090   1.524   2.125   2.658 -1.4021 -0.4646 -1.1069
 1091TP3      O15091   1.526   1.339   1.049 -0.4957  0.0124 -0.2643
 1091TP3     H115092   1.560   1.276   0.986  0.5536  1.4590 -1.2295
 1091TP3     H215093   1.604   1.380   1.087 -1.0672  2.2328 -1.2897
 1092TP3      O15094   0.562   4.102   2.255  0.2602 -0.3130  0.5041
 1092TP3     H115095   0.480   4.105   2.304  1.1105  2.8310  1.9612
 1092TP3     H215096   0.623   4.154   2.307  2.0155  0.9133 -2.5460
 1093TP3      O15097   2.851   2.694   2.640 -0.3011  0.2418  0.1748
 1093TP3     H115098   2.833   2.722   2.729 -0.1428  1.2290 -0.0871
 1093TP3     H215099   2.795   2.618   2.626 -0.9631  0.6021  0.8243
 1094TP3      O15100   1.502   0.884   8.591  0.0916  0.6741 -0.0553
 1094TP3     H115101   1.554   0.805   8.607 -0.3031  0.6150  1.0425
 1094TP3     H215102   1.558   0.940   8.539  0.8415  0.1641  0.1847
 1095TP3      O15103   1.653   0.398   9.110 -0.3517  0.2000 -0.0775
 1095TP3     H115104   1.629   0.305   9.114  1.2476 -0.3001 -1.3027
 1095TP3     H215105   1.734   0.404   9.161 -0.0269  0.7698 -0.6447
 1096TP3      O15106   3.333   4.469   7.478  0.2712  0.5524  0.1619
 1096TP3     H115107   3.306   4.554   7.442 -0.6647  0.5757  0.8771
 1096TP3     H215108   3.255   4.413   7.468  0.5823  0.0434  0.5275
 1097TP3      O15109   5.231   1.146   3.014  0.1166  0.2085 -0.6147
 1097TP3     H115110   5.292   1.152   2.940  2.2095  0.7859  1.0450
 1097TP3     H215111   5.256   1.066   3.059 -1.1211 -0.1307 -0.5102
 1098TP3      O15112   3.035   4.323   2.674 -0.2010 -0.5736  0.2076
 1098TP3     H115113   3.053   4.358   2.761 -0.5467  0.4111 -0.1124
 1098TP3     H215114   3.120   4.322   2.630 -0.4535  1.6882 -0.4346
 1099TP3      O15115   2.571   0.143   2.478 -0.3786  0.8547 -0.6298
 1099TP3     H115116   2.493   0.088   2.476 -0.4355  0.9301 -0.4722
 1099TP3     H215117   2.618   0.121   2.397 -0.3644  0.5230 -0.5322
 1100TP3      O15118   4.907   1.025   1.295  0.0650 -0.0593  0.7859
 1100TP3     H115119   4.914   0.971   1.374 -0.6381 -2.0795 -0.4550
 1100TP3     H215120   4.826   0.995   1.253  0.4554  0.9184 -0.7278
 1101TP3      O15121   0.711   3.354   0.926  0.1777 -0.0689 -0.6125
 1101TP3     H115122   0.678   3.332   0.839  0.8824  0.0357 -0.9110
 1101TP3     H215123   0.773   3.284   0.947  1.1814  0.7262 -0.8662
 1102TP3      O15124   1.920   0.469   0.460  0.0446 -0.3612 -0.1722
 1102TP3     H115125   1.871   0.544   0.494 -0.7652 -0.8701 -0.2065
 1102TP3     H215126   1.895   0.463   0.368 -0.9045 -1.4615  0.1409
 1103TP3      O15127   4.805   5.105   9.975 -0.0089  0.0269 -0.4897
 1103TP3     H115128   4.893   5.096   9.939  1.3609  0.3210  2.4949
 1103TP3     H215129   4.762   5.169   9.917  2.5091  1.5908 -0.7984
 1104TP3      O15130   2.124   4.508   7.460  0.0561  0.2530  0.0771
 1104TP3     H115131   2.175   4.467   7.530 -0.0693  1.9127  1.2074
 1104TP3     H215132   2.144   4.601   7.468 -0.0534  0.4956 -2.0618
 1105TP3      O15133   2.313   0.012   8.409 -0.3163  0.5675  0.4775
 1105TP3     H115134   2.319   0.056   8.324  1.2195 -1.5652 -0.6295
 1105TP3     H215135   2.400   0.023   8.448  0.0021 -1.0909  0.3186
 1106TP3      O15136   4.404   1.614   2.873 -0.2837  0.4937  0.5131
 1106TP3     H115137   4.355   1.576   2.799 -0.3689 -0.0527  0.8443
 1106TP3     H215138   4.337   1.653   2.929 -0.2715  0.4225  0.5778
 1107TP3      O15139   2.242   1.977  10.034  0.5946  0.4067  0.0949
 1107TP3     H115140   2.156   2.018  10.031  0.6452  0.5197  0.1811
 1107TP3     H215141   2.295   2.027   9.972  0.3667 -0.1969 -0.6003
 1108TP3      O15142   3.362   4.156   0.695  0.4663  0.5514 -0.1655
 1108TP3     H115143   3.451   4.157   0.660  0.7242  0.8660  0.4715
 1108TP3     H215144   3.370   4.113   0.780 -0.0699  0.1892 -0.2924
 1109TP3      O15145   2.783   0.370   0.270  0.0634 -0.4772  0.7309
 1109TP3     H115146   2.878   0.380   0.274  0.3542 -0.4262 -2.8992
 1109TP3     H215147   2.750   0.457   0.247 -0.6647 -0.8802  0.1899
 1110TP3      O15148   1.802   2.443   2.339 -0.7488  0.0980  0.4100
 1110TP3     H115149   1.799   2.431   2.434 -0.3027  0.9788  0.5473
 1110TP3     H215150   1.813   2.537   2.327  1.5080 -0.1928 -0.4440
 1111TP3      O15151   4.712   0.716   1.896  0.4962 -0.0971  0.2260
 1111TP3     H115152   4.787   0.659   1.914 -0.6894 -1.6264  0.4615
 1111TP3     H215153   4.647   0.692   1.961 -0.9921 -0.2727 -1.2620
 1112TP3      O15154   4.082   3.014   1.694  0.1073 -0.2219  0.1695
 1112TP3     H115155   4.151   3.004   1.759 -0.4849 -1.3330  0.6473
 1112TP3     H215156   4.029   2.934   1.702 -0.5748  0.0890 -0.9612
 1113TP3      O15157   2.638   2.177   1.370  0.7247 -0.1217  0.6247
 1113TP3     H115158   2.729   2.192   1.346  0.2554  1.8788 -0.0457
 1113TP3     H215159   2.606   2.117   1.303  1.2103  0.1799  0.1089
 1114TP3      O15160   1.481   3.467  10.015 -0.3875 -0.2320  0.4410
 1114TP3     H115161   1.562   3.478   9.965 -1.0297  1.7121 -0.2931
 1114TP3     H215162   1.457   3.375  10.002  1.3287 -0.6797  0.1448
 1115TP3      O15163   1.768   2.362   8.956  0.5560  0.1118 -0.2441
 1115TP3     H115164   1.863   2.350   8.957  0.3887 -1.3996 -0.4999
 1115TP3     H215165   1.737   2.318   9.035 -0.0072 -0.1142 -0.5839
 1116TP3      O15166   0.258   2.524   6.815  0.1918 -0.0029 -0.4414
 1116TP3     H115167   0.180   2.538   6.869  0.0653  1.0038 -0.8688
 1116TP3     H215168   0.264   2.428   6.806 -0.9600 -0.0941 -0.3618
 1117TP3      O15169   1.253   0.957   8.509  0.1899  0.0035  0.0016
 1117TP3     H115170   1.198   0.929   8.582  1.2789 -0.7784  0.5464
 1117TP3     H215171   1.342   0.950   8.542  0.6544  0.7166 -1.0478
 1118TP3      O15172   2.156   4.719   8.209 -0.2203 -0.2340  0.3446
 1118TP3     H115173   2.182   4.696   8.120  0.3403 -1.1357  0.7238
 1118TP3     H215174   2.094   4.650   8.234  0.9373 -0.9948  1.2484
 1119TP3      O15175   0.451   4.420   0.341  0.0085 -0.0754  0.0395
 1119TP3     H115176   0.426   4.509   0.367  2.4183  0.4985  0.7024
 1119TP3     H215177   0.529   4.402   0.393 -0.0168 -2.3331 -0.6168
 1120TP3      O15178   4.041   4.929   6.756  0.5604  0.4681  0.4012
 1120TP3     H115179   4.030   5.024   6.754  1.0311  0.5134 -0.6079
 1120TP3     H215180   4.128   4.914   6.720 -0.6651 -0.4989 -2.4106
 1121TP3      O15181   2.282   0.043   3.188  0.0847 -0.1432 -0.3667
 1121TP3     H115182   2.347  -0.012   3.144 -0.5825 -0.2206 -1.2742
 1121TP3     H215183   2.216   0.060   3.122  0.2997  1.8458 -0.1285
 1122TP3      O15184   4.331   3.320   9.008  0.0950  0.5351  0.2837
 1122TP3     H115185   4.349   3.240   9.057  0.5411  0.6984  0.3854
 1122TP3     H215186   4.279   3.373   9.068 -2.9536 -0.9116 -0.8214
 1123TP3      O15187   4.611   0.439   7.168 -0.2132  0.0286  0.2116
 1123TP3     H115188   4.650   0.473   7.088 -0.5932  0.7574  0.3302
 1123TP3     H215189   4.517   0.443   7.153 -0.2775 -1.6704 -0.0539
 1124TP3      O15190   0.861   2.757   9.636  0.4841 -0.1652 -0.1814
 1124TP3     H115191   0.894   2.736   9.549  5.1447 -2.2253  1.7601
 1124TP3     H215192   0.824   2.675   9.668  0.1516  0.1748  0.3264
 1125TP3      O15193   4.331   3.752   3.350  0.3344 -0.0489 -0.1164
 1125TP3     H115194   4.278   3.831   3.358 -1.5069 -1.2589  0.2029
 1125TP3     H215195   4.304   3.697   3.423  0.7016 -1.4530 -0.9946
 1126TP3      O15196   1.399   1.781   7.072 -0.1662  0.4168 -0.1381
 1126TP3     H115197   1.383   1.778   6.978 -0.0866 -1.8817 -0.1262
 1126TP3     H215198   1.373   1.870   7.098  0.7733  1.4373 -2.4621
 1127TP3      O15199   4.535   0.248   7.476 -0.0846 -0.5645 -0.1112
 1127TP3     H115200   4.450   0.229   7.435 -0.7531 -0.5138  1.2227
 1127TP3     H215201   4.588   0.170   7.457 -0.1661 -0.2915 -1.5735
 1128TP3      O15202   1.643   2.309   8.699  0.3013  0.1202  0.3356
 1128TP3     H115203   1.712   2.256   8.660  1.3225  0.9470  0.9510
 1128TP3     H215204   1.685   2.354   8.772 -0.3309  2.2541 -0.5328
 1129TP3      O15205   4.963   0.582   2.614 -0.4200  0.6733  0.3256
 1129TP3     H115206   4.959   0.560   2.707  0.5789 -1.3529 -0.0627
 1129TP3     H215207   4.901   0.522   2.573 -1.0473  1.7345 -0.3142
 1130TP3      O15208   4.567   4.986   8.101 -0.9046  0.2160 -0.4773
 1130TP3     H115209   4.656   4.951   8.103 -1.0340 -0.3283 -2.1669
 1130TP3     H215210   4.548   4.996   8.007 -2.2629  1.2655 -0.1263
 1131TP3      O15211   2.758   0.195   9.247  0.1244  0.0211 -0.0596
 1131TP3     H115212   2.726   0.106   9.239  1.9033 -0.6075 -0.5540
 1131TP3     H215213   2.708   0.245   9.182 -0.1996 -0.7941 -0.4440
 1132TP3      O15214   2.441   2.133   9.258 -0.4446  0.2506 -0.3234
 1132TP3     H115215   2.500   2.193   9.212 -0.2222  0.8929  0.7646
 1132TP3     H215216   2.441   2.054   9.205  1.9881 -0.0574  0.0031
 1133TP3      O15217   3.135   3.266   1.694  0.6396 -0.1652  0.0821
 1133TP3     H115218   3.172   3.303   1.614  1.7881 -2.8881 -0.7636
 1133TP3     H215219   3.139   3.172   1.681 -1.4013 -0.6795  2.3870
 1134TP3      O15220   2.936   2.249   8.268  0.5106  0.2201 -0.2265
 1134TP3     H115221   2.849   2.216   8.291  0.5874 -0.8704 -1.3924
 1134TP3     H215222   2.996   2.188   8.311  0.6638 -0.6049 -1.5739
 1135TP3      O15223   5.015   0.794   0.500 -0.6406  0.1171 -0.0231
 1135TP3     H115224   4.926   0.787   0.466 -0.1069 -0.8777 -1.2807
 1135TP3     H215225   5.028   0.714   0.551  0.2421 -0.8482 -1.6661
 1136TP3      O15226   3.027   3.083   2.000 -0.4962 -0.3340 -0.3161
 1136TP3     H115227   2.937   3.104   1.975 -0.7668 -0.0806  0.7901
 1136TP3     H215228   3.073   3.167   1.999 -0.7502 -0.1507  0.8812
 1137TP3      O15229   5.249   2.128   2.624  0.5539  0.1766 -0.4187
 1137TP3     H115230   5.155   2.116   2.636  0.6887  0.4093  1.0916
 1137TP3     H215231   5.258   2.154   2.533 -0.8569  0.2579 -0.5651
 1138TP3      O15232   2.479   3.800  10.081 -0.1620 -0.1740  0.1321
 1138TP3     H115233   2.511   3.868  10.140 -0.3511  1.1731 -1.2360
 1138TP3     H215234   2.551   3.783  10.021 -0.9956  0.8267 -1.2122
 1139TP3      O15235   3.576   3.628   3.825 -0.1385 -0.4387 -0.0385
 1139TP3     H115236   3.487   3.638   3.790  0.0374  0.7592 -0.1743
 1139TP3     H215237   3.591   3.533   3.824 -1.2301 -0.6260 -0.4659
 1140TP3      O15238   3.286   2.956   7.293  0.2961  0.1951 -0.3179
 1140TP3     H115239   3.353   2.919   7.351 -0.2581 -0.3602 -0.0222
 1140TP3     H215240   3.314   3.046   7.278 -0.5854  1.0131  2.4311
 1141TP3      O15241   4.905   3.463   0.092  0.2195  0.4461  0.3804
 1141TP3     H115242   4.875   3.443   0.180  0.5749  1.8109  0.8283
 1141TP3     H215243   4.901   3.558   0.086  1.9312  0.4992 -0.4553
 1142TP3      O15244   4.310   2.533   9.739 -0.3779  0.4574  0.4112
 1142TP3     H115245   4.234   2.560   9.689 -0.5664  1.4046  1.1749
 1142TP3     H215246   4.363   2.481   9.678 -1.6014 -0.1659 -0.1365
 1143TP3      O15247   4.761   2.391   2.448 -0.4505  0.4256 -0.1563
 1143TP3     H115248   4.699   2.450   2.407 -0.4579 -0.4394 -1.4390
 1143TP3     H215249   4.717   2.307   2.451 -0.4883  0.4531  1.7650
 1144TP3      O15250   4.670   1.480   2.866 -0.1378  0.0162  0.4746
 1144TP3     H115251   4.702   1.512   2.950 -0.4456 -1.0983  1.0254
 1144TP3     H215252   4.578   1.506   2.863 -0.2970 -0.5138  0.7686
 1145TP3      O15253   1.052   2.297   1.112 -0.0583  0.2777  0.0875
 1145TP3     H115254   1.027   2.206   1.098  2.3215 -0.1334 -2.0753
 1145TP3     H215255   1.122   2.293   1.177  0.4070  0.4951 -0.3962
 1146TP3      O15256   1.718   4.367   0.892  0.3143 -1.4673  0.4822
 1146TP3     H115257   1.703   4.448   0.941 -1.5422 -0.4160 -1.6530
 1146TP3     H215258   1.809   4.345   0.909  1.0348  1.3618  0.7378
 1147TP3      O15259   5.263   2.930   9.966 -0.1511 -0.1518 -0.1188
 1147TP3     H115260   5.329   2.861   9.960  0.0580 -0.0139  0.4930
 1147TP3     H215261   5.187   2.894   9.922  0.0389 -0.6767 -0.0303
 1148TP3      O15262   2.212   1.437   8.150 -0.0615 -0.0120 -0.2324
 1148TP3     H115263   2.227   1.477   8.064 -2.1754  0.1322 -0.5947
 1148TP3     H215264   2.220   1.343   8.133  2.4639  0.0818  0.0979
 1149TP3      O15265   2.916   3.322   9.459  0.1074 -0.2439 -0.6417
 1149TP3     H115266   2.888   3.376   9.533 -3.0275 -0.8924 -1.2425
 1149TP3     H215267   2.961   3.384   9.401 -1.0979  1.2037 -0.1191
 1150TP3      O15268   3.457   1.211   9.695  0.2302 -0.3084  0.4991
 1150TP3     H115269   3.499   1.134   9.734  3.8253  1.8181  1.3084
 1150TP3     H215270   3.505   1.226   9.614  0.2109  1.4901  0.7783
 1151TP3      O15271   1.821   0.086   9.021  0.1044 -0.1818  0.8417
 1151TP3     H115272   1.825   0.004   9.070 -0.3968  0.0505  1.2825
 1151TP3     H215273   1.727   0.097   9.001  0.3120 -0.3843 -0.3590
 1152TP3      O15274   2.968   0.379   1.453  0.1143 -0.2911 -0.8397
 1152TP3     H115275   2.964   0.397   1.359  1.5825  1.6662 -0.5957
 1152TP3     H215276   3.017   0.453   1.490  1.1017 -1.8568  1.2380
 1153TP3      O15277   4.642   2.502   9.937 -0.0743  0.1872  0.3526
 1153TP3     H115278   4.649   2.555   9.858  0.3091 -0.8666 -0.3431
 1153TP3     H215279   4.613   2.563  10.004 -0.0442  1.1834 -0.5127
 1154TP3      O15280   4.825   2.877   9.572  1.0617 -0.0122 -0.7419
 1154TP3     H115281   4.854   2.924   9.493  1.1788  0.2650 -0.5338
 1154TP3     H215282   4.821   2.944   9.640  2.4891 -0.5190 -0.1109
 1155TP3      O15283   3.454   1.722   1.721  0.7075 -0.4576  0.0719
 1155TP3     H115284   3.533   1.742   1.670 -0.6694  1.0874 -1.5878
 1155TP3     H215285   3.386   1.708   1.655 -0.9483  0.7324  1.4418
 1156TP3      O15286   4.794   1.176   7.789  0.1606  0.0954 -0.3632
 1156TP3     H115287   4.788   1.196   7.882  1.3671 -0.1088 -0.2201
 1156TP3     H215288   4.859   1.106   7.784  0.1139  0.1091 -1.3518
 1157TP3      O15289   0.891   3.620   8.221  0.1463 -0.2998  0.1209
 1157TP3     H115290   0.981   3.592   8.239 -0.0154 -0.4648  0.7159
 1157TP3     H215291   0.840   3.539   8.220  0.2399 -0.3861 -1.8740
 1158TP3      O15292   4.952   0.124   9.667  0.6010 -0.2929  0.4125
 1158TP3     H115293   4.973   0.107   9.575 -0.0695  2.3493 -0.3203
 1158TP3     H215294   4.869   0.171   9.664 -0.4984 -1.9590  2.5602
 1159TP3      O15295   2.785   2.730   6.842 -0.4329 -0.3342  0.1654
 1159TP3     H115296   2.730   2.808   6.840 -2.1707 -1.4020  2.2403
 1159TP3     H215297   2.870   2.761   6.874 -0.9911  0.7560  0.6372
 1160TP3      O15298   5.127   1.670   2.194 -0.1290  0.4168 -0.2916
 1160TP3     H115299   5.199   1.707   2.245  1.6968 -1.8478 -1.0158
 1160TP3     H215300   5.075   1.621   2.257 -0.4400  1.1844  0.0600
 1161TP3      O15301   1.316   1.387   2.192  0.1301  0.5047 -0.0539
 1161TP3     H115302   1.265   1.406   2.113  1.0286  1.1068 -0.5014
 1161TP3     H215303   1.322   1.291   2.194 -4.2972  0.0048  2.1293
 1162TP3      O15304   2.011   2.900   2.540  0.3340 -0.0085  0.0139
 1162TP3     H115305   2.042   2.987   2.512  0.8247  0.5283  2.0995
 1162TP3     H215306   1.962   2.868   2.464  2.6451  0.7781 -1.9620
 1163TP3      O15307   2.423   0.332   8.381 -0.6732 -0.5428 -0.2493
 1163TP3     H115308   2.493   0.306   8.323 -1.1652 -0.3197 -0.9546
 1163TP3     H215309   2.467   0.356   8.463  0.3766  2.1486 -1.4800
 1164TP3      O15310   1.185   3.158   2.663  1.0322  0.3767 -0.1837
 1164TP3     H115311   1.149   3.188   2.580  0.4939 -0.8267 -0.4006
 1164TP3     H215312   1.116   3.102   2.700  1.5462  0.3377  0.7474
 1165TP3      O15313   4.392   3.752   8.539  0.5727 -0.1179  0.0964
 1165TP3     H115314   4.465   3.785   8.592  0.7030  3.2391 -1.9258
 1165TP3     H215315   4.320   3.743   8.601  1.7055 -0.0808  1.4930
 1166TP3      O15316   4.339   4.023   9.900 -0.3508  0.1511 -0.0880
 1166TP3     H115317   4.294   4.092   9.949  1.1812 -0.0337  1.6568
 1166TP3     H215318   4.431   4.046   9.906 -0.0666  0.1017 -2.9540
 1167TP3      O15319   0.604   2.000   0.212  0.3569 -0.2998  0.4105
 1167TP3     H115320   0.680   1.943   0.218  0.2329 -0.5195 -0.0593
 1167TP3     H215321   0.641   2.087   0.199  0.5273 -0.4324 -0.0085
 1168TP3      O15322   4.782   3.331   3.039  0.2794 -0.0081 -0.0160
 1168TP3     H115323   4.705   3.388   3.029 -0.7478 -1.5415 -1.3181
 1168TP3     H215324   4.843   3.361   2.972  0.4686  0.6550  0.4443
 1169TP3      O15325   4.709   2.962   9.060  0.0525  0.4380 -0.1893
 1169TP3     H115326   4.790   2.930   9.100 -0.3472 -0.6716 -0.2413
 1169TP3     H215327   4.641   2.904   9.094 -0.7595  1.4984  0.0242
 1170TP3      O15328   0.710   1.827   7.843  0.6539  0.4475 -0.1047
 1170TP3     H115329   0.635   1.884   7.862  0.5144 -0.1185  1.1358
 1170TP3     H215330   0.786   1.877   7.873  0.7608  0.8790 -1.0506
 1171TP3      O15331   0.915   2.775   8.244  0.0892 -0.2552 -0.0553
 1171TP3     H115332   0.903   2.869   8.252  1.0928 -0.1990  0.9938
 1171TP3     H215333   0.834   2.737   8.279  0.5532  0.1914  1.5483
 1172TP3      O15334   2.040   4.357   9.745 -0.3707  0.2607  0.7398
 1172TP3     H115335   2.032   4.367   9.840  0.2397 -0.2749  0.8528
 1172TP3     H215336   2.117   4.408   9.722 -0.0519 -0.2615  0.6467
 1173TP3      O15337   5.074   3.978   8.664  0.4325 -0.5360  0.2726
 1173TP3     H115338   5.104   3.941   8.748  2.2866 -0.3596 -0.2679
 1173TP3     H215339   5.127   4.057   8.653 -1.2460  0.5738 -0.1165
 1174TP3      O15340   1.162   1.636   8.473 -0.1519 -0.3828  0.0276
 1174TP3     H115341   1.165   1.730   8.492  0.0617  0.0306 -1.8691
 1174TP3     H215342   1.184   1.594   8.556 -1.0344  1.2095  1.1163
 1175TP3      O15343   2.549   4.823   2.978  0.0104 -0.5045  0.2970
 1175TP3     H115344   2.466   4.806   3.022 -0.4461 -0.3333 -0.4837
 1175TP3     H215345   2.600   4.872   3.042 -0.0248 -1.6386  1.2326
 1176TP3      O15346   2.259   0.245   1.824  0.1390  0.4698 -0.0847
 1176TP3     H115347   2.329   0.258   1.761  0.2308  2.7155  0.4149
 1176TP3     H215348   2.185   0.214   1.772  0.1633  2.4332 -1.3871
 1177TP3      O15349   4.548   4.105   1.695  0.1155 -0.0374 -0.2233
 1177TP3     H115350   4.604   4.046   1.746 -0.9547 -0.0188  1.0493
 1177TP3     H215351   4.608   4.171   1.661  0.8938 -0.0553  1.0342
 1178TP3      O15352   4.723   1.506   1.252  0.1437 -0.2446  0.0844
 1178TP3     H115353   4.699   1.588   1.210 -2.4413 -0.3572  1.1414
 1178TP3     H215354   4.718   1.441   1.181 -0.7379  0.0968 -0.1878
 1179TP3      O15355   1.192   1.771   7.976 -0.3577  0.4652  0.4423
 1179TP3     H115356   1.252   1.734   8.041  1.5368 -0.4316 -1.6716
 1179TP3     H215357   1.247   1.829   7.924 -1.4816  0.1200 -1.1847
 1180TP3      O15358   4.682   3.935   0.693  0.3512  0.5165 -0.8193
 1180TP3     H115359   4.663   3.911   0.783  0.4224 -0.3246 -1.0217
 1180TP3     H215360   4.609   3.900   0.642  1.7616 -1.7669 -1.4600
 1181TP3      O15361   0.099   0.661   8.299 -0.0950 -0.1568  0.4717
 1181TP3     H115362   0.094   0.565   8.297  0.6313 -0.2318 -2.2021
 1181TP3     H215363   0.165   0.682   8.233 -0.2897  2.2014  0.9587
 1182TP3      O15364   1.466   4.826   7.215  0.6384 -0.8095 -0.3197
 1182TP3     H115365   1.488   4.809   7.123  2.9702 -0.4814  0.1022
 1182TP3     H215366   1.543   4.871   7.250 -0.7843  0.4101  1.4474
 1183TP3      O15367   2.908   2.387   7.757 -0.5370 -0.4596  0.1448
 1183TP3     H115368   2.856   2.338   7.693  0.4410 -0.0764 -0.9696
 1183TP3     H215369   2.919   2.326   7.830  0.8923 -2.0711 -1.3300
 1184TP3      O15370   4.726   0.329   2.950 -0.0605 -0.1111  0.8079
 1184TP3     H115371   4.780   0.407   2.940  0.9819 -0.7936  0.9756
 1184TP3     H215372   4.736   0.304   3.042 -2.4333  0.9813  1.4647
 1185TP3      O15373   2.801   0.590   2.133 -0.3211 -0.1754  0.0542
 1185TP3     H115374   2.849   0.639   2.200 -1.6084 -0.1796  1.0122
 1185TP3     H215375   2.865   0.577   2.062  0.4569  1.6243  0.3873
 1186TP3      O15376   2.339   4.376   0.665  0.1529  0.3788 -0.2299
 1186TP3     H115377   2.294   4.294   0.648 -0.0383  0.1594  1.1937
 1186TP3     H215378   2.362   4.410   0.578 -2.2271  0.2279 -0.9719
 1187TP3      O15379   3.213   5.194   6.913 -0.1176 -0.1227  0.4625
 1187TP3     H115380   3.272   5.201   6.838 -3.0597  1.2958 -1.9553
 1187TP3     H215381   3.222   5.278   6.959  0.3901 -0.2620  0.6138
 1188TP3      O15382   4.394   3.850   7.855  0.0292  0.4724  0.4799
 1188TP3     H115383   4.395   3.866   7.950  1.6535  1.5309  0.3269
 1188TP3     H215384   4.340   3.772   7.845 -0.3176  0.4242  2.2593
 1189TP3      O15385   4.079   4.076   6.628 -0.2020 -0.0671 -0.1617
 1189TP3     H115386   4.159   4.033   6.658 -0.1653  0.5996  0.7163
 1189TP3     H215387   4.054   4.027   6.549 -0.1478 -1.6814  0.7741
 1190TP3      O15388   2.502   4.058   2.787  0.1886  0.5999  0.1422
 1190TP3     H115389   2.493   4.089   2.877  0.1460 -0.8227  0.6607
 1190TP3     H215390   2.413   4.035   2.761  0.4539 -1.0608  0.5566
 1191TP3      O15391   3.518   4.880   9.085 -0.1701 -0.2185 -0.2727
 1191TP3     H115392   3.514   4.942   9.158  0.8501  0.6456 -0.9203
 1191TP3     H215393   3.433   4.836   9.086 -0.3101  0.0484  1.1886
 1192TP3      O15394   0.166   2.341   0.189  0.2924  0.1605  0.1989
 1192TP3     H115395   0.183   2.300   0.274  0.7929  0.2599  0.1519
 1192TP3     H215396   0.071   2.338   0.179  0.2580 -0.1592  0.6087
 1193TP3      O15397   2.169   4.860   9.940 -0.9164 -0.5361 -0.4848
 1193TP3     H115398   2.182   4.877   9.847  0.1482  0.8084 -0.1267
 1193TP3     H215399   2.201   4.939   9.984 -1.1706 -1.2323  1.0386
 1194TP3      O15400   4.287   0.969   3.197 -0.1342  0.3149 -0.0971
 1194TP3     H115401   4.224   1.020   3.247  0.2916 -0.0168  0.8082
 1194TP3     H215402   4.252   0.880   3.199 -0.4397  0.4091 -0.9436
 1195TP3      O15403   3.825   1.047   3.153 -0.8026  0.1589  0.0763
 1195TP3     H115404   3.854   0.956   3.157  1.0864  0.7110 -0.3658
 1195TP3     H215405   3.846   1.084   3.238 -1.5292  0.2183  0.2424
 1196TP3      O15406   5.134   0.432   1.706  0.4055  0.1437 -0.3292
 1196TP3     H115407   5.124   0.377   1.784  0.2015  0.9911  0.2451
 1196TP3     H215408   5.213   0.484   1.723  0.3117  0.3901 -0.6506
 1197TP3      O15409   2.786   0.080   0.897  0.2923  0.3264 -0.2031
 1197TP3     H115410   2.725   0.009   0.917  0.6441 -0.0907 -0.5830
 1197TP3     H215411   2.848   0.081   0.970  0.0734  0.4865 -0.0170
 1198TP3      O15412   4.464   4.864  10.068  0.3359  0.0449  0.3434
 1198TP3     H115413   4.543   4.811  10.059  0.0608 -0.1775 -0.8869
 1198TP3     H215414   4.452   4.873  10.163  0.6138 -1.7640  0.5865
 1199TP3      O15415   0.458   3.596   2.285 -0.3937  0.2222  0.1079
 1199TP3     H115416   0.532   3.539   2.262 -1.5425 -0.9417 -0.9286
 1199TP3     H215417   0.415   3.551   2.357 -0.7494  0.2707 -0.0716
 1200TP3      O15418   4.908   2.537   2.637  0.4565  0.5753 -0.1311
 1200TP3     H115419   4.844   2.580   2.693  0.9605 -0.7558  1.5702
 1200TP3     H215420   4.856   2.500   2.566 -0.6587 -0.1853  1.0285
 1201TP3      O15421   3.460   3.525   8.105 -0.5037  0.5311  0.1319
 1201TP3     H115422   3.406   3.560   8.034 -0.8378 -0.7518 -0.2584
 1201TP3     H215423   3.504   3.602   8.141 -1.0407  1.3238 -0.8586
 1202TP3      O15424   2.868   3.243   1.786 -0.0360  0.5076  0.4829
 1202TP3     H115425   2.962   3.257   1.772 -0.0044 -0.3364 -0.2412
 1202TP3     H215426   2.826   3.293   1.716 -0.0385 -0.6493 -0.3575
 1203TP3      O15427   2.660   3.330   9.708  0.5093  0.2309 -0.0619
 1203TP3     H115428   2.698   3.391   9.644  1.2214  0.2273  0.3547
 1203TP3     H215429   2.715   3.252   9.702  0.6872  0.2937  0.6742
 1204TP3      O15430   3.953   3.767   9.996 -0.0759 -0.1617  0.0637
 1204TP3     H115431   4.048   3.772  10.005 -0.1242  1.1383 -0.0543
 1204TP3     H215432   3.921   3.756  10.086  0.1582 -0.0048  0.1657
 1205TP3      O15433   4.722   2.912   0.851  0.3048 -0.0426  0.1469
 1205TP3     H115434   4.706   2.855   0.776 -0.4755 -0.1785  0.4077
 1205TP3     H215435   4.811   2.944   0.838 -0.3620  1.2512 -1.7424
 1206TP3      O15436   1.342   2.060   1.218  0.1530 -0.4362  0.1559
 1206TP3     H115437   1.424   2.017   1.243  0.8336  0.6703 -0.0952
 1206TP3     H215438   1.331   2.038   1.126  0.4473 -0.1593  0.0536
 1207TP3      O15439   3.930   2.323   2.419 -0.2844 -0.1720  0.5524
 1207TP3     H115440   3.861   2.387   2.437 -0.2902 -0.1831  0.5696
 1207TP3     H215441   4.004   2.376   2.390 -0.5490 -0.2145 -0.2162
 1208TP3      O15442   1.493   1.822   8.507 -0.0344 -0.1171  0.2546
 1208TP3     H115443   1.480   1.872   8.426 -1.1135 -0.3131  0.2951
 1208TP3     H215444   1.492   1.731   8.480 -0.7924 -0.1973  0.5303
 1209TP3      O15445   4.627   2.808   9.972  0.1432  0.0615  0.0127
 1209TP3     H115446   4.576   2.889   9.973  1.3533  0.8386  0.8142
 1209TP3     H215447   4.617   2.776   9.882 -1.3115  0.4515  0.0009
 1210TP3      O15448   2.844   4.928   7.430 -0.2481 -0.1167  0.4337
 1210TP3     H115449   2.854   4.920   7.524 -0.4092 -0.5494  0.4178
 1210TP3     H215450   2.932   4.950   7.398  0.2869 -1.9790  0.4880
 1211TP3      O15451   4.949   4.798   1.281  0.3449 -0.3126  0.0724
 1211TP3     H115452   4.914   4.724   1.232 -0.1201 -0.1164  0.1016
 1211TP3     H215453   4.941   4.872   1.222  0.4179 -0.2029  0.1997
 1212TP3      O15454   1.425   4.702   8.351 -0.1246 -0.2685 -0.3616
 1212TP3     H115455   1.515   4.680   8.326  0.1516  0.4505 -0.0172
 1212TP3     H215456   1.403   4.777   8.296 -0.3896 -0.2183 -0.1880
 1213TP3      O15457   4.666   2.989   7.387 -0.0835  0.3534 -0.0198
 1213TP3     H115458   4.740   3.050   7.389  0.4023 -0.2231  1.3613
 1213TP3     H215459   4.638   2.987   7.296  1.1283  1.1621 -0.4320
 1214TP3      O15460   0.309   0.718   1.873  0.0781  0.2668 -0.4548
 1214TP3     H115461   0.310   0.753   1.962  0.2364  0.9691 -0.7314
 1214TP3     H215462   0.236   0.763   1.830  0.7969  0.8839 -1.0553
 1215TP3      O15463   3.562   0.489   2.220 -0.3002  0.6747 -0.3360
 1215TP3     H115464   3.590   0.495   2.129 -1.8463  0.9824 -0.8171
 1215TP3     H215465   3.543   0.396   2.234 -1.2359  0.7977 -0.7152
 1216TP3      O15466   2.663   4.607   2.451  0.2546 -0.1160  0.0724
 1216TP3     H115467   2.620   4.593   2.367 -2.1575  0.2823  1.1763
 1216TP3     H215468   2.713   4.527   2.466 -1.3875 -1.2933 -0.5310
 1217TP3      O15469   4.930   2.019   0.932 -0.2159 -0.1920 -0.7321
 1217TP3     H115470   4.905   1.967   1.008  0.5119  0.9759  0.3341
 1217TP3     H215471   5.013   1.980   0.903  0.4414  0.4956  0.1990
 1218TP3      O15472   1.928   4.345   2.600 -0.6974 -0.0005 -0.0052
 1218TP3     H115473   1.969   4.265   2.632  0.2581 -0.0568 -1.2958
 1218TP3     H215474   2.001   4.406   2.588 -1.2075  0.4989 -0.6486
 1219TP3      O15475   1.294   3.545   7.477  0.0082  0.3657  0.1675
 1219TP3     H115476   1.389   3.543   7.466 -0.1862 -0.0763 -1.7906
 1219TP3     H215477   1.275   3.474   7.539  1.0583  1.5613  1.9462
 1220TP3      O15478   1.895   0.524   7.435 -0.0421  0.0279  0.3713
 1220TP3     H115479   1.821   0.489   7.385  0.0786  1.1537 -0.6382
 1220TP3     H215480   1.858   0.549   7.520 -0.3170 -1.6037  0.7664
 1221TP3      O15481   4.603   1.943   9.676  0.5487  0.3805  0.1898
 1221TP3     H115482   4.614   1.955   9.771 -0.4467  2.0852  0.1239
 1221TP3     H215483   4.517   1.903   9.666  0.9151 -0.3870  0.0173
 1222TP3      O15484   1.150   0.247   8.887 -0.0282 -0.0676 -0.1405
 1222TP3     H115485   1.124   0.179   8.949 -0.1627 -0.9344 -1.1202
 1222TP3     H215486   1.068   0.278   8.849  0.1366 -0.7278 -1.0843
 1223TP3      O15487   2.150   2.432   8.371 -0.0717  0.3797  0.1336
 1223TP3     H115488   2.078   2.453   8.432 -0.1699  0.6029 -0.0554
 1223TP3     H215489   2.159   2.511   8.318  0.6428  0.5362  0.4785
 1224TP3      O15490   2.416   3.750   7.510 -0.1916  0.6200 -0.0283
 1224TP3     H115491   2.370   3.817   7.560  0.2425  0.7116  0.2575
 1224TP3     H215492   2.425   3.787   7.422  0.3537  1.0912  0.2187
 1225TP3      O15493   0.991   1.004   9.394  0.1798  0.0099  0.2756
 1225TP3     H115494   1.027   0.928   9.439 -0.3759 -0.0248  0.6757
 1225TP3     H215495   0.912   1.026   9.444 -0.9332 -0.5365 -1.1508
 1226TP3      O15496   0.026   3.592   8.593 -0.7804  0.2995 -0.1253
 1226TP3     H115497  -0.011   3.522   8.538 -0.0149  0.4679 -0.8773
 1226TP3     H215498   0.007   3.673   8.544 -1.5461  0.6160  0.6732
 1227TP3      O15499   0.200   4.635   0.105  0.1268 -0.1540  0.4407
 1227TP3     H115500   0.295   4.649   0.109  0.1672 -0.7432  1.7631
 1227TP3     H215501   0.182   4.569   0.171 -1.5223  1.6434  1.9030
 1228TP3      O15502   3.619   0.858   2.383  0.0515 -0.0242 -0.5400
 1228TP3     H115503   3.620   0.797   2.457 -0.2486 -0.4719 -0.8977
 1228TP3     H215504   3.585   0.940   2.420  0.1775 -0.1585 -0.1208
 1229TP3      O15505   0.256   1.647   0.994 -0.1752  0.2979 -0.3550
 1229TP3     H115506   0.209   1.566   0.975  0.6046 -0.0672 -0.7817
 1229TP3     H215507   0.261   1.649   1.090 -1.1400  0.4060 -0.2930
 1230TP3      O15508   4.796   4.857   0.401  0.0716  0.3126 -0.3938
 1230TP3     H115509   4.812   4.828   0.491 -0.4080 -0.5827 -0.5899
 1230TP3     H215510   4.769   4.948   0.410  0.9681  0.5289  0.2875
 1231TP3      O15511   1.741   1.359   2.531 -0.0772 -0.3102  0.0979
 1231TP3     H115512   1.777   1.416   2.463  0.7093 -0.0607  0.7018
 1231TP3     H215513   1.655   1.396   2.551  0.4137  0.6722  0.4627
 1232TP3      O15514   1.096   0.362   0.219 -0.1358 -0.3704  0.3067
 1232TP3     H115515   1.019   0.371   0.275  0.6058  1.1078  1.1507
 1232TP3     H215516   1.152   0.299   0.265 -0.8411 -1.5180 -0.3536
 1233TP3      O15517   1.869   0.348   7.801  0.2607  0.1751  0.4239
 1233TP3     H115518   1.833   0.431   7.771  0.4807 -0.1157 -0.7165
 1233TP3     H215519   1.818   0.282   7.753  0.8890 -0.3012  0.3937
 1234TP3      O15520   3.783   1.425   9.234 -0.3632 -0.1921  0.3929
 1234TP3     H115521   3.845   1.354   9.222  0.6475  0.5270  1.2196
 1234TP3     H215522   3.719   1.391   9.296  0.3699 -0.2475  1.1388
 1235TP3      O15523   3.365   1.652   8.157  0.1134  0.5861  0.3567
 1235TP3     H115524   3.375   1.565   8.196 -1.3111  0.3157  0.1734
 1235TP3     H215525   3.375   1.713   8.231  0.8862  0.2694  0.5234
 1236TP3      O15526   2.396   0.198   7.155 -0.0454  0.3998 -0.3342
 1236TP3     H115527   2.329   0.135   7.181  0.6674 -1.0048 -1.7409
 1236TP3     H215528   2.479   0.150   7.166  0.6044  1.4639 -0.4266
 1237TP3      O15529   3.521   4.124   7.526  0.0511  0.2655  0.1899
 1237TP3     H115530   3.469   4.063   7.474  1.6653 -0.4319 -0.6496
 1237TP3     H215531   3.456   4.172   7.578 -1.3963 -0.7722 -0.6001
 1238TP3      O15532   1.812   1.815   3.375 -0.5458  0.1069  0.6235
 1238TP3     H115533   1.885   1.786   3.430  1.1038  1.6226 -0.6695
 1238TP3     H215534   1.774   1.734   3.340  1.4621 -0.6714  0.1541
 1239TP3      O15535   2.240   0.054   9.722 -0.3328 -1.0143 -0.3343
 1239TP3     H115536   2.164   0.025   9.773  0.8966 -0.4520  1.9476
 1239TP3     H215537   2.236   0.149   9.724  0.3266 -0.9810 -0.3656
 1240TP3      O15538   3.831   1.759   7.747  0.2310 -0.6692  0.1437
 1240TP3     H115539   3.754   1.765   7.804 -0.1010  0.9863 -0.4236
 1240TP3     H215540   3.905   1.774   7.805 -0.0483  0.1135  0.3124
 1241TP3      O15541   0.763   0.231   0.824 -0.2889  0.1503 -0.6082
 1241TP3     H115542   0.803   0.311   0.858 -3.0714  1.2221  0.4870
 1241TP3     H215543   0.722   0.191   0.901 -1.3851 -0.7555 -1.6296
 1242TP3      O15544   1.460   0.353   8.360  0.3587  0.2789  0.2255
 1242TP3     H115545   1.386   0.293   8.351  0.8525 -0.5990  1.6295
 1242TP3     H215546   1.424   0.429   8.406  0.4461 -0.4898  1.6415
 1243TP3      O15547   4.083   2.847   7.656  0.5301  0.0734 -0.0602
 1243TP3     H115548   4.001   2.826   7.610  0.8726 -0.6073 -0.3767
 1243TP3     H215549   4.144   2.869   7.586  0.5154  0.9757  0.1995
 1244TP3      O15550   2.007   1.608   2.630 -0.7203 -0.7192 -0.3871
 1244TP3     H115551   1.983   1.655   2.550  0.7471 -0.8771 -0.9471
 1244TP3     H215552   1.952   1.648   2.698 -0.6402  0.7236 -1.1281
 1245TP3      O15553   4.284   4.583   7.750 -0.2603  0.0628  0.4452
 1245TP3     H115554   4.224   4.549   7.816 -2.2407  0.3191 -1.1004
 1245TP3     H215555   4.257   4.674   7.738  0.6126  0.2585 -0.1390
 1246TP3      O15556   3.646   1.946   8.155  0.3495 -0.0230  1.0720
 1246TP3     H115557   3.689   1.971   8.073  0.3541  0.5298  1.2378
 1246TP3     H215558   3.676   1.857   8.172  1.3180  0.2910  1.0985
 1247TP3      O15559   2.486   1.276   8.996  0.4342  0.1234  0.3536
 1247TP3     H115560   2.416   1.340   8.986 -0.3076 -0.6518  0.4318
 1247TP3     H215561   2.557   1.323   9.041 -0.3045  0.7337  0.8995
 1248TP3      O15562   2.409   3.572   9.435  0.2264 -0.3954  0.6261
 1248TP3     H115563   2.403   3.477   9.436 -1.9922 -0.3457 -0.8108
 1248TP3     H215564   2.456   3.592   9.354  0.3503 -0.2554  0.7326
 1249TP3      O15565   3.879   0.721  10.085  0.3891  0.4028 -0.2977
 1249TP3     H115566   3.855   0.682  10.001 -3.1886  1.4612  0.0740
 1249TP3     H215567   3.796   0.729  10.132  2.1223  0.7378  2.9996
 1250TP3      O15568   3.466   2.301   1.263  0.5098 -0.1773 -0.0595
 1250TP3     H115569   3.516   2.239   1.315  0.8831  0.2258  0.0714
 1250TP3     H215570   3.468   2.267   1.174  0.1571 -0.6928  0.1225
 1251TP3      O15571   3.117   0.282   7.947  0.4335 -0.2787 -0.0795
 1251TP3     H115572   3.166   0.218   7.999  1.1795  1.7448  1.8975
 1251TP3     H215573   3.183   0.343   7.916 -0.3734  0.1301 -1.0456
 1252TP3      O15574   2.773   0.485   7.806 -0.5428 -0.2085 -0.1305
 1252TP3     H115575   2.822   0.472   7.887 -0.5840  0.2499 -0.0292
 1252TP3     H215576   2.824   0.551   7.758 -0.7281 -0.1899 -0.3003
 1253TP3      O15577   0.667   4.374   7.987 -0.0685 -0.0815 -0.4408
 1253TP3     H115578   0.635   4.395   8.075 -0.6626 -0.8787 -0.4565
 1253TP3     H215579   0.607   4.307   7.955  0.7942 -0.5895 -1.0378
 1254TP3      O15580   0.235   0.018   2.441 -0.6225  0.1779 -0.3692
 1254TP3     H115581   0.244   0.036   2.348  0.7355 -0.6411 -0.4113
 1254TP3     H215582   0.205   0.102   2.478 -1.3402  0.4659 -1.5365
 1255TP3      O15583   3.592   1.464   2.644  0.1242 -0.5887  0.1945
 1255TP3     H115584   3.511   1.442   2.690 -0.7603 -0.0395 -1.0584
 1255TP3     H215585   3.626   1.380   2.614 -0.1525 -0.7828  0.4187
 1256TP3      O15586   3.103   3.378   0.633  0.0301  0.3791  0.6566
 1256TP3     H115587   3.089   3.450   0.695 -1.5287  0.4000  0.3199
 1256TP3     H215588   3.033   3.316   0.653 -0.6941  0.5238 -1.2597
 1257TP3      O15589   5.015   4.319   2.038  0.4253 -0.4486  0.6377
 1257TP3     H115590   4.995   4.374   1.963  0.8706  1.7855  2.0624
 1257TP3     H215591   5.033   4.233   2.000 -1.0215  0.1539 -1.6167
 1258TP3      O15592   2.750   3.991   9.935  0.1459  0.3217 -0.4212
 1258TP3     H115593   2.714   3.932   9.869 -0.9500  1.1439 -0.5901
 1258TP3     H215594   2.677   4.048   9.959  0.8594  0.8503  0.5921
 1259TP3      O15595   3.605   0.914   1.266 -0.0472 -0.2882  0.3158
 1259TP3     H115596   3.518   0.948   1.247 -1.1936 -3.0175  0.2145
 1259TP3     H215597   3.598   0.878   1.354  0.7363 -1.1739  0.0331
 1260TP3      O15598   2.037   2.707   7.934  0.7758 -0.1296 -0.3564
 1260TP3     H115599   1.951   2.670   7.955  0.3044  0.0497 -1.8751
 1260TP3     H215600   2.093   2.680   8.007 -0.8264  0.7221  1.2714
 1261TP3      O15601   4.771   2.255   2.095  0.3420  0.2863 -0.1446
 1261TP3     H115602   4.769   2.162   2.076  0.9112  0.7854 -3.0624
 1261TP3     H215603   4.683   2.274   2.130 -0.1194 -1.1529 -0.4681
 1262TP3      O15604   2.334   1.734   7.931  0.0556  0.6271  0.6225
 1262TP3     H115605   2.270   1.783   7.982  0.1953  0.1512  1.2690
 1262TP3     H215606   2.365   1.796   7.865 -1.0299  0.8718  0.3272
 1263TP3      O15607   4.810   0.282   1.667 -0.8103 -0.4583 -0.1565
 1263TP3     H115608   4.847   0.259   1.581 -0.4046  0.5520 -0.2660
 1263TP3     H215609   4.827   0.376   1.675 -0.6152 -0.5940  1.1439
 1264TP3      O15610   3.126   2.745   0.839 -0.4018  0.5391  0.0858
 1264TP3     H115611   3.221   2.754   0.844 -0.1889 -1.6965  1.2179
 1264TP3     H215612   3.109   2.729   0.746  0.3059  0.9743 -0.1328
 1265TP3      O15613   3.350   5.252   0.073  0.4137  0.7467 -0.1927
 1265TP3     H115614   3.320   5.249   0.164  1.6649 -0.2424  0.2153
 1265TP3     H215615   3.337   5.343   0.046 -1.0574  0.7935  0.5833
 1266TP3      O15616   2.658   1.285   2.369 -0.3292  0.0645 -0.5679
 1266TP3     H115617   2.706   1.272   2.287  1.3185 -0.9517  0.5027
 1266TP3     H215618   2.721   1.329   2.426 -0.7274 -1.1362  0.8261
 1267TP3      O15619   5.284   3.530   7.402  0.5078  0.1349  0.2869
 1267TP3     H115620   5.253   3.612   7.442  2.4614  1.3763 -0.5704
 1267TP3     H215621   5.333   3.559   7.325  2.7338 -1.7219  0.9134
 1268TP3      O15622   1.710   0.038   7.390 -0.4538  0.2212  0.6449
 1268TP3     H115623   1.623   0.063   7.358  0.7252  3.0254 -0.6908
 1268TP3     H215624   1.757   0.010   7.312  0.0540 -0.6877  1.2633
 1269TP3      O15625   0.948   4.836   0.741  0.0116  0.3740  0.2243
 1269TP3     H115626   0.947   4.765   0.806  0.7081  0.5573  0.4460
 1269TP3     H215627   0.922   4.793   0.659  0.2019 -0.0977  0.4041
 1270TP3      O15628   3.189   3.665   0.084 -0.1636 -0.2196 -0.2151
 1270TP3     H115629   3.250   3.738   0.074 -0.3229 -0.3048 -2.0158
 1270TP3     H215630   3.113   3.703   0.130  0.3902  0.3538  0.2399
 1271TP3      O15631   4.674   5.220   7.790  0.0388  0.0457  0.1040
 1271TP3     H115632   4.629   5.137   7.806 -1.7615  0.6366 -1.5058
 1271TP3     H215633   4.617   5.285   7.830  0.8096  0.6312  0.2728
 1272TP3      O15634   3.921   1.185   8.824  0.2797 -0.7665  0.0132
 1272TP3     H115635   3.898   1.271   8.860 -0.9968 -0.2814 -1.7915
 1272TP3     H215636   3.993   1.155   8.878  0.3741  1.1812  1.0710
 1273TP3      O15637   4.966   2.800   7.603  0.8406 -0.2099 -0.9905
 1273TP3     H115638   5.055   2.810   7.569  1.7017  0.8516  1.3956
 1273TP3     H215639   4.976   2.746   7.681 -0.6591 -0.3482 -0.8749
 1274TP3      O15640   3.191   2.021   7.570  0.0042  0.6155 -0.2744
 1274TP3     H115641   3.099   2.049   7.567 -0.5475 -1.1053 -0.2203
 1274TP3     H215642   3.227   2.050   7.486 -1.2755 -0.8540 -1.3770
 1275TP3      O15643   0.604   1.818   9.360 -0.4169  0.3760 -0.2495
 1275TP3     H115644   0.601   1.906   9.396  0.7669  0.8739 -1.2836
 1275TP3     H215645   0.646   1.766   9.429 -2.4723  0.2459  0.9855
 1276TP3      O15646   1.242   3.580   9.214  0.0212 -0.1602 -0.0044
 1276TP3     H115647   1.299   3.604   9.141 -1.1479  0.8872 -0.6239
 1276TP3     H215648   1.250   3.654   9.275  0.4791 -0.7208  0.6325
 1277TP3      O15649   3.851   3.831   2.230  0.0914 -0.1066 -0.2155
 1277TP3     H115650   3.806   3.832   2.314 -0.7075 -0.9065 -0.6190
 1277TP3     H215651   3.821   3.909   2.184  0.6674  0.4262  0.3046
 1278TP3      O15652   3.897   0.157   7.556  0.1537  0.4226 -0.4247
 1278TP3     H115653   3.843   0.125   7.628  1.9651  0.3532  0.9913
 1278TP3     H215654   3.881   0.251   7.553 -2.3189  0.0515 -2.1018
 1279TP3      O15655   1.656   3.819   0.567  0.2628 -0.3726  0.3749
 1279TP3     H115656   1.725   3.801   0.503  0.7037  3.2869 -0.4033
 1279TP3     H215657   1.598   3.743   0.561  1.3029 -1.0918 -3.0100
 1280TP3      O15658   0.864   1.948   2.734  0.2649  0.3699  0.4756
 1280TP3     H115659   0.914   1.946   2.653  0.1546  0.4329  0.4059
 1280TP3     H215660   0.773   1.954   2.706  0.2089  0.1254  0.6002
 1281TP3      O15661   0.188   0.368   8.293  0.7364 -0.5509 -0.2986
 1281TP3     H115662   0.175   0.278   8.323  1.7196 -0.4570  0.4462
 1281TP3     H215663   0.266   0.398   8.340  0.7813  0.4837 -1.0082
 1282TP3      O15664   0.878   2.394   1.350  0.2457  0.0578  0.0652
 1282TP3     H115665   0.924   2.387   1.267  2.2906  3.3768  0.7173
 1282TP3     H215666   0.907   2.318   1.400  0.4235 -0.9951 -1.5713
 1283TP3      O15667   2.626   2.183   8.028 -0.5749  0.2072 -0.4595
 1283TP3     H115668   2.664   2.244   8.091 -0.9085  0.3481 -0.3929
 1283TP3     H215669   2.682   2.106   8.033  1.0449  1.1888 -1.9153
 1284TP3      O15670   3.383   0.310   7.414  0.3815 -0.0394  0.0585
 1284TP3     H115671   3.308   0.321   7.471  0.5020  0.4680  0.1190
 1284TP3     H215672   3.357   0.351   7.331  0.3672 -0.3969 -0.1171
 1285TP3      O15673   3.396   0.431   8.022 -0.0384 -0.6756  0.2084
 1285TP3     H115674   3.453   0.368   8.066 -1.9507 -2.2716  0.5819
 1285TP3     H215675   3.342   0.466   8.093 -0.7736 -0.6278 -0.3642
 1286TP3      O15676   1.214   3.231   2.319  0.6911  1.0903  0.3769
 1286TP3     H115677   1.141   3.294   2.316  0.2939  0.6075 -0.5107
 1286TP3     H215678   1.289   3.280   2.285  0.2151  0.8993 -1.0400
 1287TP3      O15679   3.042   2.691   0.284 -0.2099 -0.3337  0.2342
 1287TP3     H115680   2.991   2.770   0.297 -0.4231 -0.3828 -0.2722
 1287TP3     H215681   3.008   2.653   0.202  0.2740 -0.6438  0.1677
 1288TP3      O15682   3.621   3.035   2.865  0.1278 -0.0485  0.8551
 1288TP3     H115683   3.635   2.952   2.821  0.2759  0.4656 -0.1032
 1288TP3     H215684   3.527   3.040   2.880  0.0064  0.0026  0.0987
 1289TP3      O15685   4.918   3.639   7.308 -0.3005  1.2013 -0.2841
 1289TP3     H115686   4.825   3.618   7.305 -0.6774  2.4806  1.3137
 1289TP3     H215687   4.953   3.602   7.227 -2.0114 -0.0876 -0.4875
 1290TP3      O15688   2.374   1.878   7.698  0.8337  0.0964 -0.0067
 1290TP3     H115689   2.309   1.841   7.638 -0.5890  0.0084  1.4994
 1290TP3     H215690   2.371   1.972   7.682  1.5410 -0.0490 -1.0709
 1291TP3      O15691   2.611   4.278   1.258 -0.2516  0.4126  0.7564
 1291TP3     H115692   2.585   4.200   1.308 -1.6345  1.3369  1.5640
 1291TP3     H215693   2.673   4.323   1.315  0.9692 -0.3196  0.0625
 1292TP3      O15694   1.452   0.777   2.671 -0.5186  0.2897 -0.1660
 1292TP3     H115695   1.485   0.769   2.582  0.5550 -0.2140  0.2511
 1292TP3     H215696   1.439   0.686   2.700  1.3465  0.3161  0.9387
 1293TP3      O15697   4.825   4.572   8.412 -0.3791  0.3209 -0.3955
 1293TP3     H115698   4.783   4.509   8.471 -0.8649 -0.7308 -1.8034
 1293TP3     H215699   4.758   4.637   8.394  0.3900  1.8069  1.7570
 1294TP3      O15700   3.888   3.682   8.210  0.2515 -0.1800  0.0299
 1294TP3     H115701   3.933   3.740   8.149  1.1203 -1.7208 -0.8413
 1294TP3     H215702   3.951   3.612   8.228 -0.0002  0.1617  2.6388
 1295TP3      O15703   3.689   0.193   1.717 -0.1330  0.1064  0.0010
 1295TP3     H115704   3.770   0.232   1.750 -1.8752  3.8366  0.3445
 1295TP3     H215705   3.690   0.209   1.623  0.3204 -1.5726 -0.3127
 1296TP3      O15706   0.044   3.692   8.287  0.1991  0.1079 -0.1252
 1296TP3     H115707   0.034   3.617   8.229  0.1234  0.2660 -0.3199
 1296TP3     H215708   0.119   3.670   8.342 -0.1998 -0.3786  0.2376
 1297TP3      O15709   2.681   1.333  10.061 -0.1678 -0.3588  0.5169
 1297TP3     H115710   2.744   1.398  10.092  0.5370 -1.1935  0.8701
 1297TP3     H215711   2.687   1.261  10.123 -2.2717 -0.0275  1.1910
 1298TP3      O15712   1.968   2.516   8.546 -0.0306  0.2589  0.2059
 1298TP3     H115713   1.902   2.533   8.479 -0.9651 -1.6173  0.5850
 1298TP3     H215714   1.930   2.550   8.627 -0.9239 -1.4319  0.5559
 1299TP3      O15715   5.177   4.246   9.189 -0.1833 -0.0887  0.0878
 1299TP3     H115716   5.152   4.155   9.176  0.3379 -0.2562  0.2637
 1299TP3     H215717   5.139   4.291   9.113 -0.8515 -0.3641  0.2466
 1300TP3      O15718   1.007   3.721   9.532 -0.4004 -0.0734  0.2656
 1300TP3     H115719   0.979   3.636   9.566 -0.9750  0.0056 -0.0045
 1300TP3     H215720   0.928   3.774   9.532 -0.2469  0.1643 -0.4695
 1301TP3      O15721   0.206   1.898   0.638 -0.4834 -0.2351 -0.3155
 1301TP3     H115722   0.244   1.881   0.552 -0.6010 -1.1064 -0.2120
 1301TP3     H215723   0.117   1.863   0.632 -0.2175 -1.0819  0.4078
 1302TP3      O15724   0.270   2.335   7.477 -0.1445  0.1867  0.5074
 1302TP3     H115725   0.219   2.322   7.396 -0.0810 -0.8090  0.6210
 1302TP3     H215726   0.213   2.388   7.532 -0.7684 -0.3003  0.3459
 1303TP3      O15727   2.124   2.708   7.441  0.2423  0.5981  0.0321
 1303TP3     H115728   2.030   2.696   7.426 -0.1837  1.1519  1.9312
 1303TP3     H215729   2.166   2.644   7.383 -1.4065 -1.1116  0.6260
 1304TP3      O15730   3.864   3.960   0.532 -0.7840 -0.1819 -0.0920
 1304TP3     H115731   3.946   3.911   0.530 -0.9719 -0.5010 -0.1256
 1304TP3     H215732   3.854   3.985   0.624 -1.1393 -0.9951  0.1026
 1305TP3      O15733   0.503   5.079   2.010  0.1121  0.1586 -0.3153
 1305TP3     H115734   0.518   5.110   1.921  1.2178  0.3474 -0.0714
 1305TP3     H215735   0.499   4.984   2.002 -1.7486  0.2353 -0.8352
 1306TP3      O15736   4.456   2.985   0.446  0.1418 -0.8051  0.2741
 1306TP3     H115737   4.412   2.901   0.436  0.6407 -0.8191 -2.7788
 1306TP3     H215738   4.545   2.963   0.474  0.3744 -1.3934 -0.8524
 1307TP3      O15739   4.585   2.521   2.003  0.2661  0.2426  0.6114
 1307TP3     H115740   4.636   2.581   1.948  0.6202 -1.3761 -0.9387
 1307TP3     H215741   4.526   2.578   2.052 -1.0645  1.7818 -2.4490
 1308TP3      O15742   4.927   4.157   7.526 -0.0110  0.1455  0.1984
 1308TP3     H115743   4.850   4.104   7.544 -1.5355  2.1009 -0.1601
 1308TP3     H215744   4.903   4.210   7.449  2.0414  0.1675 -0.5057
 1309TP3      O15745   2.430   0.739   1.017  0.2089 -0.3299  0.0442
 1309TP3     H115746   2.398   0.823   0.984  0.0244 -0.1210  0.7389
 1309TP3     H215747   2.446   0.687   0.938 -2.4074 -0.6744 -0.3207
 1310TP3      O15748   3.965   3.573   1.452  0.0584  0.0226 -0.0309
 1310TP3     H115749   4.051   3.552   1.489  0.1355  0.7120  0.1927
 1310TP3     H215750   3.985   3.624   1.374 -0.1105 -1.2265 -0.9285
 1311TP3      O15751   2.743   1.417   7.610 -0.8297  0.3578  0.1307
 1311TP3     H115752   2.830   1.379   7.624 -0.6305  0.5981 -0.4260
 1311TP3     H215753   2.694   1.347   7.567 -0.6992  0.4576 -0.1846
 1312TP3      O15754   5.217   4.650   7.382  0.2065 -0.0234  0.2132
 1312TP3     H115755   5.221   4.555   7.388  0.0007 -0.0087  0.6253
 1312TP3     H215756   5.275   4.672   7.310 -0.7914 -0.5552 -0.7814
 1313TP3      O15757   3.231   4.192   2.064  0.2254 -0.5082  0.4577
 1313TP3     H115758   3.284   4.271   2.077 -0.1514 -0.3700  1.1739
 1313TP3     H215759   3.181   4.183   2.145 -0.9164 -0.5962 -0.2471
 1314TP3      O15760   3.674   0.416   7.837 -0.1087  0.6533 -0.5392
 1314TP3     H115761   3.742   0.437   7.773  1.5528 -0.5701  0.7616
 1314TP3     H215762   3.685   0.480   7.907  2.0011 -1.4946  1.2621
 1315TP3      O15763   1.099   2.312   7.803 -0.3214 -0.0526 -0.2316
 1315TP3     H115764   1.185   2.300   7.843 -1.4232 -0.0802  2.3144
 1315TP3     H215765   1.082   2.406   7.811 -1.1619 -0.2682  0.7946
 1316TP3      O15766   1.484   3.249   7.763 -0.2426 -0.2244  0.2578
 1316TP3     H115767   1.539   3.216   7.834 -0.4335  2.4176  1.7928
 1316TP3     H215768   1.398   3.263   7.805 -0.2203  1.8657 -0.2818
 1317TP3      O15769   4.902   4.901   8.163  0.0927 -0.0977  0.2854
 1317TP3     H115770   4.963   4.973   8.144  1.2430 -0.1053  3.3532
 1317TP3     H215771   4.953   4.822   8.146 -0.7406 -0.2681 -1.7807
 1318TP3      O15772   2.554   2.338   8.490  0.3750  0.5507 -0.5900
 1318TP3     H115773   2.468   2.301   8.472 -0.8179  1.4259  2.6466
 1318TP3     H215774   2.604   2.266   8.528 -0.3700  0.9941  1.3303
 1319TP3      O15775   3.414   2.236   0.233  0.2090  0.1648 -0.0068
 1319TP3     H115776   3.341   2.298   0.241 -0.5985 -0.5282 -1.5590
 1319TP3     H215777   3.469   2.272   0.164  0.8063  0.1558  0.4567
 1320TP3      O15778   2.321   2.738   7.888 -0.0878 -0.8954 -1.2360
 1320TP3     H115779   2.291   2.668   7.946  1.3351 -1.4291 -1.1050
 1320TP3     H215780   2.281   2.717   7.803 -2.0932 -0.1642 -0.5460
 1321TP3      O15781   1.805   2.028   8.878 -0.2707  0.5529 -0.0816
 1321TP3     H115782   1.821   2.122   8.876  0.2670  0.4514 -0.7906
 1321TP3     H215783   1.892   1.988   8.870 -0.5443  0.0000 -0.3774
 1322TP3      O15784   2.430   2.370   1.304 -0.1602 -0.5772 -0.0887
 1322TP3     H115785   2.494   2.300   1.316 -0.4191 -0.8993 -0.5751
 1322TP3     H215786   2.481   2.444   1.271 -0.1083 -0.9928 -0.9708
 1323TP3      O15787   2.335   2.010   1.876  0.1697 -0.2645  0.0614
 1323TP3     H115788   2.291   1.926   1.892 -0.0361 -0.0984  0.3898
 1323TP3     H215789   2.323   2.025   1.783  1.5031 -1.3166 -0.3052
 1324TP3      O15790   1.354   1.328   8.131 -0.0459 -0.6183 -0.7678
 1324TP3     H115791   1.358   1.269   8.206  1.1389  1.4987  0.9602
 1324TP3     H215792   1.270   1.372   8.140  0.6334  0.5444  0.1033
 1325TP3      O15793   1.556   2.713   8.708 -0.0735 -0.1610 -0.1514
 1325TP3     H115794   1.487   2.653   8.682  0.4665 -0.8069 -0.1344
 1325TP3     H215795   1.561   2.703   8.804 -0.7077  0.7174 -0.0210
 1326TP3      O15796   2.062   1.278   0.607  0.3750  0.0843 -0.3164
 1326TP3     H115797   1.982   1.307   0.563  0.7881  0.6207 -0.7183
 1326TP3     H215798   2.087   1.352   0.662  1.5731  0.6123 -1.5292
 1327TP3      O15799   1.484   3.090   0.171 -0.1242 -0.0197 -0.3754
 1327TP3     H115800   1.570   3.109   0.134 -0.4978  2.0514 -0.2755
 1327TP3     H215801   1.497   3.008   0.220  1.6770  0.0358 -0.6895
 1328TP3      O15802   0.737   4.998   0.489 -0.6793  0.1459  0.1952
 1328TP3     H115803   0.653   5.044   0.491 -0.4729  0.5386  2.3043
 1328TP3     H215804   0.802   5.068   0.489 -0.3643  0.0346  3.4788
 1329TP3      O15805   4.723   0.919  10.083  0.3527 -0.0839 -0.1556
 1329TP3     H115806   4.633   0.937  10.110  0.8891 -1.0410  2.6304
 1329TP3     H215807   4.734   0.968  10.002 -2.8858 -0.5485 -1.0386
 1330TP3      O15808   4.809   3.674   2.429  0.0592 -0.0037  0.2422
 1330TP3     H115809   4.895   3.632   2.423  0.8090  1.3779  0.7393
 1330TP3     H215810   4.769   3.660   2.343  1.2867  0.3312 -0.4039
 1331TP3      O15811   0.196   3.592   0.956 -0.2172 -0.6147 -0.0790
 1331TP3     H115812   0.281   3.628   0.980 -0.4971  0.4115 -0.5412
 1331TP3     H215813   0.215   3.529   0.886  0.0456  0.7614 -1.3053
 1332TP3      O15814   3.415   2.385   8.513 -0.0299  0.2388 -0.1170
 1332TP3     H115815   3.359   2.398   8.437  0.0063 -2.1655 -0.6375
 1332TP3     H215816   3.407   2.292   8.533  1.0659  0.5305  1.9650
 1333TP3      O15817   3.166   4.967   8.214 -0.4594  0.3084  0.1937
 1333TP3     H115818   3.259   4.984   8.202  0.0830 -2.4504 -0.2159
 1333TP3     H215819   3.123   5.016   8.144  0.9260 -0.3625 -1.1707
 1334TP3      O15820   4.811   0.409   1.049 -0.0321 -0.0074  0.1660
 1334TP3     H115821   4.737   0.370   1.096  0.3615  0.0727  0.8544
 1334TP3     H215822   4.830   0.490   1.097  1.2424 -0.5966  0.6823
 1335TP3      O15823   1.075   2.146   9.705 -0.6679  0.1456  1.1035
 1335TP3     H115824   1.137   2.082   9.741 -0.2874 -1.9589 -2.7330
 1335TP3     H215825   1.130   2.214   9.667 -0.8640  0.3568  1.1970
 1336TP3      O15826   0.346   1.265   0.946  0.2907  0.3058  0.3657
 1336TP3     H115827   0.318   1.236   1.033 -0.3049 -0.2680 -0.0124
 1336TP3     H215828   0.290   1.340   0.927  0.7239  0.7061  0.6616
 1337TP3      O15829   2.093   2.577   3.035 -0.5527 -0.5772  0.1426
 1337TP3     H115830   2.180   2.616   3.027  0.4150 -2.1618  2.0907
 1337TP3     H215831   2.038   2.647   3.069  0.0225  0.3441 -0.7862
 1338TP3      O15832   0.716   3.306   7.128 -0.4422  0.3378 -0.0676
 1338TP3     H115833   0.715   3.329   7.035 -0.1562  2.1712  0.3412
 1338TP3     H215834   0.673   3.380   7.171 -0.0973 -0.2379  1.3194
 1339TP3      O15835   3.915   3.478   0.671 -0.2403 -0.7352 -0.6593
 1339TP3     H115836   3.855   3.493   0.598  0.9111 -1.1991 -1.7366
 1339TP3     H215837   3.877   3.527   0.744 -1.9544 -1.0695 -1.2752
 1340TP3      O15838   0.334   1.821   8.972  0.1549  0.2565 -0.0310
 1340TP3     H115839   0.400   1.782   8.915  0.1407 -1.9006  1.3189
 1340TP3     H215840   0.310   1.903   8.928  1.1407 -0.6068 -2.3568
 1341TP3      O15841   0.850   4.767   0.160  0.1286 -0.4994  0.1581
 1341TP3     H115842   0.905   4.771   0.238 -0.8229 -2.0041  0.9682
 1341TP3     H215843   0.776   4.824   0.180 -0.5651 -1.5676  0.7900
 1342TP3      O15844   0.172   4.183   9.300 -0.1859 -0.0568  0.0627
 1342TP3     H115845   0.210   4.142   9.377 -0.9415 -2.3590 -0.7117
 1342TP3     H215846   0.079   4.165   9.306 -0.2323 -0.5426 -1.4863
 1343TP3      O15847   2.047   3.689   1.971 -0.1121 -0.2222 -0.3447
 1343TP3     H115848   2.142   3.683   1.983 -0.2284 -2.3441 -0.1422
 1343TP3     H215849   2.016   3.734   2.050  0.8833  2.7435 -1.5032
 1344TP3      O15850   3.805   2.665   2.044  0.3966  0.4497 -0.0638
 1344TP3     H115851   3.769   2.576   2.041  0.0510  0.6088 -0.7866
 1344TP3     H215852   3.812   2.684   2.137  0.9901 -0.5425  0.1089
 1345TP3      O15853   4.908   1.874   6.790  0.0103 -0.5993  0.3944
 1345TP3     H115854   4.917   1.792   6.742 -1.8875 -0.5178 -0.1757
 1345TP3     H215855   4.935   1.941   6.728  1.4903 -0.7382  0.8361
 1346TP3      O15856   2.290   1.260   6.970  0.2234 -0.2764 -0.5428
 1346TP3     H115857   2.294   1.212   6.887 -0.6264  1.3388 -1.5876
 1346TP3     H215858   2.375   1.246   7.010  0.9861 -0.3821 -2.1188
 1347TP3      O15859   0.934   2.121   0.402 -0.3960 -0.6193  0.2099
 1347TP3     H115860   0.917   2.119   0.496 -2.8776 -1.5034 -0.1885
 1347TP3     H215861   0.875   2.188   0.368  1.2161  0.4444 -0.6415
 1348TP3      O15862   5.197   2.679   2.300  0.3198  0.5362  0.1088
 1348TP3     H115863   5.131   2.617   2.330 -0.5208  1.0000 -0.7041
 1348TP3     H215864   5.270   2.624   2.271 -0.5727 -0.1252 -0.9866
 1349TP3      O15865   2.491   1.545   1.581 -0.3261 -0.1732  0.3693
 1349TP3     H115866   2.545   1.620   1.606  0.0514 -0.0548 -0.7238
 1349TP3     H215867   2.426   1.538   1.650 -0.5001  1.2904  0.3952
 1350TP3      O15868   1.069   3.344   7.067  0.5959  0.7576  0.1721
 1350TP3     H115869   1.046   3.340   7.160  2.0610 -0.2744  0.5205
 1350TP3     H215870   0.998   3.395   7.027 -1.6160 -1.2369  1.3420
 1351TP3      O15871   3.719   3.617   8.614 -0.0482 -0.0045  0.5694
 1351TP3     H115872   3.659   3.626   8.540 -0.2764  0.5893  0.8281
 1351TP3     H215873   3.663   3.593   8.688 -0.0823  1.3441  0.9958
 1352TP3      O15874   2.375   0.512   8.898 -0.2221  0.0990 -0.8997
 1352TP3     H115875   2.344   0.433   8.941  0.6261  0.1777 -0.1161
 1352TP3     H215876   2.448   0.542   8.952  0.9967  0.1096 -2.4762
 1353TP3      O15877   0.733   4.147   1.372  0.1781  0.6988 -0.2354
 1353TP3     H115878   0.788   4.074   1.345  0.6638  0.4926  1.2293
 1353TP3     H215879   0.679   4.112   1.444  0.8979  1.9270  0.9600
 1354TP3      O15880   2.644   1.973   7.595  0.0280 -0.3807  0.1325
 1354TP3     H115881   2.628   1.879   7.598 -1.2492 -0.2453 -1.1154
 1354TP3     H215882   2.622   1.998   7.505 -2.6538  1.5818  1.2033
 1355TP3      O15883   2.497   1.989   9.759 -0.1687 -0.2084  0.0458
 1355TP3     H115884   2.518   2.062   9.701  2.8427 -0.3727  0.7473
 1355TP3     H215885   2.572   1.929   9.750 -0.4952 -1.1440  2.6552
 1356TP3      O15886   0.367   1.937   0.110 -0.4637  0.0891  0.2730
 1356TP3     H115887   0.458   1.941   0.139  0.0177 -1.0218 -0.9851
 1356TP3     H215888   0.371   1.950   0.015 -1.7935  1.6661  0.3899
 1357TP3      O15889   2.297   1.340   0.997 -0.0845 -0.2811 -0.5414
 1357TP3     H115890   2.346   1.419   0.972  0.3302 -0.5362 -0.5417
 1357TP3     H215891   2.352   1.297   1.061 -0.7805 -0.0509  0.2325
 1358TP3      O15892   5.283   2.678   9.796  0.4908  0.2005 -0.2703
 1358TP3     H115893   5.308   2.602   9.849  0.9104  0.3249 -0.2895
 1358TP3     H215894   5.360   2.699   9.745  0.8349  1.4469  0.6978
 1359TP3      O15895   3.410   4.220   3.285  0.2736  0.2270 -0.1595
 1359TP3     H115896   3.473   4.150   3.302 -0.0308  0.2259  1.0444
 1359TP3     H215897   3.330   4.175   3.258  0.0971  0.0948  0.5551
 1360TP3      O15898   2.040   0.472   8.676 -0.1746 -0.1508  0.0805
 1360TP3     H115899   1.984   0.466   8.753 -0.4306 -1.9682 -0.2108
 1360TP3     H215900   1.999   0.540   8.622  0.4573  1.7373  1.8438
 1361TP3      O15901   0.814   3.297   2.651  0.1144  0.4441  0.3155
 1361TP3     H115902   0.785   3.373   2.600  1.1060  0.4408 -0.2733
 1361TP3     H215903   0.871   3.333   2.718  1.3614  0.1491 -0.5574
 1362TP3      O15904   5.011   3.520   7.090  0.0106  0.2645  0.3290
 1362TP3     H115905   5.100   3.485   7.096  0.2571  0.9405  0.7274
 1362TP3     H215906   5.016   3.585   7.020 -0.5791 -0.8355 -0.7960
 1363TP3      O15907   1.901   2.257   1.037 -0.2537  0.0599 -0.4223
 1363TP3     H115908   1.835   2.291   0.977 -0.0306 -2.3061 -2.1398
 1363TP3     H215909   1.855   2.192   1.090  0.2846 -0.2503 -0.3210
 1364TP3      O15910   0.439   5.238   0.668 -0.1921 -0.2132 -0.2841
 1364TP3     H115911   0.511   5.291   0.702 -2.4027  1.6086  1.9959
 1364TP3     H215912   0.465   5.148   0.684  1.7012  0.3664  0.1208
 1365TP3      O15913   0.495   0.262   1.214 -0.0399 -0.4211 -0.3519
 1365TP3     H115914   0.509   0.300   1.301  0.2716  1.7236 -1.2746
 1365TP3     H215915   0.408   0.222   1.220 -0.9344  1.4930  0.3963
 1366TP3      O15916   4.023   2.442   9.971 -0.5597 -0.3018  0.7712
 1366TP3     H115917   4.079   2.519   9.968 -2.4769  1.1460  0.5847
 1366TP3     H215918   3.976   2.442   9.888 -0.9746 -1.3832  0.9759
 1367TP3      O15919   3.607   0.813   0.049  0.5463 -0.4299 -0.2755
 1367TP3     H115920   3.546   0.810  -0.024 -0.0675 -1.1519  0.2489
 1367TP3     H215921   3.564   0.763   0.118  0.9251  0.5814  0.7217
 1368TP3      O15922   0.299   0.281   8.046  0.2525 -0.6934  0.6980
 1368TP3     H115923   0.233   0.305   8.111  0.3311 -0.6099  0.7457
 1368TP3     H215924   0.383   0.293   8.090  0.3314 -0.0238  0.3822
 1369TP3      O15925   2.144   0.767   2.947 -0.6817  0.5789 -0.4703
 1369TP3     H115926   2.228   0.767   2.992 -1.1747  0.1800  0.4762
 1369TP3     H215927   2.113   0.677   2.952 -0.1401  0.1729 -2.8422
 1370TP3      O15928   0.072   2.253   7.300  0.0399 -0.1604  0.1958
 1370TP3     H115929   0.055   2.314   7.228  1.3333 -0.5663 -0.4912
 1370TP3     H215930   0.111   2.176   7.257  0.2772 -0.6541  1.2673
 1371TP3      O15931   4.102   0.495   0.329  0.0616 -0.0482 -0.0554
 1371TP3     H115932   4.047   0.546   0.388 -1.3995 -1.2138 -0.3647
 1371TP3     H215933   4.134   0.559   0.265 -2.7153  0.3758 -1.1706
 1372TP3      O15934   0.266   1.561   7.409  0.6190  0.3386  0.1399
 1372TP3     H115935   0.297   1.572   7.320  0.1136  1.5315  0.0913
 1372TP3     H215936   0.219   1.643   7.428  1.7074  0.6096  1.8952
 1373TP3      O15937   1.769   2.234   1.901  0.1272 -0.1582 -0.3608
 1373TP3     H115938   1.770   2.244   1.806  2.6594 -2.0025 -0.6317
 1373TP3     H215939   1.790   2.141   1.916 -0.8268 -0.0755  2.0052
 1374TP3      O15940   0.310   2.470   3.747  0.1513 -0.2525  0.3414
 1374TP3     H115941   0.364   2.523   3.805 -1.4196  2.0956 -0.2009
 1374TP3     H215942   0.367   2.450   3.673  0.6786  1.1231  0.3393
 1375TP3      O15943   1.617   2.386   2.848 -0.4322 -0.7291  0.4172
 1375TP3     H115944   1.674   2.419   2.918 -0.1724 -0.9654  0.3190
 1375TP3     H215945   1.545   2.343   2.895 -0.8752  0.1338  0.5468
 1376TP3      O15946   2.199   5.054   2.200 -0.0815  0.8056 -0.0557
 1376TP3     H115947   2.214   4.978   2.256  1.3017 -0.3064 -1.8394
 1376TP3     H215948   2.109   5.080   2.220 -0.3565 -0.8686  1.1183
 1377TP3      O15949   4.447   4.273   2.438 -0.3534 -0.3217  0.3148
 1377TP3     H115950   4.479   4.258   2.349 -0.7750 -0.4660  0.1887
 1377TP3     H215951   4.527   4.284   2.490 -0.1181  0.5971 -0.2234
 1378TP3      O15952   5.222   2.251   7.548  0.1149 -0.4233  0.2334
 1378TP3     H115953   5.156   2.313   7.517 -0.3842 -0.9463  0.2360
 1378TP3     H215954   5.287   2.248   7.477 -0.4759 -0.8064 -0.2994
 1379TP3      O15955   2.396   3.719   1.210 -0.0720  0.0674 -0.6131
 1379TP3     H115956   2.327   3.687   1.269  0.8396 -2.4405 -0.7955
 1379TP3     H215957   2.350   3.742   1.129 -0.9637  0.7633  0.0669
 1380TP3      O15958   0.353   1.127   8.250  0.0668 -0.2811 -0.0586
 1380TP3     H115959   0.298   1.104   8.326  0.0439  0.8615  0.2956
 1380TP3     H215960   0.406   1.200   8.281  0.4813 -0.1864 -0.9774
 1381TP3      O15961   3.403   2.288   2.450  0.8029  0.0256 -0.5716
 1381TP3     H115962   3.393   2.196   2.427 -0.1362 -0.4499  1.5202
 1381TP3     H215963   3.319   2.328   2.428  0.7411  0.0884 -0.2271
 1382TP3      O15964   1.534   4.839   0.532  0.1034 -0.5275  0.1202
 1382TP3     H115965   1.569   4.775   0.593 -3.2132 -0.7824  2.0214
 1382TP3     H215966   1.514   4.916   0.587 -1.4636 -0.1554 -0.8869
 1383TP3      O15967   1.501   5.003   2.910 -0.2485 -0.0185 -0.2158
 1383TP3     H115968   1.461   5.014   2.997  0.5830  0.5980  0.1003
 1383TP3     H215969   1.561   5.077   2.902  0.5658 -0.7272 -0.8275
 1384TP3      O15970   3.279   2.276   8.744 -0.2068  0.0164 -0.2817
 1384TP3     H115971   3.189   2.306   8.728  0.3649  2.5138  0.7066
 1384TP3     H215972   3.334   2.342   8.702  1.1456  0.3709  1.8843
 1385TP3      O15973   3.627   4.389   0.886 -0.4101  0.6070 -0.1041
 1385TP3     H115974   3.710   4.409   0.842  0.5638  1.3693  1.9411
 1385TP3     H215975   3.560   4.422   0.827  0.9269  4.7504  0.3849
 1386TP3      O15976   2.607   3.834   9.390 -0.4913  0.2276  0.0115
 1386TP3     H115977   2.535   3.867   9.444 -0.0364  0.7570  0.3024
 1386TP3     H215978   2.675   3.809   9.453 -0.2120  0.2227 -0.2866
 1387TP3      O15979   4.515   0.343  10.061 -0.2992 -0.2061 -0.3683
 1387TP3     H115980   4.505   0.327  10.155  0.6433 -1.7810 -0.5123
 1387TP3     H215981   4.439   0.302  10.021  0.1841 -1.0821 -0.4167
 1388TP3      O15982   2.892   1.345   1.712  0.6772 -0.0288  0.3160
 1388TP3     H115983   2.909   1.422   1.767  1.0581  1.0387 -1.2217
 1388TP3     H215984   2.877   1.381   1.625 -0.9505 -1.5942 -0.1025
 1389TP3      O15985   1.883   0.786   2.596  0.4118 -0.0901  0.2637
 1389TP3     H115986   1.816   0.799   2.663  0.0078  2.6780 -0.5396
 1389TP3     H215987   1.965   0.779   2.645 -0.0149  0.5994  1.1049
 1390TP3      O15988   4.960   1.029   7.415 -0.0586  0.1728  0.1169
 1390TP3     H115989   4.993   1.031   7.325 -1.1553 -0.2628 -0.3160
 1390TP3     H215990   5.019   0.970   7.461  1.1683  1.2537 -0.0298
 1391TP3      O15991   0.187   1.358   2.783 -0.1308 -0.4664  0.1982
 1391TP3     H115992   0.277   1.365   2.749 -0.8032  1.2635 -1.4261
 1391TP3     H215993   0.169   1.265   2.784  1.1498 -0.7660 -0.9748
 1392TP3      O15994   2.682   1.612   3.483  0.0568  0.4052 -0.4299
 1392TP3     H115995   2.744   1.659   3.428 -1.1996 -0.0904 -2.3404
 1392TP3     H215996   2.638   1.680   3.534 -1.2777  1.3129 -2.6866
 1393TP3      O15997   1.750   1.882   8.632  0.4136 -0.1126 -0.3793
 1393TP3     H115998   1.758   1.913   8.722 -0.1733 -2.2806  0.4726
 1393TP3     H215999   1.659   1.899   8.609  0.3235 -0.4113 -0.2382
 1394TP3      O16000   2.771   3.743   7.637 -0.3511  0.1054 -0.0029
 1394TP3     H116001   2.688   3.791   7.633 -1.0481 -1.1324 -0.8426
 1394TP3     H216002   2.835   3.809   7.662 -1.6776  0.9748  1.2540
 1395TP3      O16003   3.606   1.216   7.974 -0.5841  0.3541  0.6603
 1395TP3     H116004   3.533   1.247   7.922  0.2113  1.3263  0.0863
 1395TP3     H216005   3.573   1.138   8.019 -1.1139 -0.9633 -1.8091
 1396TP3      O16006   0.294   0.437   0.910 -0.0055  0.3357  0.4699
 1396TP3     H116007   0.323   0.460   0.822  0.2921  0.9101  0.7149
 1396TP3     H216008   0.238   0.360   0.897 -0.0911  0.5066 -0.2339
 1397TP3      O16009   0.917   4.521   9.427  0.0497  0.0051  0.4773
 1397TP3     H116010   0.926   4.615   9.415 -3.5537  0.5204  0.6112
 1397TP3     H216011   0.896   4.488   9.339  1.3379 -0.7411  0.4227
 1398TP3      O16012   3.803   4.322   3.143 -0.2147 -0.4319 -0.1737
 1398TP3     H116013   3.895   4.322   3.119 -0.0255 -2.6548  0.2519
 1398TP3     H216014   3.803   4.301   3.237 -1.1240 -2.6265 -0.5805
 1399TP3      O16015   1.220   3.602   8.288  0.3181  0.4715 -0.3312
 1399TP3     H116016   1.188   3.629   8.374  0.7366  0.4626 -0.1697
 1399TP3     H216017   1.192   3.511   8.280  0.2259  0.4905 -0.2292
 1400TP3      O16018   1.827   1.461   0.820 -0.2246  0.2529 -0.0269
 1400TP3     H116019   1.785   1.546   0.826  0.2970  0.4209  2.6585
 1400TP3     H216020   1.889   1.460   0.893  0.8939 -1.8474 -0.9172
 1401TP3      O16021   0.410   2.245   2.187  0.3351 -0.0924  0.2309
 1401TP3     H116022   0.466   2.320   2.205  0.5841 -0.6074  1.8072
 1401TP3     H216023   0.379   2.217   2.273 -1.2103 -0.7012 -0.4727
 1402TP3      O16024   2.714   4.965   9.914 -0.0324 -0.0271 -0.5537
 1402TP3     H116025   2.669   5.048   9.903 -0.9392 -0.7096 -2.5977
 1402TP3     H216026   2.789   4.970   9.855  0.5084 -0.2727  0.0988
 1403TP3      O16027   2.996   2.984   3.049  0.1702  0.1292 -0.0055
 1403TP3     H116028   2.951   3.037   3.114  0.4048  1.1323 -0.6403
 1403TP3     H216029   3.065   2.939   3.099 -1.0034 -0.8290  0.8217
 1404TP3      O16030   3.764   4.211   3.419  0.2329 -0.3538  0.1802
 1404TP3     H116031   3.732   4.125   3.444  1.0047 -0.8788 -0.5743
 1404TP3     H216032   3.852   4.217   3.457  0.3166 -0.0423 -0.0480
 1405TP3      O16033   0.108   4.614   8.326 -0.2548 -0.2343 -0.2656
 1405TP3     H116034   0.067   4.700   8.338 -1.7876 -0.9175 -0.3585
 1405TP3     H216035   0.096   4.595   8.233 -0.5658 -0.8493 -0.1044
 1406TP3      O16036   4.097   2.511   1.180  0.5815 -0.8878 -0.4732
 1406TP3     H116037   4.095   2.465   1.264  0.1679 -1.3727 -0.7402
 1406TP3     H216038   4.093   2.441   1.114 -0.3909 -0.4680 -0.8841
 1407TP3      O16039   0.951   2.036   1.131  0.4072  0.2075  0.4538
 1407TP3     H116040   0.880   1.973   1.139 -0.3933  1.0857  0.3457
 1407TP3     H216041   1.010   2.015   1.203  0.4769 -1.0590  0.0508
 1408TP3      O16042   0.619   1.783   8.281 -0.4897  0.0068  0.3570
 1408TP3     H116043   0.527   1.783   8.254 -0.7204  0.3453  1.1308
 1408TP3     H216044   0.645   1.875   8.278 -0.6336  0.1100  1.6438
 1409TP3      O16045   2.037   2.265   2.258  0.0771  0.1772  0.0665
 1409TP3     H116046   2.040   2.174   2.288 -1.4711  0.0993  0.0537
 1409TP3     H216047   1.950   2.296   2.283  0.6977  1.7688  0.3643
 1410TP3      O16048   5.082   0.878   9.713  0.0579  0.1302 -0.2086
 1410TP3     H116049   5.057   0.802   9.660 -0.7636 -0.3649  0.8618
 1410TP3     H216050   5.164   0.852   9.754  0.1597  0.1082 -0.4243
 1411TP3      O16051   1.700   4.873   0.053  0.0913 -0.7262  0.1020
 1411TP3     H116052   1.733   4.815   0.122 -0.7163 -0.5012  0.6853
 1411TP3     H216053   1.607   4.852   0.046 -0.5008  1.3015  1.1470
 1412TP3      O16054   3.399   0.819   9.931  0.4734  0.2757 -0.4982
 1412TP3     H116055   3.421   0.912   9.927 -0.4141  0.4705 -0.8645
 1412TP3     H216056   3.308   0.814   9.905  0.3450 -0.6441  0.0729
 1413TP3      O16057   4.192   4.776   8.786 -0.0306  0.0038 -0.4504
 1413TP3     H116058   4.152   4.704   8.833  0.2147 -0.2963 -0.6960
 1413TP3     H216059   4.285   4.771   8.808  0.2244 -0.6342 -1.5841
 1414TP3      O16060   0.379   0.333   1.828  0.1805 -0.6896  0.4570
 1414TP3     H116061   0.297   0.300   1.864 -1.1808 -1.0305 -2.6063
 1414TP3     H216062   0.439   0.259   1.831 -0.9810 -1.7403 -0.9578
 1415TP3      O16063   0.371   4.318   2.578  0.1909  0.1441 -0.3787
 1415TP3     H116064   0.442   4.381   2.569 -0.7610  1.0817 -1.6563
 1415TP3     H216065   0.322   4.349   2.655 -0.4808  1.2166 -1.2095
 1416TP3      O16066   4.440   2.096   8.174 -0.0295 -0.4093 -0.4461
 1416TP3     H116067   4.424   2.158   8.103 -1.7617 -0.7890 -0.4221
 1416TP3     H216068   4.407   2.139   8.252  3.4947  0.7849  0.5703
 1417TP3      O16069   2.225   1.763   6.892  0.6169 -0.0895  0.5600
 1417TP3     H116070   2.241   1.673   6.865  0.0649  0.2385 -0.9433
 1417TP3     H216071   2.199   1.756   6.984  0.7810 -1.4341  0.5211
 1418TP3      O16072   4.345   4.993   1.261  0.1585 -0.8867 -0.0720
 1418TP3     H116073   4.439   4.984   1.278  0.1886 -1.6284 -0.5821
 1418TP3     H216074   4.313   5.044   1.336  1.1187  0.2487 -0.3905
 1419TP3      O16075   2.258   5.016   9.066  0.6003  0.7565 -0.0023
 1419TP3     H116076   2.192   5.031   9.134  0.2313  1.2824 -0.4622
 1419TP3     H216077   2.208   4.981   8.993  1.2590 -1.5817  0.5941
 1420TP3      O16078   3.558   2.304  10.085  0.7369  0.2225  0.1817
 1420TP3     H116079   3.550   2.267   9.997  2.3389 -0.3493  0.2358
 1420TP3     H216080   3.565   2.398  10.071 -0.3052  0.2557 -0.1927
 1421TP3      O16081   4.349   5.254   6.650 -0.2049  0.2076  0.1382
 1421TP3     H116082   4.338   5.348   6.637  0.0557  0.6596  2.7337
 1421TP3     H216083   4.424   5.246   6.708  0.5583 -1.7127 -0.9945
 1422TP3      O16084   2.854   3.471   2.984 -0.7920 -0.1513  0.0097
 1422TP3     H116085   2.788   3.533   3.012  0.9923  1.2191  1.4461
 1422TP3     H216086   2.896   3.442   3.065  0.1028 -1.2769 -0.8182
 1423TP3      O16087   1.217   1.465   8.694  0.3804 -0.3952 -0.5662
 1423TP3     H116088   1.234   1.378   8.660 -1.7732 -0.4593 -1.7009
 1423TP3     H216089   1.146   1.452   8.758 -0.6211  0.5898 -1.4347
 1424TP3      O16090   1.321   1.570   1.960 -0.1747 -0.9036 -0.0423
 1424TP3     H116091   1.248   1.511   1.943 -1.0064  0.5186 -1.7267
 1424TP3     H216092   1.393   1.534   1.908  0.5249 -2.5040  1.8891
 1425TP3      O16093   4.406   5.261   2.060 -0.0964  0.3527  0.0191
 1425TP3     H116094   4.320   5.261   2.102 -0.0642  1.5152  0.1295
 1425TP3     H216095   4.418   5.171   2.029 -0.8626 -0.1006  0.9792
 1426TP3      O16096   2.285   1.622   8.342 -0.0526 -0.0480  0.4045
 1426TP3     H116097   2.254   1.568   8.270 -0.4944  0.6470  0.0627
 1426TP3     H216098   2.290   1.562   8.416 -1.2210 -0.4070  0.2119
 1427TP3      O16099   3.499   4.277   8.301 -0.2569  0.3142 -0.1631
 1427TP3     H116100   3.438   4.346   8.272 -0.4627 -0.0364 -0.5825
 1427TP3     H216101   3.487   4.207   8.237  0.5623  0.2218 -0.2241
 1428TP3      O16102   1.223   0.903   7.777  0.2592  0.4667  0.0723
 1428TP3     H116103   1.262   0.967   7.837 -0.4413 -0.0970  1.1742
 1428TP3     H216104   1.293   0.839   7.761 -0.0968 -0.4446  1.8904
 1429TP3      O16105   3.829   0.918   9.279  0.1688 -0.1074  0.4970
 1429TP3     H116106   3.774   0.996   9.271  0.6779  0.2738  0.6910
 1429TP3     H216107   3.919   0.952   9.283  0.3454 -0.6561  1.3615
 1430TP3      O16108   1.307   4.142   0.588  0.3582  0.4278 -0.1750
 1430TP3     H116109   1.342   4.134   0.677  0.6606 -0.4590 -0.3648
 1430TP3     H216110   1.333   4.061   0.544 -2.8570 -0.8620  0.0011
 1431TP3      O16111   2.573   4.322   9.699 -0.1585 -1.0809 -0.1891
 1431TP3     H116112   2.488   4.353   9.666 -0.4868  3.0855  3.5852
 1431TP3     H216113   2.551   4.269   9.775  0.4891  0.3450  1.0495
 1432TP3      O16114   5.043   0.025   9.422  0.1001 -0.2641  0.5820
 1432TP3     H116115   4.989  -0.038   9.375 -0.8581  1.4779 -0.7510
 1432TP3     H216116   5.065   0.092   9.357 -0.0196  1.4648  2.2260
 1433TP3      O16117   4.708   2.858   3.451 -0.3454  0.1731  0.8153
 1433TP3     H116118   4.766   2.806   3.507 -1.4331  0.3595  2.1581
 1433TP3     H216119   4.767   2.913   3.399  0.6868  0.6485  2.4257
 1434TP3      O16120   4.072   3.111   9.209 -0.5927 -0.4639 -0.5873
 1434TP3     H116121   4.071   3.019   9.237 -0.5117  0.3022  2.1732
 1434TP3     H216122   4.161   3.140   9.228 -1.4580  0.9731  1.4845
 1435TP3      O16123   3.272   1.875   0.382 -0.4686  0.1094 -0.1514
 1435TP3     H116124   3.204   1.823   0.425 -1.0045  2.8646  2.7082
 1435TP3     H216125   3.351   1.859   0.433  0.3397 -0.7049 -1.5788
 1436TP3      O16126   3.823   0.930   8.765  0.0930 -0.1839  0.4098
 1436TP3     H116127   3.764   0.889   8.827 -0.4811  1.3878  0.9607
 1436TP3     H216128   3.829   1.021   8.795  0.5149  0.3890 -1.3184
 1437TP3      O16129   0.727   1.678   8.514  0.4067  0.0491 -0.1182
 1437TP3     H116130   0.682   1.704   8.433 -0.3317  0.4464  0.4122
 1437TP3     H216131   0.796   1.618   8.484 -0.5918 -0.7186 -0.9282
 1438TP3      O16132   1.727   5.170   8.787  0.9196  0.2377  0.5807
 1438TP3     H116133   1.686   5.194   8.870  0.1004 -1.6929  0.7787
 1438TP3     H216134   1.784   5.096   8.808 -0.2849 -1.1319 -0.7409
 1439TP3      O16135   3.392   1.379   2.798  0.8554  0.0767 -0.3530
 1439TP3     H116136   3.316   1.330   2.766  0.9799 -0.4806  0.1802
 1439TP3     H216137   3.446   1.313   2.840 -0.8863  1.1447  4.1214
 1440TP3      O16138   3.569   4.973   6.950  0.3345  0.2533 -0.0647
 1440TP3     H116139   3.580   4.898   7.009  0.8264 -0.8155 -1.4604
 1440TP3     H216140   3.483   4.960   6.911  0.7513 -0.0466 -0.9058
 1441TP3      O16141   1.161   0.713   1.285 -0.2097 -0.8224 -0.0734
 1441TP3     H116142   1.219   0.640   1.265 -0.8416 -1.2785 -0.3048
 1441TP3     H216143   1.075   0.683   1.256 -0.3314  0.3665 -0.9876
 1442TP3      O16144   3.805   0.870   9.848  0.6061  0.5628 -0.1312
 1442TP3     H116145   3.875   0.816   9.809  1.0178  0.7377  0.3563
 1442TP3     H216146   3.746   0.807   9.888  0.4046  0.4040 -0.6634
 1443TP3      O16147   2.300   2.902   9.442 -0.0381 -0.0483  0.3160
 1443TP3     H116148   2.226   2.854   9.479  0.0669 -0.2192  0.3071
 1443TP3     H216149   2.276   2.994   9.449 -1.2959 -0.1379 -1.8182
 1444TP3      O16150   0.814   1.223   1.894 -0.1933 -0.4248  0.3773
 1444TP3     H116151   0.896   1.267   1.869 -1.3404  1.5753 -0.0940
 1444TP3     H216152   0.820   1.136   1.854  0.6592  0.5448 -1.7307
 1445TP3      O16153   0.815   3.108   7.584  0.2285 -0.0388 -0.1353
 1445TP3     H116154   0.795   3.119   7.491 -0.0628 -0.7322 -0.1600
 1445TP3     H216155   0.740   3.147   7.630 -0.6121 -1.4720 -0.2188
 1446TP3      O16156   3.377   0.704   9.413  0.8681  0.1305  0.0438
 1446TP3     H116157   3.327   0.623   9.414  1.2178 -0.1276  2.5810
 1446TP3     H216158   3.340   0.754   9.340 -2.0889 -0.6485  0.8817
 1447TP3      O16159   1.781   5.269   0.844  0.3983 -0.3115  0.3408
 1447TP3     H116160   1.773   5.275   0.940  0.5346  1.1674  0.2793
 1447TP3     H216161   1.874   5.252   0.829  0.4808  0.0300  0.4571
 1448TP3      O16162   0.370   2.288   0.672  0.0274  0.6563 -0.4962
 1448TP3     H116163   0.456   2.330   0.666  0.8752 -0.7902  0.7207
 1448TP3     H216164   0.337   2.313   0.757  0.5916 -1.0893  0.2993
 1449TP3      O16165   5.168   0.126   8.324 -0.7369 -0.2018  0.0306
 1449TP3     H116166   5.142   0.202   8.376 -1.8015  0.4071 -1.3071
 1449TP3     H216167   5.090   0.070   8.322 -0.4392 -0.6165 -0.2275
 1450TP3      O16168   1.589   3.900   1.217  0.1811  0.5942 -0.7736
 1450TP3     H116169   1.639   3.864   1.144 -0.2068 -0.8520 -0.3602
 1450TP3     H216170   1.504   3.923   1.179 -0.6132 -1.6823 -0.5085
 1451TP3      O16171   0.758   4.948   7.557 -0.1611 -0.5580 -0.1207
 1451TP3     H116172   0.665   4.941   7.578 -0.5996 -0.3931 -1.7940
 1451TP3     H216173   0.760   5.002   7.478  1.6693  2.6453  1.9019
 1452TP3      O16174   3.453   1.698   2.424 -0.3486  0.4442 -0.1965
 1452TP3     H116175   3.366   1.720   2.392 -1.2133 -1.3502  0.7609
 1452TP3     H216176   3.478   1.619   2.375 -0.6657 -0.9046  1.6759
 1453TP3      O16177   2.810   4.392   0.904  0.4350 -0.7384  0.2573
 1453TP3     H116178   2.757   4.380   0.825  2.6417 -1.1975 -1.2279
 1453TP3     H216179   2.790   4.316   0.958  1.6736 -2.4593 -1.5750
 1454TP3      O16180   0.074   3.643   9.243  0.1766 -0.6735  0.2065
 1454TP3     H116181   0.065   3.632   9.338 -0.8417 -0.9496  0.0865
 1454TP3     H216182   0.036   3.563   9.206 -1.3153  0.3081 -0.4816
 1455TP3      O16183   1.185   0.259   6.746  0.0302  0.1740  0.1685
 1455TP3     H116184   1.262   0.261   6.802  0.6930 -0.6811 -0.6911
 1455TP3     H216185   1.138   0.180   6.771  0.6526 -0.5477 -0.8785
 1456TP3      O16186   3.120   3.316   1.214 -0.4196  0.0783 -0.2060
 1456TP3     H116187   3.125   3.343   1.306  0.2686  0.7585 -0.4336
 1456TP3     H216188   3.033   3.345   1.186  0.3838  2.4355 -0.5201
 1457TP3      O16189   3.518   4.875   0.901 -0.3657 -0.1736  0.1376
 1457TP3     H116190   3.436   4.908   0.939 -0.6907 -2.1330  1.2424
 1457TP3     H216191   3.556   4.819   0.969  1.8103  0.4962 -0.4348
 1458TP3      O16192   0.696   2.563   1.209  0.6110  0.3622 -0.3648
 1458TP3     H116193   0.675   2.479   1.167 -0.4861  0.5694 -0.2558
 1458TP3     H216194   0.785   2.550   1.244  0.3041 -0.9100  0.0277
 1459TP3      O16195   0.981   2.397   8.155  0.6854  0.0953  0.1436
 1459TP3     H116196   0.911   2.447   8.114  0.3675 -0.5065 -0.0525
 1459TP3     H216197   1.056   2.408   8.097  0.0250 -1.3971 -1.0431
 1460TP3      O16198   4.830   2.783   2.277  1.0189 -0.6393  0.0282
 1460TP3     H116199   4.800   2.781   2.368 -0.0179 -1.5385 -0.3183
 1460TP3     H216200   4.906   2.725   2.276  0.4029 -1.4565  0.1150
 1461TP3      O16201   4.606   3.359   8.918  0.4344 -0.6224  0.2729
 1461TP3     H116202   4.514   3.370   8.943  0.2295 -0.0079 -0.7222
 1461TP3     H216203   4.643   3.447   8.923  1.0074 -0.8813  0.7564
 1462TP3      O16204   5.055   0.377   0.530  0.0598  0.1319 -0.2544
 1462TP3     H116205   5.031   0.324   0.606 -1.3363  1.8363  0.5660
 1462TP3     H216206   5.076   0.313   0.461  0.1421 -1.4399  1.1738
 1463TP3      O16207   0.472   4.994   9.366 -0.5170 -0.0871  0.3604
 1463TP3     H116208   0.502   5.079   9.333  0.0394 -0.1145  0.7648
 1463TP3     H216209   0.449   5.011   9.457 -1.0337 -0.2321  0.2586
 1464TP3      O16210   4.266   2.831   3.529  0.3587  0.0204  0.0059
 1464TP3     H116211   4.293   2.778   3.605  0.6254 -0.8824 -0.6989
 1464TP3     H216212   4.347   2.846   3.481 -0.1747 -1.7822 -1.5534
 1465TP3      O16213   0.705   0.153   9.764  0.2363 -0.1576 -0.6002
 1465TP3     H116214   0.641   0.110   9.707  2.1496 -1.6710 -1.7145
 1465TP3     H216215   0.676   0.131   9.853  0.0178 -2.1459 -1.1009
 1466TP3      O16216   2.005   3.681   1.172 -0.3193  0.2540  0.3953
 1466TP3     H116217   1.957   3.614   1.123 -0.0363  0.6620 -0.4572
 1466TP3     H216218   2.044   3.633   1.245 -0.2366 -0.4983 -0.1265
 1467TP3      O16219   0.632   5.161  10.028  0.2251 -0.0904  0.0392
 1467TP3     H116220   0.557   5.141  10.083  0.4658  2.2265  1.3193
 1467TP3     H216221   0.694   5.090  10.045 -1.0831 -1.2746  0.0213
 1468TP3      O16222   2.092   0.215   9.356 -0.9453  0.1890  0.0441
 1468TP3     H116223   2.180   0.251   9.353  0.1579 -2.3010 -0.2958
 1468TP3     H216224   2.081   0.185   9.446 -1.1242 -0.1801 -0.0963
 1469TP3      O16225   0.967   3.888   3.069 -0.4769  0.2952  0.0226
 1469TP3     H116226   0.905   3.833   3.117 -0.5176 -1.0147 -1.4230
 1469TP3     H216227   1.053   3.854   3.093 -0.5328 -1.1916 -1.6673
 1470TP3      O16228   0.631   2.425   0.486  0.8446 -0.3993 -0.0167
 1470TP3     H116229   0.607   2.475   0.408  0.4349  2.3984  1.7720
 1470TP3     H216230   0.601   2.336   0.468  0.9825  0.0647 -3.1012
 1471TP3      O16231   1.625   3.205   9.207  0.5030 -0.4161  0.0344
 1471TP3     H116232   1.617   3.117   9.245  2.1790 -0.1245  1.2085
 1471TP3     H216233   1.564   3.259   9.256 -0.0176 -0.7841 -0.2067
 1472TP3      O16234   1.800   2.747   0.305 -0.2408  0.4446 -0.1239
 1472TP3     H116235   1.749   2.809   0.358  0.4024  0.5853  0.3344
 1472TP3     H216236   1.788   2.778   0.215  1.3936  2.2437  0.2192
 1473TP3      O16237   0.904   0.864   7.974  0.1813 -0.0676  0.3991
 1473TP3     H116238   0.839   0.931   7.958  0.8465  0.4144 -0.3608
 1473TP3     H216239   0.877   0.823   8.057  0.0510  1.4584  1.1356
 1474TP3      O16240   0.712   2.811   1.858  0.2798  0.1689  0.5939
 1474TP3     H116241   0.636   2.825   1.802  1.8049 -0.2503 -1.7209
 1474TP3     H216242   0.774   2.762   1.804  1.7904 -0.4927  2.7533
 1475TP3      O16243   1.245   1.300   0.210  0.4142 -0.3628  0.5865
 1475TP3     H116244   1.313   1.300   0.143 -0.9735 -2.6840 -0.9356
 1475TP3     H216245   1.259   1.382   0.257  3.1212  0.0860 -0.7915
 1476TP3      O16246   3.408   2.785   2.266  0.1943  0.3430  0.1888
 1476TP3     H116247   3.327   2.826   2.234 -1.1851 -0.2540  2.6462
 1476TP3     H216248   3.446   2.851   2.325  1.5257  0.6076 -0.9288
 1477TP3      O16249   3.384   1.813   7.418  0.6150 -0.1088 -0.1637
 1477TP3     H116250   3.358   1.902   7.392 -1.1926  0.2927  2.5479
 1477TP3     H216251   3.339   1.756   7.356 -1.1964  0.8205  0.2228
 1478TP3      O16252   1.689   4.969   7.264 -0.4634  0.3016 -0.0551
 1478TP3     H116253   1.710   5.058   7.235  2.1496 -0.6409 -1.4560
 1478TP3     H216254   1.768   4.918   7.243 -1.6494 -2.2460  1.2013
 1479TP3      O16255   4.418   1.890   7.951 -0.1123  0.3372  0.2994
 1479TP3     H116256   4.445   1.806   7.987  2.5588  1.2932  0.7091
 1479TP3     H216257   4.404   1.946   8.027 -0.3757  0.7133 -0.0181
 1480TP3      O16258   4.155   0.223   2.193 -0.3830  0.1772 -0.5787
 1480TP3     H116259   4.110   0.205   2.275 -0.2678 -0.3870 -0.6369
 1480TP3     H216260   4.176   0.317   2.197  1.2741 -0.1909  0.8837
 1481TP3      O16261   3.857   3.470   9.479  0.2439  0.2529  0.2227
 1481TP3     H116262   3.938   3.511   9.507  0.1754  0.4608  0.1272
 1481TP3     H216263   3.793   3.493   9.547  0.1189  0.6127 -0.0130
 1482TP3      O16264   1.331   5.250   2.155 -0.5047 -0.3797  0.5735
 1482TP3     H116265   1.251   5.237   2.207 -1.3010  0.7105 -0.3212
 1482TP3     H216266   1.299   5.261   2.065  0.7919 -1.6089 -0.0812
 1483TP3      O16267   4.189   4.773   7.289  0.4204  0.1028  0.0317
 1483TP3     H116268   4.110   4.718   7.291  0.9339 -0.7719 -1.9673
 1483TP3     H216269   4.236   4.750   7.369 -0.4774 -0.6917  0.3519
 1484TP3      O16270   4.143   0.874   9.090 -0.0501  0.0773 -0.4454
 1484TP3     H116271   4.118   0.858   8.999  1.5402  0.1591 -0.9268
 1484TP3     H216272   4.145   0.788   9.130 -1.5870  0.1193 -0.2437
 1485TP3      O16273   3.135   1.481   7.578  0.0750 -0.0897 -0.1591
 1485TP3     H116274   3.151   1.574   7.591 -0.4888 -0.0884  0.6328
 1485TP3     H216275   3.217   1.439   7.602  0.4282  0.2136 -0.8080
 1486TP3      O16276   0.491   2.914  10.119  0.6614 -0.7015 -0.0452
 1486TP3     H116277   0.474   2.913  10.025  0.0499 -0.7818  0.0611
 1486TP3     H216278   0.415   2.958  10.157  0.5308 -1.3508  0.4751
 1487TP3      O16279   3.088   0.021   8.930  0.5166 -0.2485  0.0334
 1487TP3     H116280   3.030   0.083   8.885  1.2129 -0.1589 -0.7572
 1487TP3     H216281   3.029  -0.032   8.984  0.0233  1.9731  1.8291
 1488TP3      O16282   4.309   0.848   8.348  0.5710  0.1217 -0.9657
 1488TP3     H116283   4.335   0.756   8.356 -1.6496 -0.4203  1.7398
 1488TP3     H216284   4.266   0.853   8.263  0.5371 -1.4302 -1.0796
 1489TP3      O16285   1.011   4.271   2.855 -0.4389  0.6303 -0.2272
 1489TP3     H116286   1.087   4.309   2.900  0.3823  0.2220 -1.2376
 1489TP3     H216287   1.033   4.178   2.846 -0.6414  0.6780 -1.3481
 1490TP3      O16288   0.280   0.305   2.314  0.3155  0.0799 -0.3172
 1490TP3     H116289   0.262   0.237   2.250  0.9981 -1.0444  0.6530
 1490TP3     H216290   0.350   0.357   2.275  0.2309 -0.1484 -0.7847
 1491TP3      O16291   1.515   1.603   9.879 -0.4829  0.0661 -0.1253
 1491TP3     H116292   1.557   1.579   9.962  0.0545 -1.6030 -0.8219
 1491TP3     H216293   1.496   1.519   9.837 -0.0677  0.8635 -2.0217
 1492TP3      O16294   0.626   5.081   8.882  0.2501 -0.2695 -0.1412
 1492TP3     H116295   0.607   4.988   8.897  1.0366 -0.7069 -1.6568
 1492TP3     H216296   0.539   5.122   8.879 -0.0732 -0.6595  2.0222
 1493TP3      O16297   2.622   3.273   2.364  0.3737  0.1163  0.3750
 1493TP3     H116298   2.599   3.346   2.422 -0.2905  0.6456 -0.5349
 1493TP3     H216299   2.569   3.200   2.396  2.0324 -0.3967  2.1527
 1494TP3      O16300   3.819   0.623   7.342 -0.2461 -0.0108 -0.2350
 1494TP3     H116301   3.863   0.556   7.290  0.1328  0.2001 -0.1876
 1494TP3     H216302   3.885   0.691   7.356 -0.8530  0.7449 -0.9432
 1495TP3      O16303   2.436   3.997   1.023 -0.1797  0.1658 -0.4026
 1495TP3     H116304   2.359   3.940   1.020  0.1672 -0.3800  0.5817
 1495TP3     H216305   2.400   4.084   1.038 -0.5998 -0.1339  0.3893
 1496TP3      O16306   2.293   4.063   7.342  0.1354  0.1239  0.1767
 1496TP3     H116307   2.321   4.153   7.326  1.7207 -0.3654 -0.0304
 1496TP3     H216308   2.200   4.070   7.363  0.1147  1.7491 -0.3066
 1497TP3      O16309   1.466   4.996   9.602  0.0601  0.3207  0.2363
 1497TP3     H116310   1.395   5.055   9.629  0.3547  0.7555  0.0676
 1497TP3     H216311   1.464   4.925   9.666 -3.7610 -2.3981 -2.3661
 1498TP3      O16312   4.642   4.671   7.862  0.0438  0.6287  0.5875
 1498TP3     H116313   4.591   4.612   7.806  1.2943  0.1729 -0.1272
 1498TP3     H216314   4.689   4.612   7.921  1.3183  0.8840 -0.1419
 1499TP3      O16315   3.881   4.225   1.254 -0.3775  0.6132 -0.2755
 1499TP3     H116316   3.970   4.260   1.258 -1.1342  2.6381  0.2951
 1499TP3     H216317   3.850   4.227   1.344 -1.0184 -0.0273 -0.4752
 1500TP3      O16318   3.960   1.847   2.991  0.0129 -0.5362 -0.2237
 1500TP3     H116319   3.970   1.891   3.075  1.5516 -2.0022  0.4269
 1500TP3     H216320   3.955   1.918   2.927 -0.4566  0.5890  1.0248
 1501TP3      O16321   3.847   2.333   0.009 -0.0432  0.4806 -0.2809
 1501TP3     H116322   3.754   2.322  -0.012 -0.4951  2.0934  0.6782
 1501TP3     H216323   3.881   2.391  -0.058 -0.1250  1.1602  0.2572
 1502TP3      O16324   1.573   1.041   2.343 -0.1760  0.0756  0.1439
 1502TP3     H116325   1.596   1.105   2.409 -0.3022 -0.6796  0.9433
 1502TP3     H216326   1.504   1.083   2.291  0.6430  1.0565 -0.1550
 1503TP3      O16327   4.081   4.336   9.767 -0.6852 -0.3829  0.1462
 1503TP3     H116328   4.175   4.315   9.763 -0.8513 -1.0118 -0.9272
 1503TP3     H216329   4.047   4.278   9.835 -0.5231 -1.1635 -0.4210
 1504TP3      O16330   3.212   0.812   0.729  0.2455 -0.2805 -0.2459
 1504TP3     H116331   3.196   0.861   0.648 -1.1193  0.0139  0.1757
 1504TP3     H216332   3.246   0.877   0.790 -1.7610  0.2652  0.3787
 1505TP3      O16333   4.907   4.180   8.963 -0.5358  0.5368 -0.2541
 1505TP3     H116334   4.999   4.200   8.946 -0.0972 -0.8757  0.2607
 1505TP3     H216335   4.870   4.262   8.995  0.2235  1.4708 -1.6653
 1506TP3      O16336   1.369   3.565   9.546 -0.4654  0.5462  0.0951
 1506TP3     H116337   1.339   3.642   9.498 -1.5876 -0.6254 -1.1684
 1506TP3     H216338   1.449   3.595   9.590  0.9345  1.6343 -2.8695
 1507TP3      O16339   0.926   1.285   8.656  0.4419  0.1837  0.0896
 1507TP3     H116340   0.926   1.190   8.643  0.8848  0.1055  0.5894
 1507TP3     H216341   0.834   1.308   8.670  0.3271 -0.1653 -0.1007
 1508TP3      O16342   0.614   5.286   8.006 -0.2975 -0.3376  0.0285
 1508TP3     H116343   0.603   5.194   8.030  2.4943 -0.5218  0.9467
 1508TP3     H216344   0.683   5.286   7.940  1.1694  1.1837  1.4692
 1509TP3      O16345   0.420   0.010   0.983 -0.0691 -0.1306 -0.0650
 1509TP3     H116346   0.391   0.079   0.924 -0.6197 -0.7356 -0.5207
 1509TP3     H216347   0.354  -0.058   0.974  0.9480 -1.1138 -0.3353
 1510TP3      O16348   5.002   1.028   3.121  0.1568  0.5489  0.2894
 1510TP3     H116349   5.049   1.022   3.204  1.8932  3.2833 -0.3852
 1510TP3     H216350   5.064   0.997   3.056 -0.3935  0.5391 -0.2451
 1511TP3      O16351   5.047   2.436   3.033  0.0852 -0.3329 -0.5527
 1511TP3     H116352   5.109   2.500   3.067 -0.1527  0.8003 -2.1196
 1511TP3     H216353   5.055   2.361   3.092  0.6897  0.9553  1.0946
 1512TP3      O16354   1.722   2.034   2.501 -0.4721  0.4364  0.0840
 1512TP3     H116355   1.806   2.077   2.519  0.0866  1.3146 -3.6792
 1512TP3     H216356   1.659   2.106   2.501 -1.2670 -0.1652  2.4651
 1513TP3      O16357   1.454   1.970   2.710 -0.1739  0.1849 -0.0245
 1513TP3     H116358   1.430   1.986   2.802 -0.8934  1.7796 -0.4392
 1513TP3     H216359   1.394   1.902   2.681 -0.7961  0.5669  0.3487
 1514TP3      O16360   0.805   1.515   1.173 -0.3267 -0.2493 -0.1415
 1514TP3     H116361   0.894   1.483   1.189 -0.7353 -1.1970  0.3339
 1514TP3     H216362   0.764   1.446   1.120 -0.7420  0.2444 -0.4782
 1515TP3      O16363   1.602   4.846   1.441 -0.3425  0.2337 -0.1421
 1515TP3     H116364   1.507   4.850   1.455 -0.4620 -2.5421  0.4504
 1515TP3     H216365   1.638   4.826   1.528  0.9234  1.9695 -0.2041
 1516TP3      O16366   3.956   4.277   7.807 -0.3250  0.1774 -0.2779
 1516TP3     H116367   3.873   4.252   7.847  1.0498 -1.3909  1.7597
 1516TP3     H216368   3.948   4.250   7.716 -1.8503 -0.4165  0.0127
 1517TP3      O16369   5.264   2.634   7.322 -0.4222 -0.7987  0.0429
 1517TP3     H116370   5.345   2.604   7.280 -0.5868  0.1149 -0.9708
 1517TP3     H216371   5.214   2.676   7.252 -1.1111 -0.0237  0.9613
 1518TP3      O16372   3.736   1.727   2.890 -0.1461 -0.3475 -0.0133
 1518TP3     H116373   3.713   1.820   2.889  0.8877 -0.0530 -2.0342
 1518TP3     H216374   3.829   1.726   2.914  0.0835 -0.7567 -0.8607
 1519TP3      O16375   0.492   0.484   9.985  0.2758  0.1813  0.1535
 1519TP3     H116376   0.563   0.447  10.038 -0.4938  0.2820  1.2848
 1519TP3     H216377   0.524   0.571   9.959  1.0340 -0.2317 -0.3592
 1520TP3      O16378   3.731   2.120   8.550 -0.1365 -0.0539 -0.2762
 1520TP3     H116379   3.687   2.127   8.465 -0.0770 -1.1243 -0.4174
 1520TP3     H216380   3.670   2.068   8.603  0.4408 -0.5703 -0.1103
 1521TP3      O16381   2.562   0.894   3.305  0.1267  0.4132  0.3352
 1521TP3     H116382   2.585   0.816   3.354 -1.8348  0.2838  1.1134
 1521TP3     H216383   2.611   0.965   3.348  0.0783 -0.0280  1.1263
 1522TP3      O16384   2.761   2.564   9.839  0.0816 -0.4619  0.3239
 1522TP3     H116385   2.716   2.484   9.813  0.3155 -0.4218 -0.2113
 1522TP3     H216386   2.698   2.609   9.896 -0.5338 -0.4337 -0.3694
 1523TP3      O16387   1.391   4.352   1.875 -0.5119 -0.6270  0.9521
 1523TP3     H116388   1.354   4.397   1.799 -0.5997 -1.2164  0.6367
 1523TP3     H216389   1.321   4.295   1.906  0.3397 -2.4080 -0.1731
 1524TP3      O16390   4.600   4.100   9.897 -0.2575 -0.5634 -0.0399
 1524TP3     H116391   4.638   4.147   9.972 -1.5371  2.0952 -0.9190
 1524TP3     H216392   4.657   4.122   9.824 -0.9902 -0.1814 -0.5078
 1525TP3      O16393   2.741   2.605   0.242 -0.2936  0.4394  0.8679
 1525TP3     H116394   2.779   2.527   0.284  0.6887  1.6538  2.3400
 1525TP3     H216395   2.810   2.635   0.183 -1.5389 -1.0612 -1.5244
 1526TP3      O16396   0.756   1.245   0.217 -0.2119 -0.5970  0.2202
 1526TP3     H116397   0.712   1.330   0.211 -1.6000 -1.2459  0.9138
 1526TP3     H216398   0.840   1.259   0.173 -1.1200  0.6524 -1.1876
 1527TP3      O16399   4.570   3.574   3.158 -0.3976  0.2338  0.5683
 1527TP3     H116400   4.551   3.656   3.203 -1.5462 -0.1413  0.8073
 1527TP3     H216401   4.570   3.597   3.065 -3.1221  0.1319  0.4450
 1528TP3      O16402   0.377   2.012   3.464  0.2405 -0.1630  0.3447
 1528TP3     H116403   0.437   1.938   3.456 -0.7669 -0.9194 -0.3763
 1528TP3     H216404   0.424   2.085   3.424  0.8460 -0.6389  0.1756
 1529TP3      O16405   3.919   4.914   2.638 -0.0526  0.1615  0.0099
 1529TP3     H116406   3.926   4.818   2.634  2.1617  0.2725 -4.1615
 1529TP3     H216407   3.837   4.934   2.594 -0.1346  0.2329  0.1925
 1530TP3      O16408   0.157   2.295   9.785  0.4434  0.1999  0.4099
 1530TP3     H116409   0.216   2.257   9.850  0.5481 -1.3835 -0.5611
 1530TP3     H216410   0.215   2.345   9.727  0.6186 -0.0891  0.3358
 1531TP3      O16411   0.251   4.622   1.959 -0.5584 -0.7351 -0.5848
 1531TP3     H116412   0.321   4.559   1.943 -0.2123 -0.2032 -1.1976
 1531TP3     H216413   0.171   4.570   1.953 -0.2258 -1.4015  0.3704
 1532TP3      O16414   1.081   3.431   0.107 -0.4550  0.0635  0.1714
 1532TP3     H116415   1.095   3.409   0.199  0.4135  1.5081  0.4071
 1532TP3     H216416   0.989   3.409   0.092 -0.5009 -0.5809  1.2647
 1533TP3      O16417   0.398   4.682   2.632  0.1521  0.3033  0.3588
 1533TP3     H116418   0.373   4.740   2.703  1.8222 -0.1085  1.3411
 1533TP3     H216419   0.352   4.600   2.650 -1.2701  0.9091 -0.3719
 1534TP3      O16420   4.898   2.417   1.691 -0.1481  0.0907 -0.1157
 1534TP3     H116421   4.878   2.432   1.783 -0.0851 -0.1358 -0.0647
 1534TP3     H216422   4.966   2.350   1.692  0.4174  0.6426 -0.2932
 1535TP3      O16423   3.169   4.802   3.502 -0.1462 -0.3557 -0.1605
 1535TP3     H116424   3.098   4.740   3.488  0.2966 -0.8138 -0.3889
 1535TP3     H216425   3.136   4.885   3.466 -0.7839 -0.4198  0.2554
 1536TP3      O16426   4.839   1.605   8.840 -0.6406 -0.8900 -0.1336
 1536TP3     H116427   4.901   1.547   8.796 -0.8496 -0.7454 -0.6282
 1536TP3     H216428   4.868   1.607   8.931  1.6603  1.1760 -0.8138
 1537TP3      O16429   0.484   1.557   9.517 -0.0885 -0.5058 -0.6056
 1537TP3     H116430   0.531   1.549   9.600 -0.3448  1.3957 -0.2343
 1537TP3     H216431   0.397   1.522   9.535 -0.4763  0.8413  0.2614
 1538TP3      O16432   0.161   3.991   0.055  0.1491  0.0903 -0.1242
 1538TP3     H116433   0.073   4.028   0.049  0.2953  0.3891 -0.4425
 1538TP3     H216434   0.156   3.930   0.129 -0.1017  0.7195  0.3776
 1539TP3      O16435   3.379   1.859   3.063 -0.2026  0.2071  0.0036
 1539TP3     H116436   3.421   1.861   3.149 -0.2770  0.1087  0.0433
 1539TP3     H216437   3.419   1.783   3.020  0.2527  0.5948 -0.2659
 1540TP3      O16438   0.362   3.881   9.709  0.2562  0.4699 -0.2899
 1540TP3     H116439   0.455   3.865   9.721  0.5132  1.2757 -1.1232
 1540TP3     H216440   0.332   3.810   9.652  0.2905  0.0516  0.2051
 1541TP3      O16441   2.242   0.474   1.034 -0.1755 -0.5366 -0.1960
 1541TP3     H116442   2.280   0.457   1.121 -2.0086  0.9574  0.9569
 1541TP3     H216443   2.307   0.439   0.973  1.6641 -0.6866  1.7365
 1542TP3      O16444   0.524   1.337   8.210  0.4571 -0.3763 -0.4560
 1542TP3     H116445   0.584   1.410   8.226 -1.4292  1.0857  0.3388
 1542TP3     H216446   0.506   1.342   8.116 -0.3340  0.7665 -0.2606
 1543TP3      O16447   5.149   0.307   1.944 -0.1968 -0.1955  0.0748
 1543TP3     H116448   5.141   0.219   1.906  1.9786  0.0907 -1.2188
 1543TP3     H216449   5.104   0.301   2.028  2.6935 -3.5731  1.6110
 1544TP3      O16450   2.955   0.712   9.320  0.3473  0.1915 -0.5930
 1544TP3     H116451   2.928   0.730   9.410 -0.4928 -0.9572 -0.5975
 1544TP3     H216452   3.051   0.705   9.324  0.2769 -0.4029  0.3174
 1545TP3      O16453   2.351   0.000   0.271 -0.3270  0.6751 -0.0083
 1545TP3     H116454   2.336   0.095   0.278 -3.6073  0.2775 -0.0433
 1545TP3     H216455   2.263  -0.038   0.277  0.6453 -2.2621 -2.3054
 1546TP3      O16456   1.424   4.718   1.251 -0.0488  0.0281 -0.3004
 1546TP3     H116457   1.385   4.774   1.319  1.0262 -0.2434  0.5742
 1546TP3     H216458   1.511   4.697   1.285  0.3566 -0.4607 -1.5928
 1547TP3      O16459   3.572   1.298   0.926 -0.3514  0.3875  0.2959
 1547TP3     H116460   3.504   1.333   0.869 -1.0690 -0.1638  0.7948
 1547TP3     H216461   3.525   1.270   1.005  0.2511 -1.2724  0.1079
 1548TP3      O16462   2.180   2.149   9.404 -0.1053  0.0688 -0.1005
 1548TP3     H116463   2.247   2.215   9.396  0.6061 -0.6439 -0.1452
 1548TP3     H216464   2.153   2.153   9.495 -1.3746  1.6427 -0.4981
 1549TP3      O16465   0.227   0.043   3.123  0.2905 -0.3290  0.2029
 1549TP3     H116466   0.137   0.011   3.131  0.2316 -0.1230  0.3609
 1549TP3     H216467   0.220   0.121   3.068  0.1449  0.6577  1.5622
 1550TP3      O16468   2.073   3.717   2.478 -0.3930  0.6110  0.5562
 1550TP3     H116469   2.025   3.800   2.475  0.1247  0.8842 -0.9720
 1550TP3     H216470   2.029   3.661   2.414 -0.2569 -0.0316  1.0150
 1551TP3      O16471   4.489   2.372   7.597  0.5627 -0.6484 -0.2463
 1551TP3     H116472   4.470   2.278   7.600 -0.2727 -0.6039 -2.2622
 1551TP3     H216473   4.422   2.411   7.653 -1.0472 -1.0764 -1.7607
 1552TP3      O16474   2.955   4.384   7.179 -0.2474 -0.2306 -0.2098
 1552TP3     H116475   2.924   4.348   7.096 -2.8384  0.6698  0.2900
 1552TP3     H216476   3.006   4.461   7.154  0.7749 -1.1281 -1.0115
 1553TP3      O16477   3.987   5.213   2.735  1.0020 -0.1750  0.1405
 1553TP3     H116478   3.950   5.154   2.800 -0.3791  0.0259 -0.4315
 1553TP3     H216479   4.055   5.261   2.782  1.0139 -1.0497  1.0383
 1554TP3      O16480   3.578   5.143   0.984  0.3506 -0.3225 -0.7790
 1554TP3     H116481   3.486   5.120   0.997  0.5747 -0.4597  0.7408
 1554TP3     H216482   3.613   5.072   0.929 -0.1168 -1.0150 -0.1927
 1555TP3      O16483   2.658   1.683   8.459 -0.1515  0.3265  0.1757
 1555TP3     H116484   2.583   1.743   8.459 -1.3774 -1.1305  0.0811
 1555TP3     H216485   2.698   1.693   8.373 -0.7196  0.5621 -0.0617
 1556TP3      O16486   4.387   0.405   9.311 -0.0544  0.2203 -0.1667
 1556TP3     H116487   4.468   0.455   9.319 -0.0223  0.1048  0.2676
 1556TP3     H216488   4.386   0.375   9.220 -0.9703  2.5317 -1.0012
 1557TP3      O16489   4.715   1.481   9.829 -0.0379  0.5968 -0.3912
 1557TP3     H116490   4.761   1.551   9.874  3.0293 -1.5462  0.1706
 1557TP3     H216491   4.682   1.425   9.899 -2.5695  1.4263 -0.8275
 1558TP3      O16492   2.776   2.966   9.469  0.2385  0.4259  0.0603
 1558TP3     H116493   2.739   3.021   9.537  1.3956  1.2146  0.0893
 1558TP3     H216494   2.834   2.905   9.515 -0.3321 -0.2193 -0.0598
 1559TP3      O16495   3.426   4.988   9.749 -0.5606  0.0765  0.5380
 1559TP3     H116496   3.420   5.083   9.761  1.1307  0.0677  1.9249
 1559TP3     H216497   3.518   4.968   9.763 -0.4348 -1.5376 -1.9439
 1560TP3      O16498   2.011   3.899   2.173  0.6692  0.1005  0.0234
 1560TP3     H116499   2.065   3.970   2.206  2.1661 -0.4874 -1.0192
 1560TP3     H216500   1.987   3.926   2.084  0.8476 -0.4665 -0.2056
 1561TP3      O16501   1.119   3.713   0.773  0.0201 -0.5510  0.3127
 1561TP3     H116502   1.036   3.758   0.756 -0.4143 -1.5532 -0.3078
 1561TP3     H216503   1.173   3.734   0.697 -0.5906 -1.9598 -0.5597
 1562TP3      O16504   4.130   0.535   7.458  0.3747 -0.2792  0.3637
 1562TP3     H116505   4.094   0.621   7.435 -0.3510 -0.7655 -0.3967
 1562TP3     H216506   4.118   0.483   7.379  3.3481 -0.3262 -0.1527
 1563TP3      O16507   0.736   5.120   8.262 -0.1534  0.3148  0.3061
 1563TP3     H116508   0.768   5.201   8.222 -2.7853  0.6256 -1.4419
 1563TP3     H216509   0.735   5.056   8.190 -0.3534 -0.5675  1.0728
 1564TP3      O16510   0.289   3.704   9.504 -0.0929 -0.2388  0.1615
 1564TP3     H116511   0.273   3.648   9.580 -1.3906 -0.0979  0.0073
 1564TP3     H216512   0.207   3.702   9.454  0.2177  0.9035 -0.4383
 1565TP3      O16513   4.878   3.420   0.885  0.0352  0.3555  0.0153
 1565TP3     H116514   4.950   3.466   0.927  1.5920 -1.1093 -0.9298
 1565TP3     H216515   4.860   3.346   0.942 -0.6593  0.6490  0.1867
 1566TP3      O16516   0.610   0.546   8.500  0.0486 -0.5357  0.4848
 1566TP3     H116517   0.676   0.489   8.539 -0.1342 -1.2256 -0.1797
 1566TP3     H216518   0.660   0.603   8.440  0.2810  0.2863  1.4243
 1567TP3      O16519   0.981   1.336   0.126 -0.0136 -0.4519 -1.0729
 1567TP3     H116520   0.987   1.426   0.158 -0.0393 -0.1551 -1.8708
 1567TP3     H216521   1.072   1.304   0.127 -0.0849 -0.6410 -0.1847
 1568TP3      O16522   0.164   2.697   2.518  0.2507 -0.1195  0.3779
 1568TP3     H116523   0.123   2.623   2.473  0.4729 -0.4203  0.6649
 1568TP3     H216524   0.122   2.700   2.604 -1.4233  1.5233 -0.4246
 1569TP3      O16525   3.150   4.072   1.074 -0.2674  0.6320 -0.0986
 1569TP3     H116526   3.054   4.065   1.079 -0.2316 -1.0273 -0.9097
 1569TP3     H216527   3.165   4.143   1.012 -1.0334 -0.0703 -1.1395
 1570TP3      O16528   2.376   4.733   3.621  0.4316  0.0451  0.2178
 1570TP3     H116529   2.305   4.694   3.673  0.1875  1.5952  1.0988
 1570TP3     H216530   2.331   4.783   3.553  0.7500 -2.1822 -1.7539
 1571TP3      O16531   4.359   4.245   6.497 -0.3705  0.0206  0.5087
 1571TP3     H116532   4.286   4.233   6.436  2.2527 -0.4174 -2.8983
 1571TP3     H216533   4.397   4.158   6.504  0.6722  0.5067  0.9849
 1572TP3      O16534   1.302   1.919   8.681 -0.1503 -0.2136  0.0321
 1572TP3     H116535   1.351   1.996   8.709  0.3222 -0.2501 -0.6639
 1572TP3     H216536   1.351   1.885   8.606 -1.6394  0.1910 -1.1856
 1573TP3      O16537   3.353   2.119   7.794  0.0627  0.0764 -0.3364
 1573TP3     H116538   3.432   2.066   7.796  0.3475  0.5086  0.2185
 1573TP3     H216539   3.332   2.129   7.701  0.7821  0.1411 -0.4937
 1574TP3      O16540   4.470   4.739   9.393 -0.7279 -0.0122  0.0989
 1574TP3     H116541   4.431   4.717   9.477  0.3487 -3.0132 -0.0322
 1574TP3     H216542   4.562   4.759   9.414 -0.9435  1.3508 -0.1754
 1575TP3      O16543   2.865   4.007   0.740 -0.3552  0.1753  0.2125
 1575TP3     H116544   2.926   3.934   0.733  0.5331  0.7249  1.7864
 1575TP3     H216545   2.919   4.085   0.730 -1.0405  0.6386  0.0731
 1576TP3      O16546   0.929   4.824   1.818 -0.0120  0.1409  0.0265
 1576TP3     H116547   0.858   4.775   1.778  0.0895 -0.3614  0.4450
 1576TP3     H216548   1.008   4.783   1.785  0.0777 -0.7488  1.2531
 1577TP3      O16549   1.418   1.430   9.476 -0.1212 -0.0895  0.3206
 1577TP3     H116550   1.398   1.339   9.499 -1.3090  0.3954  1.3828
 1577TP3     H216551   1.403   1.435   9.382 -0.0380 -0.9949  0.2504
 1578TP3      O16552   1.078   0.117   9.442  0.0193  0.4589  0.4760
 1578TP3     H116553   1.107   0.026   9.437  1.0425  0.7084  1.4934
 1578TP3     H216554   1.132   0.163   9.378 -1.1016  0.2446 -0.6839
 1579TP3      O16555   4.737   3.391   6.396 -0.5867 -0.1892  0.1460
 1579TP3     H116556   4.832   3.376   6.396 -0.2787  1.4778 -1.1704
 1579TP3     H216557   4.720   3.435   6.479 -0.2363 -0.6465  0.4626
 1580TP3      O16558   0.542   0.856  10.065  0.8111  0.3419 -0.2894
 1580TP3     H116559   0.561   0.931  10.121 -0.0365  0.3230  0.0346
 1580TP3     H216560   0.528   0.783  10.125  0.8010  0.1108 -0.5685
 1581TP3      O16561   2.050   1.180   8.040 -0.2366  0.0292 -0.2289
 1581TP3     H116562   2.102   1.112   7.997  0.9904  0.9146 -0.1935
 1581TP3     H216563   2.036   1.148   8.129  1.5401  0.4121  0.2257
 1582TP3      O16564   2.383   1.836   1.302  0.0499 -0.9378 -0.1308
 1582TP3     H116565   2.450   1.769   1.293  1.3800  0.2045  0.7191
 1582TP3     H216566   2.355   1.831   1.393 -0.7178 -1.1030 -0.3632
 1583TP3      O16567   1.205   5.103   2.812 -0.1202  0.5864  0.0902
 1583TP3     H116568   1.130   5.077   2.866  0.6090 -1.0635  0.3827
 1583TP3     H216569   1.248   5.020   2.790  0.9736  1.4152 -1.0147
 1584TP3      O16570   0.142   1.438  10.056  0.0398  0.0788 -0.0043
 1584TP3     H116571   0.137   1.420  10.150 -1.4902  0.9570  0.1031
 1584TP3     H216572   0.146   1.351  10.016  1.2742 -0.3053  0.8742
 1585TP3      O16573   2.334   1.396   0.102  0.0476 -0.1042 -0.0958
 1585TP3     H116574   2.328   1.322   0.042  1.1347 -0.4379  0.1932
 1585TP3     H216575   2.256   1.388   0.157 -0.5138 -0.2831 -0.8852
 1586TP3      O16576   1.241   4.039   2.010 -0.2276 -0.2634  0.2306
 1586TP3     H116577   1.201   4.122   1.984 -2.6707 -1.2614  0.5473
 1586TP3     H216578   1.245   3.988   1.929  2.3060  0.4707 -0.1957
 1587TP3      O16579   0.738   3.005  10.077  0.0132 -0.3012 -0.2964
 1587TP3     H116580   0.647   2.983  10.097  0.6104 -2.4824  0.3554
 1587TP3     H216581   0.779   2.921  10.059  2.1958  0.4693  0.7316
 1588TP3      O16582   2.649   1.148   1.067  0.0097  0.0565 -0.2959
 1588TP3     H116583   2.677   1.226   1.020  2.4280  0.5324  1.7687
 1588TP3     H216584   2.584   1.180   1.130 -0.7521 -0.0238 -1.0282
 1589TP3      O16585   3.170   0.583   1.579  0.1626 -0.3966  0.3561
 1589TP3     H116586   3.256   0.587   1.619  0.5213  1.4582 -0.4916
 1589TP3     H216587   3.187   0.580   1.485 -0.7041 -1.8303  0.2095
 1590TP3      O16588   3.522   2.780   7.329  0.1701  0.4724  0.2010
 1590TP3     H116589   3.592   2.804   7.268 -0.9534  1.2047 -0.8505
 1590TP3     H216590   3.474   2.710   7.285  0.4167 -0.2611  1.0614
 1591TP3      O16591   2.629   3.114   9.019 -0.3525  0.0955  0.1859
 1591TP3     H116592   2.699   3.105   9.084 -0.1077  0.3599 -0.0381
 1591TP3     H216593   2.582   3.031   9.023 -0.5326  0.2274  0.9192
 1592TP3      O16594   2.097   2.995   7.847 -0.4075  0.4085 -0.2246
 1592TP3     H116595   2.069   2.904   7.860 -1.1885  0.7802  0.9313
 1592TP3     H216596   2.103   3.005   7.752 -0.6277 -0.7592 -0.3812
 1593TP3      O16597   3.306   1.329   0.502 -0.6544 -0.2772  0.2620
 1593TP3     H116598   3.392   1.301   0.471 -1.1014  0.0160 -1.3845
 1593TP3     H216599   3.272   1.384   0.431 -1.4405  1.1584  1.6727
 1594TP3      O16600   2.959   2.982   0.232  0.6416  0.4284  0.7366
 1594TP3     H116601   3.013   3.038   0.177 -1.3897  2.7168  0.8986
 1594TP3     H216602   2.928   3.040   0.302 -2.2977 -0.6203  0.4323
 1595TP3      O16603   4.721   4.904   8.745 -0.2641  0.2820 -0.2411
 1595TP3     H116604   4.767   4.952   8.813 -2.5035  0.3218  1.3417
 1595TP3     H216605   4.777   4.828   8.727 -0.2316 -0.4825  2.6484
 1596TP3      O16606   1.863   4.560   7.622  0.4607  0.3479  0.0117
 1596TP3     H116607   1.777   4.530   7.650  0.7160  0.3046  0.7644
 1596TP3     H216608   1.853   4.655   7.614  0.5758  0.4543  0.9853
 1597TP3      O16609   4.355   3.209   0.929 -0.2337  0.3263 -0.5416
 1597TP3     H116610   4.445   3.231   0.903  0.0530  0.0247  0.1670
 1597TP3     H216611   4.307   3.205   0.846  0.7215 -0.9004 -1.0744
 1598TP3      O16612   3.177   1.813   1.318 -0.3317 -0.0957  0.1186
 1598TP3     H116613   3.096   1.823   1.369  0.2392 -1.5830  1.3879
 1598TP3     H216614   3.240   1.870   1.363 -0.1831 -0.3722  0.2610
 1599TP3      O16615   2.790   0.222   8.510  0.0255 -0.0442 -0.2255
 1599TP3     H116616   2.861   0.158   8.515  1.3777  1.4206  0.8702
 1599TP3     H216617   2.813   0.287   8.577 -3.1602 -0.2255  1.2111
 1600TP3      O16618   1.674   3.032   9.436 -0.6188 -0.4290  0.3939
 1600TP3     H116619   1.666   3.118   9.478 -0.6938  0.2341 -0.9150
 1600TP3     H216620   1.758   2.998   9.465 -0.5866  0.0841  0.9221
 1601TP3      O16621   3.100   2.895   2.811  0.0914 -0.0245 -1.0586
 1601TP3     H116622   3.063   2.931   2.892  0.6241  0.9796 -1.2486
 1601TP3     H216623   3.077   2.803   2.814 -0.7218  0.1880 -0.2188
 1602TP3      O16624   2.883   1.508   0.014  0.0074  0.1770 -0.1789
 1602TP3     H116625   2.835   1.555   0.082  1.2276  2.3515 -0.6915
 1602TP3     H216626   2.934   1.577  -0.030  2.0991 -1.7146 -0.8722
 1603TP3      O16627   1.137   1.918   8.946 -0.0502  0.0846 -0.0377
 1603TP3     H116628   1.185   1.918   8.864 -0.8176  1.5239 -0.5287
 1603TP3     H216629   1.176   1.989   8.997 -0.0860 -0.2906  0.5231
 1604TP3      O16630   1.756   4.402   1.366  0.1642  0.1067  0.4108
 1604TP3     H116631   1.665   4.395   1.396 -0.4684  2.0803 -0.8512
 1604TP3     H216632   1.788   4.483   1.405  0.1323  1.3828 -1.9995
 1605TP3      O16633   4.627   4.082   6.693 -0.2621  0.5014  0.4899
 1605TP3     H116634   4.678   4.090   6.613  1.8342 -0.5230  1.6379
 1605TP3     H216635   4.607   3.988   6.699 -1.3911  0.7326  0.6205
 1606TP3      O16636   0.976   3.468   9.671 -0.3269  0.1644 -0.1377
 1606TP3     H116637   1.018   3.460   9.757  0.0281  2.0022 -0.0822
 1606TP3     H216638   0.899   3.412   9.676 -0.2106  0.0980  1.3268
 1607TP3      O16639   3.044   4.577   2.965 -0.5010 -0.3136  0.5293
 1607TP3     H116640   3.037   4.594   3.059  0.8439 -1.0774  0.7976
 1607TP3     H216641   2.986   4.503   2.949 -0.2315 -0.6018  0.8858
 1608TP3      O16642   2.987   2.287   8.004  0.0386 -0.2031  0.0013
 1608TP3     H116643   2.946   2.268   8.088 -1.7164 -0.1556 -0.7799
 1608TP3     H216644   3.054   2.220   7.994  0.0581 -0.3999  1.2812
 1609TP3      O16645   2.612   1.068   2.757 -0.0629 -0.3367 -0.0844
 1609TP3     H116646   2.658   1.034   2.834  0.1743 -1.1113 -0.5468
 1609TP3     H216647   2.675   1.126   2.715  0.1676 -0.6799 -0.2193
 1610TP3      O16648   2.691   1.405   9.433 -1.0686  0.1639 -0.1397
 1610TP3     H116649   2.626   1.337   9.446 -0.8952  0.1891  1.0480
 1610TP3     H216650   2.755   1.367   9.373 -0.5509 -1.0519  1.1183
 1611TP3      O16651   1.707   5.230   1.774  0.3379  0.2692  0.2005
 1611TP3     H116652   1.731   5.258   1.862  0.9771 -2.7222  1.0689
 1611TP3     H216653   1.614   5.211   1.779  0.0784  1.3425 -0.1797
 1612TP3      O16654   3.662   2.985   9.931  0.2050 -0.6493  0.2688
 1612TP3     H116655   3.596   2.929   9.970  0.4457 -0.8617  0.3775
 1612TP3     H216656   3.616   3.066   9.909  0.4660  0.3140  2.8877
 1613TP3      O16657   0.044   4.349   0.363  0.1497 -0.7962 -0.3000
 1613TP3     H116658   0.107   4.327   0.295 -0.2770 -1.9261 -0.3618
 1613TP3     H216659   0.067   4.291   0.436 -1.3317 -1.8791 -0.6447
 1614TP3      O16660   1.044   4.470   9.805  0.5355 -0.1626  0.4889
 1614TP3     H116661   1.128   4.459   9.849 -0.3768 -0.0786  2.3559
 1614TP3     H216662   1.031   4.564   9.800  0.5734 -0.1736  0.1186
 1615TP3      O16663   4.028   1.824   8.163  0.2396  0.4868  0.3613
 1615TP3     H116664   4.091   1.775   8.215  0.7082  0.6870 -0.0115
 1615TP3     H216665   3.943   1.788   8.189  0.5037  0.1841  0.8338
 1616TP3      O16666   0.659   3.832   2.324 -0.1865 -0.4521  0.2700
 1616TP3     H116667   0.622   3.910   2.284  1.1265 -0.1552 -0.4262
 1616TP3     H216668   0.692   3.781   2.250 -1.2666 -1.8179  0.6950
 1617TP3      O16669   5.004   1.539   0.765 -0.2079  0.1952 -0.2342
 1617TP3     H116670   4.974   1.465   0.817  1.7645 -0.0299  0.6926
 1617TP3     H216671   5.007   1.506   0.676  2.1855 -1.4691  0.3579
 1618TP3      O16672   0.744   4.226  10.100 -0.0389 -0.2777 -0.5295
 1618TP3     H116673   0.789   4.196  10.179 -0.2761  0.1444 -0.2295
 1618TP3     H216674   0.707   4.146  10.062  0.2201 -0.5050 -0.3025
 1619TP3      O16675   3.349   3.191   8.516 -0.0653 -0.3718  0.6446
 1619TP3     H116676   3.415   3.208   8.583 -0.2779 -0.1285  0.7886
 1619TP3     H216677   3.319   3.277   8.489 -0.7112 -0.4962  0.9546
 1620TP3      O16678   2.661   0.784   8.022 -0.1141 -0.0274 -0.2750
 1620TP3     H116679   2.756   0.787   8.014 -0.1373  1.3477 -0.3028
 1620TP3     H216680   2.643   0.702   8.068  1.0810 -0.3052 -0.2749
 1621TP3      O16681   4.735   2.000   8.746  0.1169  0.2520 -0.5730
 1621TP3     H116682   4.807   1.982   8.807 -0.5192  0.1922  0.1856
 1621TP3     H216683   4.767   2.071   8.691  1.7608 -1.5006 -2.0180
 1622TP3      O16684   2.454   3.281   9.522  0.0265  0.0136 -0.3831
 1622TP3     H116685   2.497   3.263   9.605  0.0715  0.6089 -0.2729
 1622TP3     H216686   2.501   3.227   9.458 -1.5700 -2.3759  0.3375
 1623TP3      O16687   4.705   1.316   0.647 -0.2059  0.7902  0.0570
 1623TP3     H116688   4.611   1.310   0.664 -0.3970 -0.2051 -1.2177
 1623TP3     H216689   4.712   1.373   0.571  0.1795  0.4297 -0.1817
 1624TP3      O16690   4.134   4.845   7.754  0.2692 -0.3654 -0.3374
 1624TP3     H116691   4.192   4.880   7.821 -0.0930 -0.1200 -0.1473
 1624TP3     H216692   4.071   4.915   7.738 -0.8750 -1.1675  0.5345
 1625TP3      O16693   1.674   4.759   6.751 -0.7117  0.0201 -0.5011
 1625TP3     H116694   1.705   4.669   6.766 -0.3351  0.2404  0.0664
 1625TP3     H216695   1.652   4.761   6.658 -0.6730 -0.6454 -0.5316
 1626TP3      O16696   5.004   2.659   0.928  0.5048  0.0865 -0.1643
 1626TP3     H116697   4.976   2.714   0.856  1.3518  1.5864  0.5929
 1626TP3     H216698   4.923   2.621   0.963 -0.2224  1.5603 -0.1726
 1627TP3      O16699   4.082   1.043   0.028 -0.2425  0.4226 -0.3717
 1627TP3     H116700   4.084   1.132  -0.007  0.8516  0.8853  0.8202
 1627TP3     H216701   4.087   1.053   0.123 -2.6265 -0.8374 -0.0125
 1628TP3      O16702   1.970   5.214   0.482 -0.2603 -0.0807  0.0165
 1628TP3     H116703   2.000   5.301   0.506 -0.5926  0.1675 -0.4481
 1628TP3     H216704   1.875   5.224   0.468 -0.4235 -0.6615  0.6277
 1629TP3      O16705   4.473   2.856   3.051  0.2086 -0.7360 -0.0662
 1629TP3     H116706   4.454   2.831   3.141 -1.3034 -1.2612 -0.5027
 1629TP3     H216707   4.476   2.774   3.003 -1.8122 -0.3499 -0.9669
 1630TP3      O16708   4.766   2.811   8.560  0.7998  0.2642 -0.3333
 1630TP3     H116709   4.686   2.845   8.520 -0.0673  0.5194  1.5328
 1630TP3     H216710   4.794   2.740   8.502 -1.6454 -0.8638 -0.2271
 1631TP3      O16711   0.138   5.173   8.002 -0.1599 -0.2027 -0.1421
 1631TP3     H116712   0.059   5.210   7.964 -1.3528  0.2443  2.5119
 1631TP3     H216713   0.194   5.248   8.020  1.7804 -0.6217 -3.5390
 1632TP3      O16714   5.144   3.639   2.024 -0.2196  0.0924 -0.1949
 1632TP3     H116715   5.200   3.578   1.976  0.0549  0.7811 -0.7507
 1632TP3     H216716   5.055   3.615   1.997 -0.0662  0.5085 -1.0976
 1633TP3      O16717   1.195   3.689   2.036 -0.1329 -0.4179 -0.1981
 1633TP3     H116718   1.106   3.693   2.002 -0.2431  0.4229  0.1597
 1633TP3     H216719   1.235   3.771   2.009 -0.0561  0.0390  1.1917
 1634TP3      O16720   2.667   2.890   0.058  0.0815 -0.9805  0.3825
 1634TP3     H116721   2.653   2.916   0.149 -0.4199 -0.9688  0.3052
 1634TP3     H216722   2.584   2.910   0.014  0.9861  1.0526 -0.5554
 1635TP3      O16723   1.944   3.660   7.871  0.6143 -0.1057 -0.0495
 1635TP3     H116724   1.909   3.574   7.847 -1.1143  0.9231 -1.4895
 1635TP3     H216725   1.938   3.662   7.967  0.5976 -1.5354  0.0064
 1636TP3      O16726   5.196   2.509   2.572 -0.6444  0.8202 -0.0857
 1636TP3     H116727   5.234   2.551   2.648 -1.2974  0.8354  0.2398
 1636TP3     H216728   5.102   2.513   2.587 -0.7727  0.6624 -0.8069
 1637TP3      O16729   5.135   0.670   8.168  0.3702  0.7338  0.2826
 1637TP3     H116730   5.150   0.725   8.091 -1.2358 -0.2134 -0.7923
 1637TP3     H216731   5.205   0.693   8.229  0.9484  2.4366 -0.9462
 1638TP3      O16732   1.251   1.638   7.577  0.1316 -0.3556 -0.3747
 1638TP3     H116733   1.323   1.689   7.539  0.9554 -1.7399 -0.7651
 1638TP3     H216734   1.224   1.578   7.506 -0.4940 -0.7800  0.2036
 1639TP3      O16735   3.415   4.785   1.635 -0.0051  0.4383 -0.1486
 1639TP3     H116736   3.449   4.863   1.678 -2.7039  1.1663  0.8703
 1639TP3     H216737   3.429   4.715   1.699 -1.3918  0.9628  0.7800
 1640TP3      O16738   1.587   1.303   8.309  0.3725 -0.1592 -0.4040
 1640TP3     H116739   1.675   1.303   8.346  0.4623  0.3600 -0.5974
 1640TP3     H216740   1.597   1.262   8.223  0.5317  0.3963 -0.6537
 1641TP3      O16741   1.768   0.733   9.865  0.4674  1.0457 -0.0086
 1641TP3     H116742   1.724   0.652   9.891  1.4899  0.0391 -1.2667
 1641TP3     H216743   1.714   0.803   9.902 -3.4084  0.0170 -3.1546
 1642TP3      O16744   0.899   0.197   0.583  0.2529 -0.5065  0.0296
 1642TP3     H116745   0.840   0.171   0.653  0.4034  0.5113  0.5491
 1642TP3     H216746   0.854   0.268   0.538  0.1461 -1.1592 -0.9385
 1643TP3      O16747   5.041   3.021   1.573 -0.1109 -0.0575 -0.2691
 1643TP3     H116748   4.952   3.015   1.537 -0.2726  1.9171 -0.3330
 1643TP3     H216749   5.030   3.070   1.654  1.1959  3.0029 -1.7775
 1644TP3      O16750   4.510   4.686   1.899 -0.2193 -0.6552  0.6037
 1644TP3     H116751   4.544   4.696   1.810  2.1868  1.1148  1.5990
 1644TP3     H216752   4.464   4.768   1.918  0.9302 -0.1916  1.5669
 1645TP3      O16753   3.111   2.240   1.102 -0.4784  0.0887 -0.3052
 1645TP3     H116754   3.198   2.201   1.107 -0.6534 -0.3071 -0.3756
 1645TP3     H216755   3.062   2.183   1.044 -1.2791 -0.6261  1.0260
 1646TP3      O16756   2.399   2.252   9.639  0.0775  0.1314  0.4273
 1646TP3     H116757   2.360   2.311   9.574  1.4100 -1.7035 -2.2378
 1646TP3     H216758   2.328   2.192   9.662 -0.5188  1.0390  1.0607
 1647TP3      O16759   3.979   3.670   8.873  0.3402 -0.4194  0.2557
 1647TP3     H116760   3.893   3.708   8.855  0.3118 -0.8540 -0.5573
 1647TP3     H216761   3.962   3.577   8.887  0.6652 -0.4900  0.1889
 1648TP3      O16762   4.506   5.278   2.660  0.7451  0.2457  0.2404
 1648TP3     H116763   4.436   5.309   2.603  0.4503  0.0119  0.4726
 1648TP3     H216764   4.584   5.278   2.605  0.2758 -0.9363 -0.4500
 1649TP3      O16765   1.652   2.684   1.644  0.4917  0.5922 -0.0380
 1649TP3     H116766   1.690   2.761   1.601 -0.9510  1.0437 -0.5648
 1649TP3     H216767   1.570   2.716   1.682  0.3174 -0.4855  0.5402
 1650TP3      O16768   2.975   0.812   8.735  0.1896 -0.1129  0.7977
 1650TP3     H116769   2.941   0.809   8.645  1.3881  0.3183  0.3081
 1650TP3     H216770   2.901   0.842   8.788 -0.0030  1.5289 -0.3386
 1651TP3      O16771   2.874   3.228   0.364  0.6723 -0.1697 -0.0492
 1651TP3     H116772   2.866   3.160   0.431  2.6600 -1.0141 -0.5872
 1651TP3     H216773   2.800   3.287   0.380 -0.4954 -1.8605  1.1130
 1652TP3      O16774   3.939   1.173   8.011 -0.6647 -0.0323  0.2794
 1652TP3     H116775   3.983   1.104   7.961 -1.5758 -0.5977  0.2312
 1652TP3     H216776   3.881   1.126   8.071 -2.3103  0.6926 -0.6787
 1653TP3      O16777   3.261   3.160   3.414 -0.3152 -0.1639 -0.0670
 1653TP3     H116778   3.183   3.215   3.422 -0.5340 -0.6807  2.1972
 1653TP3     H216779   3.303   3.167   3.500  1.8188 -0.3853 -1.0368
 1654TP3      O16780   4.765   4.663   2.182  0.4874  0.2437 -0.1748
 1654TP3     H116781   4.741   4.742   2.132 -1.9617 -0.5809 -0.4649
 1654TP3     H216782   4.703   4.661   2.254  1.2522 -0.8464  0.4782
 1655TP3      O16783   1.803   2.513   2.971 -0.7449 -0.1521 -0.4411
 1655TP3     H116784   1.760   2.568   3.036 -0.2521 -0.5107  0.1954
 1655TP3     H216785   1.896   2.516   2.994 -0.2985  1.1500 -2.2091
 1656TP3      O16786   0.877   1.899   0.666 -0.3163 -0.2772 -0.3633
 1656TP3     H116787   0.905   1.821   0.714  1.1160  1.1957  1.3663
 1656TP3     H216788   0.799   1.929   0.712 -1.6915 -1.3596 -1.8612
 1657TP3      O16789   2.530   2.503   0.765 -0.3714 -0.0828  0.7897
 1657TP3     H116790   2.588   2.555   0.821 -0.5399 -0.9766  1.8403
 1657TP3     H216791   2.514   2.423   0.816  0.5731 -1.5479 -1.1256
 1658TP3      O16792   4.787   1.014   2.294 -0.0141  0.4512 -0.5197
 1658TP3     H116793   4.710   1.024   2.351  0.6912  0.4644  0.4566
 1658TP3     H216794   4.844   1.087   2.319  0.3161  0.4423 -1.2427
 1659TP3      O16795   0.147   2.529   1.520 -0.0698 -0.3277 -0.4022
 1659TP3     H116796   0.151   2.436   1.496 -1.7329 -0.1883 -1.3669
 1659TP3     H216797   0.096   2.569   1.450 -2.6260  0.6555  1.8801
 1660TP3      O16798   2.419   5.189   2.147 -0.1580 -0.1881 -0.2441
 1660TP3     H116799   2.378   5.265   2.106  0.7009  0.4539  0.0528
 1660TP3     H216800   2.346   5.136   2.178 -0.8042 -0.1426 -1.6047
 1661TP3      O16801   0.249   4.074   1.661 -0.1017 -0.3687 -0.3212
 1661TP3     H116802   0.219   4.116   1.581  1.6388  0.0531 -0.7933
 1661TP3     H216803   0.335   4.037   1.639  0.5690  0.0314  1.4166
 1662TP3      O16804   3.144   2.515   1.727 -0.1804 -0.1085 -0.3050
 1662TP3     H116805   3.169   2.468   1.807 -0.1985  0.5707  0.1083
 1662TP3     H216806   3.048   2.509   1.725 -0.3483  1.6091  0.8348
 1663TP3      O16807   4.596   4.688   8.369 -0.2226 -0.0567  0.0691
 1663TP3     H116808   4.560   4.685   8.280  1.1866  0.7585 -0.5738
 1663TP3     H216809   4.567   4.773   8.403 -0.9667 -0.4724  0.5023
 1664TP3      O16810   1.271   4.522   7.286  0.5563 -0.1852  0.7321
 1664TP3     H116811   1.227   4.605   7.267 -0.2102 -0.8331 -0.4291
 1664TP3     H216812   1.289   4.526   7.380  1.0822  1.5406  0.6032
 1665TP3      O16813   4.048   4.148   7.089 -0.2836  0.6400  0.2207
 1665TP3     H116814   4.059   4.105   7.174 -0.5766 -0.6352 -0.3691
 1665TP3     H216815   4.137   4.162   7.058 -0.1770 -1.0197 -0.2880
 1666TP3      O16816   5.109   3.593   3.611  0.0928  0.1324  0.4028
 1666TP3     H116817   5.193   3.607   3.656  0.5822  0.5180 -0.5998
 1666TP3     H216818   5.118   3.640   3.529 -2.4031  3.1466  1.6648
 1667TP3      O16819   2.211   2.559   8.102  0.2892  0.0487  0.2741
 1667TP3     H116820   2.291   2.507   8.093  0.1031 -0.1255 -0.5030
 1667TP3     H216821   2.144   2.495   8.125 -0.2811 -0.3904 -2.2866
 1668TP3      O16822   4.586   1.698   8.380 -0.6451 -0.6047 -0.0173
 1668TP3     H116823   4.623   1.748   8.307  0.6808 -3.0410 -1.1441
 1668TP3     H216824   4.565   1.763   8.446 -0.3219  1.5346 -1.9098
 1669TP3      O16825   1.610   4.761   6.510  0.4283  0.0690  0.3218
 1669TP3     H116826   1.598   4.845   6.465 -0.3405  0.5366  1.3692
 1669TP3     H216827   1.563   4.698   6.454 -0.9059  0.7176  0.6625
 1670TP3      O16828   3.125   4.027   7.412  0.2008 -0.2796  0.8200
 1670TP3     H116829   3.051   3.973   7.384 -0.5978  0.0997  2.0862
 1670TP3     H216830   3.202   3.985   7.374 -0.7685  0.3548 -2.1290
 1671TP3      O16831   1.785   1.749   0.736  0.7306  0.0023 -0.1862
 1671TP3     H116832   1.727   1.821   0.763  2.0803  0.7758  0.8025
 1671TP3     H216833   1.745   1.715   0.656 -0.4730  1.2263 -0.1551
 1672TP3      O16834   2.923   2.493   2.032 -0.0208 -0.1892 -0.1484
 1672TP3     H116835   2.926   2.483   2.127  1.7446 -0.3654 -0.2072
 1672TP3     H216836   2.896   2.407   1.999  0.5904 -0.4854  0.1244
 1673TP3      O16837   5.118   1.890   0.792  0.2615  0.1134 -0.0086
 1673TP3     H116838   5.145   1.849   0.710 -0.4188 -1.6094  0.5777
 1673TP3     H216839   5.158   1.836   0.860 -1.3756 -0.1612  0.8028
 1674TP3      O16840   3.740   4.103   7.697 -0.3956 -0.1814 -0.3202
 1674TP3     H116841   3.683   4.136   7.627  0.7487  1.7468 -0.3997
 1674TP3     H216842   3.681   4.093   7.772 -1.3622 -0.9516 -1.1405
 1675TP3      O16843   1.784   3.345   2.526  0.1796 -0.2144 -0.4804
 1675TP3     H116844   1.865   3.310   2.489  0.5653 -1.3623  1.3195
 1675TP3     H216845   1.753   3.408   2.461  1.1305 -1.6336 -2.4152
 1676TP3      O16846   3.950   5.027   7.764  0.0962  0.4660  0.2730
 1676TP3     H116847   3.881   4.994   7.821  0.0138  1.8914  1.0617
 1676TP3     H216848   3.953   5.121   7.783  2.3634  0.4198  0.3836
 1677TP3      O16849   0.806   3.190   1.970 -0.0265 -0.1507  0.0703
 1677TP3     H116850   0.798   3.272   1.920  0.4611  1.4810  2.4714
 1677TP3     H216851   0.719   3.152   1.966 -0.0401 -0.0275 -1.8488
 1678TP3      O16852   0.035   1.965   2.216 -0.4741  0.5537 -0.1412
 1678TP3     H116853   0.012   1.967   2.123  0.9825  0.2003 -0.5266
 1678TP3     H216854   0.067   2.054   2.234  0.8814  0.1454 -0.4335
 1679TP3      O16855   4.138   3.750   8.661 -0.3919 -0.1748 -0.3870
 1679TP3     H116856   4.054   3.734   8.618  0.2871  0.4621 -2.0298
 1679TP3     H216857   4.127   3.715   8.749 -2.4157  0.0041 -0.5284
 1680TP3      O16858   4.418   2.508   0.109 -0.6462  0.0693  0.5143
 1680TP3     H116859   4.385   2.565   0.040  0.9969 -0.6075 -0.8975
 1680TP3     H216860   4.340   2.462   0.142 -1.6074  1.1979 -0.1121
 1681TP3      O16861   1.059   1.352   8.938  0.0030  0.1286 -0.2469
 1681TP3     H116862   1.027   1.308   9.017  0.2150  0.7802  0.2021
 1681TP3     H216863   0.980   1.380   8.892 -0.1583 -0.9991 -0.7208
 1682TP3      O16864   0.459   4.125   0.539 -0.0977  0.2206 -0.4234
 1682TP3     H116865   0.399   4.062   0.579 -0.5091  0.4668 -0.6438
 1682TP3     H216866   0.441   4.119   0.445  0.9968 -0.4928 -0.6152
 1683TP3      O16867   2.832   4.623   6.672 -0.1436 -0.2045  0.3145
 1683TP3     H116868   2.841   4.712   6.707  0.0448 -0.1126  0.0384
 1683TP3     H216869   2.750   4.625   6.623 -0.1638 -0.1978  0.3484
 1684TP3      O16870   3.099   1.586   8.923 -0.2929 -1.0603  0.5110
 1684TP3     H116871   3.118   1.492   8.928  1.1358 -0.7506  1.2936
 1684TP3     H216872   3.013   1.590   8.881  0.3363 -2.6411 -1.0713
 1685TP3      O16873   0.909   0.638   1.213 -0.1203  0.0370  0.2758
 1685TP3     H116874   0.904   0.547   1.184  0.0062 -0.1109  0.7023
 1685TP3     H216875   0.845   0.644   1.284  0.4817  0.0470  0.8294
 1686TP3      O16876   2.474   2.334   0.985  0.6732  0.5424 -0.3679
 1686TP3     H116877   2.525   2.358   1.063  1.4490  0.3242 -0.8055
 1686TP3     H216878   2.452   2.242   0.998 -0.3123  0.8381  0.1984
 1687TP3      O16879   4.051   3.723   9.301  0.2639  0.0871  0.5765
 1687TP3     H116880   4.077   3.807   9.263  0.4216 -0.3626 -0.3231
 1687TP3     H216881   4.104   3.716   9.381  1.0002  0.3740  0.1228
 1688TP3      O16882   3.436   5.196   9.047  0.4685 -0.0645 -0.5533
 1688TP3     H116883   3.492   5.171   9.121  1.2672  0.8583 -0.8207
 1688TP3     H216884   3.487   5.173   8.969 -0.2929 -0.8676 -0.8314
 1689TP3      O16885   4.456   4.849   8.898  0.4507  0.0659 -0.0038
 1689TP3     H116886   4.479   4.882   8.985 -0.0071  1.2317 -0.3058
 1689TP3     H216887   4.517   4.893   8.838  0.0299  0.1315 -0.3910
 1690TP3      O16888   4.918   3.994   2.297 -0.8394  0.0329 -0.0682
 1690TP3     H116889   4.999   3.954   2.266 -1.0704 -0.2217 -0.3470
 1690TP3     H216890   4.878   4.031   2.219 -0.8416  0.4340  0.1196
 1691TP3      O16891   1.000   1.626   3.704  0.0216 -0.0896  0.0253
 1691TP3     H116892   0.981   1.556   3.767 -0.0070  0.2225  0.3669
 1691TP3     H216893   1.075   1.594   3.654  0.7687  0.1332  0.9775
 1692TP3      O16894   3.768   1.636   2.334 -0.5499 -0.1092 -0.6435
 1692TP3     H116895   3.779   1.688   2.413 -1.8391  1.6238 -1.5332
 1692TP3     H216896   3.764   1.701   2.263 -1.0385 -1.4978 -1.9480
 1693TP3      O16897   2.421   0.579   3.239 -0.3409 -0.5194  0.0281
 1693TP3     H116898   2.485   0.583   3.310 -0.5484  0.3417  0.1862
 1693TP3     H216899   2.337   0.600   3.280 -0.4196  0.2820 -0.5042
 1694TP3      O16900   0.623   0.565   9.136  0.5365  0.3986  0.0077
 1694TP3     H116901   0.548   0.519   9.174  1.4822 -1.1958  0.0519
 1694TP3     H216902   0.597   0.584   9.046  0.5968 -1.5556 -0.4804
 1695TP3      O16903   0.239   1.505   9.706 -0.4268 -0.6243  0.3957
 1695TP3     H116904   0.150   1.530   9.682 -0.3253 -0.7058 -0.0857
 1695TP3     H216905   0.274   1.581   9.753  1.2470  1.9838 -4.3934
 1696TP3      O16906   0.466   3.160   1.765 -0.3553 -0.6317 -0.1480
 1696TP3     H116907   0.421   3.076   1.778  1.2916 -1.5300 -0.0150
 1696TP3     H216908   0.493   3.160   1.674 -1.1298  0.1885 -0.3972
 1697TP3      O16909   4.897   2.962   0.139  0.0222 -0.5191  0.1001
 1697TP3     H116910   4.934   2.997   0.220  1.1092 -0.0464 -0.5795
 1697TP3     H216911   4.816   2.918   0.167 -1.0895  1.9523  1.0990
 1698TP3      O16912   2.617   4.402   0.290  0.2044  0.2256 -0.2393
 1698TP3     H116913   2.713   4.401   0.292  0.1981 -0.4230  0.2139
 1698TP3     H216914   2.595   4.406   0.197  0.6862 -0.7350 -0.4147
 1699TP3      O16915   3.448   1.004   0.459  0.0184  0.2262 -0.5719
 1699TP3     H116916   3.374   0.977   0.513 -0.4309  0.0872 -1.2426
 1699TP3     H216917   3.523   0.956   0.494  0.1693  1.6636  1.2233
 1700TP3      O16918   3.837   2.390   3.812 -0.1942 -0.6722 -0.1902
 1700TP3     H116919   3.886   2.341   3.746  0.2042 -0.3848 -0.1135
 1700TP3     H216920   3.824   2.328   3.884  0.7197 -0.5262  0.1050
 1701TP3      O16921   4.561   2.956   2.560 -0.0576  0.3530 -0.5138
 1701TP3     H116922   4.469   2.977   2.544 -0.7894 -0.0429  2.5404
 1701TP3     H216923   4.608   3.037   2.538 -1.4738  1.4717  0.4033
 1702TP3      O16924   1.466   1.450   0.739 -0.4891  0.1458  0.0722
 1702TP3     H116925   1.404   1.453   0.812  1.0081  1.9372  1.3565
 1702TP3     H216926   1.517   1.371   0.755 -0.7657  0.0363  0.4520
 1703TP3      O16927   4.714   1.681   9.110  0.2626  0.1228 -0.0369
 1703TP3     H116928   4.743   1.769   9.136  0.2128  0.1618 -0.1115
 1703TP3     H216929   4.761   1.622   9.169  0.8832  0.1583 -0.4818
 1704TP3      O16930   1.488   5.066   1.740 -0.1917  0.1948  0.2692
 1704TP3     H116931   1.408   5.067   1.794  0.0056  0.1497  0.5673
 1704TP3     H216932   1.507   4.973   1.727 -0.4289  0.2034 -0.1711
 1705TP3      O16933   2.513   3.981   0.403  0.2443  0.2737  0.1067
 1705TP3     H116934   2.467   3.947   0.479 -0.6970  0.5788 -0.3103
 1705TP3     H216935   2.566   4.053   0.438 -1.4240  1.5027  0.2610
 1706TP3      O16936   4.482   2.034   0.230  0.0988 -0.1312 -0.0055
 1706TP3     H116937   4.501   2.054   0.321  2.3789  0.5453 -0.5628
 1706TP3     H216938   4.398   2.076   0.213 -0.8540 -1.1086  2.0129
 1707TP3      O16939   0.070   0.339   7.049 -0.1417  0.2827  0.3634
 1707TP3     H116940   0.152   0.294   7.068 -0.6391 -1.1781 -0.7581
 1707TP3     H216941   0.096   0.424   7.012  0.8653 -0.1858 -0.0280
 1708TP3      O16942   3.391   0.518   7.765 -0.3009  1.1975  0.5570
 1708TP3     H116943   3.314   0.570   7.788 -0.9811 -0.0799  1.2909
 1708TP3     H216944   3.412   0.471   7.846 -0.0916 -0.1218 -0.2529
 1709TP3      O16945   0.786   0.386   8.650 -0.6222  0.2746  0.2995
 1709TP3     H116946   0.785   0.316   8.585 -1.2524  0.4722  0.0912
 1709TP3     H216947   0.735   0.351   8.723  0.3984 -0.0944  0.8531
 1710TP3      O16948   0.161   4.266   1.373 -0.1300  0.1357  0.5490
 1710TP3     H116949   0.127   4.354   1.389 -3.5739 -0.9972  0.0779
 1710TP3     H216950   0.235   4.280   1.313  1.6219  2.8834  3.0229
 1711TP3      O16951   4.173   3.165   0.176  0.8903 -0.4042  0.0417
 1711TP3     H116952   4.160   3.077   0.212  1.9534  0.1047  1.7804
 1711TP3     H216953   4.185   3.151   0.082 -1.3257 -1.8640 -0.0900
 1712TP3      O16954   2.180   0.482   2.158 -0.0077 -0.3496  0.4537
 1712TP3     H116955   2.240   0.454   2.227  1.1161  1.4316  0.2692
 1712TP3     H216956   2.237   0.510   2.087 -1.0845  0.0894 -0.2610
 1713TP3      O16957   3.748   0.295   8.662 -0.1427  0.4128  0.3413
 1713TP3     H116958   3.813   0.347   8.711  0.4346 -0.2010  0.2317
 1713TP3     H216959   3.665   0.313   8.707  0.2121  0.6789  0.9019
 1714TP3      O16960   2.895   0.136   8.781 -0.4064  0.1070  0.3655
 1714TP3     H116961   2.840   0.059   8.798  0.1856 -1.0609 -2.4764
 1714TP3     H216962   2.935   0.118   8.696  1.5806  2.5537  0.6891
 1715TP3      O16963   3.160   2.186   1.869  0.1582  0.2235  0.8523
 1715TP3     H116964   3.074   2.178   1.911 -0.7370 -1.7941 -1.1305
 1715TP3     H216965   3.140   2.201   1.776  2.0075  1.3352  0.5781
 1716TP3      O16966   5.147   0.738   1.889  0.6935  0.3757 -0.0062
 1716TP3     H116967   5.066   0.702   1.924  0.2637  0.4490 -0.8943
 1716TP3     H216968   5.183   0.669   1.833 -0.2686  1.3237 -1.9252
 1717TP3      O16969   4.415   0.617  10.043 -0.0064 -0.6536 -0.1698
 1717TP3     H116970   4.447   0.528  10.053 -1.0189 -1.2894 -2.0518
 1717TP3     H216971   4.320   0.610  10.054  0.0144  0.4338  0.9369
 1718TP3      O16972   0.371   2.930   2.750  0.3854  0.4312  0.0362
 1718TP3     H116973   0.345   3.006   2.802  0.0228  1.3082 -1.3815
 1718TP3     H216974   0.372   2.858   2.813 -2.5952  0.9026  0.8150
 1719TP3      O16975   1.083   4.508   7.738 -0.0309  0.3325  0.2381
 1719TP3     H116976   1.068   4.576   7.803 -2.3602  0.6895 -0.5684
 1719TP3     H216977   1.079   4.426   7.787  1.7716  0.6876  1.0517
 1720TP3      O16978   5.030   1.899   0.414 -0.2672 -0.2088  0.2478
 1720TP3     H116979   5.120   1.878   0.389 -0.3241 -0.0065 -0.1232
 1720TP3     H216980   5.008   1.977   0.363 -0.5900 -0.1500  0.4751
 1721TP3      O16981   3.157   1.040   2.658 -0.9370  0.3794  0.3565
 1721TP3     H116982   3.133   1.122   2.617 -0.1285  0.6992  0.4926
 1721TP3     H216983   3.191   1.065   2.744 -1.0153 -0.1246  0.5398
 1722TP3      O16984   0.455   0.377   0.355  0.0137  0.2440  0.0478
 1722TP3     H116985   0.446   0.287   0.387 -1.5805 -0.2729 -1.6962
 1722TP3     H216986   0.371   0.417   0.376  0.7187  1.3559  0.8139
 1723TP3      O16987   0.536   0.566   6.699  0.0849  0.0342  0.1722
 1723TP3     H116988   0.532   0.657   6.672 -1.2925  0.0675  0.4136
 1723TP3     H216989   0.467   0.558   6.765 -1.9460 -1.8663 -2.0061
 1724TP3      O16990   0.033   3.950   1.782 -0.9259 -0.5812 -0.1778
 1724TP3     H116991   0.110   3.917   1.827 -0.3979 -0.9668 -1.3285
 1724TP3     H216992   0.068   4.002   1.710 -1.7019  2.7405  1.6425
 1725TP3      O16993   0.332   1.113   9.943 -0.5558 -0.6473  0.2091
 1725TP3     H116994   0.318   1.079  10.032 -0.6351 -1.4735 -0.1138
 1725TP3     H216995   0.326   1.036   9.887  0.6981 -0.3088 -0.4078
 1726TP3      O16996   4.645   3.503   6.984 -0.3255  0.3240 -0.1674
 1726TP3     H116997   4.571   3.548   6.944 -0.0735 -0.9413 -2.1928
 1726TP3     H216998   4.722   3.539   6.939 -0.0423 -1.1991 -0.9749
 1727TP3      O16999   4.395   2.712   0.342  0.1209 -0.4226 -0.0010
 1727TP3     H117000   4.410   2.654   0.268 -1.0027 -1.6227  0.6635
 1727TP3     H217001   4.422   2.661   0.419 -1.4163 -0.3155  0.6488
 1728TP3      O17002   1.416   4.170   8.653 -0.2463 -0.1549  0.3931
 1728TP3     H117003   1.370   4.089   8.674  0.6755 -0.7055  0.3013
 1728TP3     H217004   1.495   4.167   8.707 -0.8432  1.3304  1.4297
 1729TP3      O17005   2.784   0.256   0.539  0.5550 -0.1267 -0.1608
 1729TP3     H117006   2.839   0.297   0.606 -0.4016  0.8501  0.0697
 1729TP3     H217007   2.813   0.295   0.457 -0.0002  0.6504 -0.0009
 1730TP3      O17008   3.913   2.926  10.008 -0.1816 -0.7500 -0.2005
 1730TP3     H117009   3.839   2.956   9.955 -1.0169 -0.7311  0.9418
 1730TP3     H217010   3.925   2.995  10.074  0.8847 -0.7370 -0.4003
 1731TP3      O17011   3.158   0.140   9.472 -0.3207  0.0044  0.0588
 1731TP3     H117012   3.182   0.047   9.469  1.7904  0.5049  0.0809
 1731TP3     H217013   3.101   0.152   9.396 -0.9870 -1.3765  0.2934
 1732TP3      O17014   1.125   2.571   7.847  0.2347 -1.1847 -0.5396
 1732TP3     H117015   1.066   2.646   7.854 -0.3360 -1.7797  1.7946
 1732TP3     H217016   1.193   2.587   7.912  0.2010 -2.5781 -0.1322
 1733TP3      O17017   1.977   1.975   0.191 -0.4988  0.3107  0.1526
 1733TP3     H117018   1.914   1.950   0.259  0.4680  1.1196  1.3962
 1733TP3     H217019   1.978   2.071   0.194  1.3056  0.3135  0.6846
 1734TP3      O17020   2.083   0.703   1.346  0.2893  0.3180  0.0788
 1734TP3     H117021   2.131   0.620   1.337 -0.9998 -0.5826  1.0216
 1734TP3     H217022   2.008   0.693   1.288  0.3023  0.9812 -0.0566
 1735TP3      O17023   1.760   2.549   8.345 -0.0830 -0.3846 -0.0954
 1735TP3     H117024   1.780   2.556   8.252  0.8961  1.3611  0.1968
 1735TP3     H217025   1.694   2.616   8.361 -0.1654 -0.5964  0.4959
 1736TP3      O17026   3.977   2.032   0.355 -0.0217 -0.3135 -0.1961
 1736TP3     H117027   3.975   1.938   0.338  1.0453 -0.2904 -0.4825
 1736TP3     H217028   3.971   2.039   0.450 -0.2622 -0.6605 -0.1837
 1737TP3      O17029   1.543   0.045   0.727  0.2679  0.2199  0.5364
 1737TP3     H117030   1.632   0.040   0.762  0.7217  0.3983 -0.5445
 1737TP3     H217031   1.489   0.074   0.801  1.1273  0.2016  1.1754
 1738TP3      O17032   3.685   1.813   0.707 -0.4209  0.2427  0.0355
 1738TP3     H117033   3.635   1.806   0.788  0.8891 -0.6912  0.7885
 1738TP3     H217034   3.639   1.881   0.657 -0.6351  1.6108  1.9836
 1739TP3      O17035   4.599   1.761   1.162 -0.1238 -0.1439  0.1567
 1739TP3     H117036   4.591   1.831   1.098 -0.0358  1.5970  1.9587
 1739TP3     H217037   4.509   1.742   1.189 -0.1843 -1.0794 -0.6646
 1740TP3      O17038   1.570   4.528   9.750 -0.2350  0.0020 -0.0291
 1740TP3     H117039   1.633   4.564   9.687 -0.9140  0.0450 -0.7025
 1740TP3     H217040   1.567   4.435   9.731  0.8176 -0.2757  1.0849
 1741TP3      O17041   0.083   2.822   0.452 -0.2015 -0.5146  0.2619
 1741TP3     H117042   0.006   2.843   0.400 -0.5051 -1.8625  0.1323
 1741TP3     H217043   0.066   2.734   0.486  1.2862 -0.8554  0.1909
 1742TP3      O17044   4.061   4.338   0.445 -0.3550 -0.1643 -0.4626
 1742TP3     H117045   3.984   4.284   0.425  0.4323 -1.5519  0.1236
 1742TP3     H217046   4.128   4.275   0.473  0.1657  1.2317  1.6447
 1743TP3      O17047   1.465   2.124   8.786  0.2421  0.2008  0.3959
 1743TP3     H117048   1.467   2.113   8.881  3.1400 -0.0326  0.3704
 1743TP3     H217049   1.537   2.183   8.766 -0.0018 -0.1261 -1.6957
 1744TP3      O17050   4.636   2.516   7.852  0.5771  0.5528  0.0329
 1744TP3     H117051   4.577   2.587   7.828 -0.1884  0.8521  2.5506
 1744TP3     H217052   4.578   2.445   7.879  1.3688 -0.2949 -0.4323
 1745TP3      O17053   3.616   4.592   0.054 -0.2532  0.3861 -0.0630
 1745TP3     H117054   3.653   4.618  -0.031  1.0064 -2.3477 -0.4711
 1745TP3     H217055   3.685   4.612   0.117  0.2860 -0.8597 -0.2312
 1746TP3      O17056   2.128   1.578   7.680  0.0526  0.3180  0.4062
 1746TP3     H117057   2.076   1.564   7.600 -0.1312 -0.5382  0.6636
 1746TP3     H217058   2.077   1.642   7.730 -0.6523 -0.3482  0.5560
 1747TP3      O17059   4.147   4.785   3.420 -0.4850 -0.2472  0.1036
 1747TP3     H117060   4.222   4.772   3.478 -0.2814 -3.0749 -0.6560
 1747TP3     H217061   4.071   4.784   3.479 -0.1927 -1.8167  0.4968
 1748TP3      O17062   1.036   5.176   8.103  0.2379 -0.6881 -0.0475
 1748TP3     H117063   0.986   5.241   8.054  0.2801 -1.3589 -1.0125
 1748TP3     H217064   1.110   5.154   8.046  2.6373  1.4246  1.9565
 1749TP3      O17065   2.135   4.328   8.049 -0.5871 -0.2636  0.5438
 1749TP3     H117066   2.109   4.315   8.140 -2.6258 -1.4702 -0.1594
 1749TP3     H217067   2.136   4.240   8.011  1.0899  0.1256 -0.4157
 1750TP3      O17068   0.687   2.516   9.623  0.0001 -0.0347  0.3743
 1750TP3     H117069   0.738   2.435   9.619  1.2501  0.7477 -0.2396
 1750TP3     H217070   0.621   2.507   9.555  0.2962 -0.4320  0.1403
 1751TP3      O17071   2.586   1.054   8.082  0.2997  0.0953 -0.2245
 1751TP3     H117072   2.603   1.099   7.999 -1.3114 -0.2166 -0.7549
 1751TP3     H217073   2.625   0.968   8.071  2.1581  0.8304  0.2637
 1752TP3      O17074   2.066   4.367   1.538  0.2853 -0.9688 -0.0321
 1752TP3     H117075   2.007   4.319   1.480 -2.6326  1.2565  0.8674
 1752TP3     H217076   2.086   4.448   1.491 -0.6369  0.0467  1.2624
 1753TP3      O17077   2.270   2.762   0.197  0.1605  0.5871  0.4094
 1753TP3     H117078   2.240   2.795   0.112 -0.2634 -2.8019 -0.8755
 1753TP3     H217079   2.190   2.741   0.245  0.3208 -2.0942 -0.3622
 1754TP3      O17080   4.160   2.677   6.879  0.4582 -0.2781  0.1523
 1754TP3     H117081   4.246   2.659   6.841  1.1147 -1.2740  2.0350
 1754TP3     H217082   4.163   2.771   6.899  0.9658 -0.2270 -0.1321
 1755TP3      O17083   4.494   3.105   2.889 -0.3051 -0.5966 -0.5564
 1755TP3     H117084   4.402   3.110   2.863 -0.8518 -1.8766  0.9583
 1755TP3     H217085   4.498   3.030   2.948  1.5355  0.0064  0.1582
 1756TP3      O17086   1.401   0.307   8.939 -0.4019 -0.0121 -0.2384
 1756TP3     H117087   1.393   0.387   8.990 -0.0501 -0.9273  1.2999
 1756TP3     H217088   1.311   0.278   8.925 -0.5563  0.8446 -1.1809
 1757TP3      O17089   5.110   2.183   8.087 -0.3947  0.3578 -0.0649
 1757TP3     H117090   5.125   2.269   8.047  1.1813  0.6183  0.9963
 1757TP3     H217091   5.174   2.125   8.045 -0.7510 -0.0602 -0.0400
 1758TP3      O17092   0.164   0.933   7.894  0.0271  0.2277  0.1227
 1758TP3     H117093   0.198   0.975   7.815 -0.9298  1.0770  0.1463
 1758TP3     H217094   0.141   1.006   7.952 -0.7737 -0.3432  0.5465
 1759TP3      O17095   5.017   2.419   7.477  0.2831  0.6560 -0.2582
 1759TP3     H117096   5.018   2.453   7.388  2.1852 -0.6118 -0.7825
 1759TP3     H217097   4.924   2.410   7.499 -0.2561  3.2510 -1.1661
 1760TP3      O17098   1.891   3.036   1.045 -0.6747  0.0531  0.4006
 1760TP3     H117099   1.922   3.049   0.956 -1.9170  0.6538  0.0240
 1760TP3     H217100   1.956   3.079   1.101 -0.0806 -0.0100 -0.2434
 1761TP3      O17101   1.776   3.454   7.738 -0.4093  0.5504  0.2343
 1761TP3     H117102   1.750   3.427   7.826  1.4752  2.6183  1.5487
 1761TP3     H217103   1.695   3.482   7.695 -1.0837  1.8911  2.2509
 1762TP3      O17104   1.933   0.503   9.291  0.3585  0.2250 -0.1735
 1762TP3     H117105   2.019   0.499   9.249 -0.2995  1.0420 -1.6910
 1762TP3     H217106   1.912   0.596   9.296 -0.9623  0.0074 -1.0200
 1763TP3      O17107   2.410   4.962   1.912 -0.0539 -0.3301  0.0179
 1763TP3     H117108   2.315   4.956   1.907 -0.1356  0.8087 -0.1358
 1763TP3     H217109   2.429   5.055   1.898  1.0572 -0.4719  0.4694
 1764TP3      O17110   0.129   2.362   8.244  0.5874 -0.0099 -0.1740
 1764TP3     H117111   0.117   2.276   8.282  2.8680  0.8743  3.0197
 1764TP3     H217112   0.224   2.374   8.241  0.3678  2.0438 -1.3652
 1765TP3      O17113   1.190   1.791   1.735 -0.2410 -0.0385  0.4171
 1765TP3     H117114   1.267   1.847   1.719 -0.7280  0.4745 -0.1562
 1765TP3     H217115   1.225   1.702   1.735  0.9371  0.2776  3.4015
 1766TP3      O17116   2.928   4.573   7.416 -0.6227 -0.1007  0.1612
 1766TP3     H117117   2.958   4.484   7.396  0.5650  0.4609 -0.7186
 1766TP3     H217118   2.943   4.622   7.335  0.1156  1.2466  1.0721
 1767TP3      O17119   4.615   4.445   9.451 -0.7025  0.0386 -0.7232
 1767TP3     H117120   4.538   4.480   9.496  0.1768 -0.3288  1.1366
 1767TP3     H217121   4.686   4.503   9.475  0.2131 -1.3732  0.1375
 1768TP3      O17122   2.168   1.174   3.454  0.0753  0.4065 -0.5250
 1768TP3     H117123   2.093   1.124   3.483 -0.0786 -0.2858 -2.0273
 1768TP3     H217124   2.173   1.248   3.515 -1.7385  0.3989 -0.3153
 1769TP3      O17125   4.419   3.627   6.696  0.5138 -0.0561 -0.2894
 1769TP3     H117126   4.399   3.601   6.786  1.1230  0.7972  0.1047
 1769TP3     H217127   4.335   3.654   6.659 -0.0441 -1.9823 -0.5363
 1770TP3      O17128   3.000   4.655   0.031  0.3406 -0.4589 -0.6315
 1770TP3     H117129   3.072   4.627   0.088 -0.1634  0.7143  0.6349
 1770TP3     H217130   2.969   4.737   0.070 -1.1253 -0.4938 -1.6422
 1771TP3      O17131   1.880   4.921   8.702  0.6106  0.3160  0.5752
 1771TP3     H117132   1.824   4.980   8.651  0.8089  0.9342  1.0678
 1771TP3     H217133   1.837   4.836   8.694 -0.0621  0.6569  0.4339
 1772TP3      O17134   1.420   3.321   8.834 -0.3838 -0.2459  0.3677
 1772TP3     H117135   1.402   3.309   8.741 -1.0947 -2.1025  0.6972
 1772TP3     H217136   1.515   3.323   8.840 -0.3135 -1.2088 -0.2874
 1773TP3      O17137   4.994   4.573   7.547 -0.4406  0.2404 -0.3371
 1773TP3     H117138   5.063   4.561   7.612  0.6707 -1.5058 -1.7583
 1773TP3     H217139   5.029   4.640   7.488 -1.6263  2.1423  0.9823
 1774TP3      O17140   2.730   2.314   0.110 -0.4319  0.4636 -0.1390
 1774TP3     H117141   2.817   2.331   0.073 -0.9429  0.6280 -1.2908
 1774TP3     H217142   2.686   2.399   0.107 -1.0571  0.1291 -0.7279
 1775TP3      O17143   1.577   5.125   0.349  0.2954 -0.2589  0.1803
 1775TP3     H117144   1.586   5.043   0.301  1.8215  0.6528 -1.1932
 1775TP3     H217145   1.491   5.159   0.323  0.4743 -0.5013 -0.7562
 1776TP3      O17146   3.897   2.442   3.070  0.0612  0.6507  0.2871
 1776TP3     H117147   3.870   2.529   3.043 -1.4945  0.1461  0.1493
 1776TP3     H217148   3.839   2.420   3.143  0.6399 -0.1571  0.5209
 1777TP3      O17149   1.096   0.687   9.825  0.1542  0.3542 -0.1316
 1777TP3     H117150   1.003   0.677   9.847  0.0960  0.3680 -0.3655
 1777TP3     H217151   1.097   0.751   9.754  0.4191  0.9974  0.4486
 1778TP3      O17152   4.745   2.054   7.958 -0.2712 -0.4025 -0.5062
 1778TP3     H117153   4.831   2.073   7.919  0.0616  0.2860  0.5314
 1778TP3     H217154   4.687   2.045   7.883  0.2848  1.1795 -1.1779
 1779TP3      O17155   4.183   1.755   1.065 -0.0150  0.1187 -0.6207
 1779TP3     H117156   4.198   1.678   1.009 -1.0830 -0.6757  0.1466
 1779TP3     H217157   4.226   1.732   1.148 -0.4059  0.3214 -0.3631
 1780TP3      O17158   5.150   3.121   0.275 -0.5303 -0.0942  0.2466
 1780TP3     H117159   5.070   3.123   0.327 -0.3438  0.8225  0.5294
 1780TP3     H217160   5.211   3.176   0.324  0.4441 -1.1945  0.3022
 1781TP3      O17161   4.006   2.161   8.296 -0.0927  0.0777  0.0890
 1781TP3     H117162   3.987   2.121   8.381 -0.2236  0.3103  0.1699
 1781TP3     H217163   3.952   2.112   8.234 -0.2285  0.1056  0.1838
 1782TP3      O17164   0.611   1.529   7.363  0.0202  0.2402 -0.2149
 1782TP3     H117165   0.591   1.577   7.443 -0.8152  0.0252 -0.2818
 1782TP3     H217166   0.591   1.591   7.293 -0.4054  0.0281 -0.2836
 1783TP3      O17167   0.286   4.909   8.829 -0.1763  0.3511  0.0169
 1783TP3     H117168   0.222   4.886   8.761 -0.8566  0.0673  0.7405
 1783TP3     H217169   0.366   4.929   8.781 -0.4949 -0.3845 -0.8312
 1784TP3      O17170   4.270   3.658   0.384 -0.2329 -0.1268 -0.5970
 1784TP3     H117171   4.339   3.602   0.420 -0.4916 -0.3193 -0.3900
 1784TP3     H217172   4.304   3.688   0.300  0.2369  0.0470 -0.3465
 1785TP3      O17173   1.211   2.648   1.166  0.1573 -0.3047  0.0050
 1785TP3     H117174   1.167   2.601   1.237  0.0459  0.7360  0.6402
 1785TP3     H217175   1.156   2.632   1.090 -0.2360 -0.6495  0.3542
 1786TP3      O17176   2.019   2.544   6.988 -0.3972 -0.3172 -0.3282
 1786TP3     H117177   2.040   2.453   6.970 -2.2033 -0.6247 -0.9887
 1786TP3     H217178   2.079   2.594   6.932 -1.2501 -1.1552 -2.0631
 1787TP3      O17179   2.317   3.144   1.326  1.4441 -0.0343 -0.6755
 1787TP3     H117180   2.352   3.104   1.246 -0.0374  0.9818 -1.8949
 1787TP3     H217181   2.362   3.229   1.331  0.0190  0.8344 -1.6838
 1788TP3      O17182   2.722   2.125   0.281  0.5799  0.1923  0.6600
 1788TP3     H117183   2.716   2.181   0.358  0.7062 -0.5053  1.1919
 1788TP3     H217184   2.757   2.182   0.212 -0.5159  1.0917  0.8215
 1789TP3      O17185   3.746   3.686   6.575  0.4402  0.6014  0.0006
 1789TP3     H117186   3.742   3.599   6.614  0.3227  0.8377  0.5273
 1789TP3     H217187   3.654   3.707   6.555  0.4569  0.6447 -0.0303
 1790TP3      O17188   1.542   2.414   9.507  0.0023  0.2763  0.0973
 1790TP3     H117189   1.501   2.354   9.569 -1.1337  0.5602 -0.3531
 1790TP3     H217190   1.473   2.477   9.485  1.0890  1.6111  0.3727
 1791TP3      O17191   4.319   1.626   1.310  0.7241 -0.0782  0.3616
 1791TP3     H117192   4.306   1.550   1.254  0.1008  0.7197 -0.6244
 1791TP3     H217193   4.347   1.590   1.394  1.1807 -1.3383 -0.3062
 1792TP3      O17194   3.097   2.661   2.528  0.3124  0.0089 -0.3279
 1792TP3     H117195   3.160   2.636   2.595 -0.0638 -1.4405 -0.4804
 1792TP3     H217196   3.011   2.650   2.570  0.1202  1.2434 -0.3581
 1793TP3      O17197   3.198   4.866   9.896  0.5579  0.1265  0.5785
 1793TP3     H117198   3.228   4.931   9.959  1.4187 -0.2526  0.5634
 1793TP3     H217199   3.156   4.798   9.949  0.3243  0.3248  0.6511
 1794TP3      O17200   4.256   5.195   2.305 -0.0121 -0.6545  0.0984
 1794TP3     H117201   4.313   5.118   2.307  0.2329 -0.5739 -1.9054
 1794TP3     H217202   4.169   5.161   2.286  0.2324 -0.4212 -1.5955
 1795TP3      O17203   3.262   5.167   9.342 -0.3528  0.2447  0.0517
 1795TP3     H117204   3.356   5.150   9.344 -0.6305 -1.5189 -0.7534
 1795TP3     H217205   3.232   5.128   9.260 -2.0228 -0.5048  0.9771
 1796TP3      O17206   1.321   5.043   8.714 -0.4571  0.2734  0.3195
 1796TP3     H117207   1.386   5.110   8.736 -0.0711  0.1853 -0.5161
 1796TP3     H217208   1.371   4.975   8.669 -1.3058  0.8274 -1.5737
 1797TP3      O17209   3.526   4.862   7.586  0.0544 -0.7010  0.3356
 1797TP3     H117210   3.585   4.822   7.522 -0.5642 -1.3575  0.1629
 1797TP3     H217211   3.508   4.949   7.550  1.4599 -0.2067  0.7512
 1798TP3      O17212   0.085   1.441   1.421  0.2985  0.9975  0.3678
 1798TP3     H117213   0.141   1.375   1.462 -0.7442  0.9607  1.8054
 1798TP3     H217214   0.140   1.481   1.353  1.8523  0.5600  1.3296
 1799TP3      O17215   4.417   2.092   7.512  0.0465 -0.2918 -0.4772
 1799TP3     H117216   4.342   2.107   7.454 -0.4004 -0.6560 -0.0049
 1799TP3     H217217   4.481   2.046   7.458 -0.7156 -1.4218 -0.4630
 1800TP3      O17218   0.942   3.024   9.216  0.4251  0.1400 -0.2784
 1800TP3     H117219   0.859   3.061   9.184  0.4258  1.4066  1.0883
 1800TP3     H217220   1.008   3.058   9.156  0.2637  1.3452  0.2059
 1801TP3      O17221   0.857   2.711   3.045 -0.1816 -0.3212 -0.5394
 1801TP3     H117222   0.775   2.689   3.091  0.4233 -0.8509  0.3230
 1801TP3     H217223   0.858   2.653   2.969  0.3545 -1.8231  0.5525
 1802TP3      O17224   5.198   4.816   8.181  0.4862  0.1504 -0.3292
 1802TP3     H117225   5.179   4.844   8.091 -1.5025  0.6786  0.2069
 1802TP3     H217226   5.160   4.728   8.187 -1.1714  0.8709  0.5082
 1803TP3      O17227   4.073   0.701   8.130 -0.3357 -0.1772  0.3417
 1803TP3     H117228   4.029   0.653   8.200 -0.2976 -0.3659  0.2359
 1803TP3     H217229   4.136   0.638   8.093  0.0488  0.0987  0.5147
 1804TP3      O17230   2.112   2.733   9.531 -0.1444 -0.0654 -1.0487
 1804TP3     H117231   2.123   2.647   9.492  0.3077 -1.0357  1.0790
 1804TP3     H217232   2.086   2.716   9.621  0.7731  2.0028 -0.3147
 1805TP3      O17233   2.204   5.189   6.968 -0.6547  0.0477 -0.0551
 1805TP3     H117234   2.120   5.147   6.949  0.7423 -2.4687 -1.2966
 1805TP3     H217235   2.268   5.137   6.919  1.8270  0.9184  2.0108
 1806TP3      O17236   3.707   4.067   2.213  0.0549 -0.1913  0.5445
 1806TP3     H117237   3.678   4.104   2.129  1.0839  0.7568  0.5896
 1806TP3     H217238   3.630   4.072   2.269  0.2449  2.4200  0.7104
 1807TP3      O17239   2.855   1.616   0.407  0.2348  0.6031  0.3434
 1807TP3     H117240   2.852   1.652   0.318 -0.0025 -1.6534 -0.6485
 1807TP3     H217241   2.773   1.644   0.447  0.0587  1.1304 -0.3686
 1808TP3      O17242   1.062   4.018   2.858 -0.4153 -0.0204  0.1095
 1808TP3     H117243   1.146   3.973   2.865  0.8710  2.4315  1.9426
 1808TP3     H217244   1.006   3.975   2.923  0.3739  0.1000  0.8982
 1809TP3      O17245   1.803   0.344   9.516  0.1686 -0.6220  0.2482
 1809TP3     H117246   1.839   0.425   9.480  0.2872 -0.7503  0.0764
 1809TP3     H217247   1.785   0.290   9.439 -0.8356 -0.3828  0.3014
 1810TP3      O17248   2.313   5.206   9.483  0.1400 -0.1716  0.0931
 1810TP3     H117249   2.231   5.157   9.486 -0.0566  0.1829  1.7912
 1810TP3     H217250   2.305   5.271   9.553  2.3092 -0.8987  1.1148
 1811TP3      O17251   4.668   0.204   0.852  0.0882 -0.4824 -0.4881
 1811TP3     H117252   4.611   0.188   0.777  1.9941  0.0803 -2.1610
 1811TP3     H217253   4.636   0.285   0.890 -0.7465 -0.6320 -0.8370
 1812TP3      O17254   2.127   3.238   8.402  0.2559  0.4411 -0.0430
 1812TP3     H117255   2.119   3.313   8.343  0.7096  1.6907  1.4435
 1812TP3     H217256   2.219   3.214   8.399  0.2305  0.3396 -0.0308
 1813TP3      O17257   1.476   0.725   0.321  0.1552 -0.3410  0.2452
 1813TP3     H117258   1.387   0.758   0.339 -1.0699 -1.6239 -2.7946
 1813TP3     H217259   1.488   0.654   0.385 -0.6514  0.3408  1.2006
 1814TP3      O17260   2.184   1.697   0.420 -0.0751  0.6049 -0.5977
 1814TP3     H117261   2.167   1.721   0.511 -0.4827  1.0599 -0.7878
 1814TP3     H217262   2.240   1.620   0.426  0.8177  1.2803  0.0252
 1815TP3      O17263   4.764   3.128   8.587 -0.2068 -0.5645 -0.0152
 1815TP3     H117264   4.758   3.115   8.492 -0.0524 -0.2581 -0.0685
 1815TP3     H217265   4.801   3.216   8.596 -0.1287 -0.6343  0.3280
 1816TP3      O17266   3.959   2.175   7.665  0.1912 -0.4457  0.2655
 1816TP3     H117267   4.012   2.096   7.662 -0.2470 -0.8553  2.0401
 1816TP3     H217268   4.018   2.245   7.636  0.7926 -1.2981 -0.6323
 1817TP3      O17269   2.069   3.460   9.659 -0.1776  0.1182  0.6169
 1817TP3     H117270   2.004   3.391   9.674 -0.8917  0.5771 -0.3167
 1817TP3     H217271   2.071   3.472   9.564  2.1696 -0.7207  0.5023
 1818TP3      O17272   3.591   3.885   2.802  0.3249  0.1498  0.0525
 1818TP3     H117273   3.532   3.924   2.738  0.3560 -0.1486 -0.1589
 1818TP3     H217274   3.663   3.850   2.750 -0.3024 -1.2973  0.1124
 1819TP3      O17275   0.241   2.306   9.186 -0.1127  0.5151 -0.1468
 1819TP3     H117276   0.287   2.289   9.103 -1.1343  1.7966 -1.0199
 1819TP3     H217277   0.211   2.397   9.178  0.0631  0.7780  1.7958
 1820TP3      O17278   2.858   3.161   3.200  0.1838 -0.4627 -0.2929
 1820TP3     H117279   2.892   3.250   3.210 -0.9974  0.0923 -1.0356
 1820TP3     H217280   2.767   3.166   3.227 -0.8047 -0.7113 -3.2448
 1821TP3      O17281   1.502   4.796   8.916 -0.0236 -0.5783 -0.1271
 1821TP3     H117282   1.469   4.725   8.860 -2.1481  0.1550  0.1142
 1821TP3     H217283   1.428   4.819   8.972  1.8652 -1.0138  2.8045
 1822TP3      O17284   4.459   0.360   8.623 -0.3475  0.5610 -0.2503
 1822TP3     H117285   4.459   0.274   8.581 -1.1961  0.2531  0.3347
 1822TP3     H217286   4.416   0.345   8.708 -0.5957  1.5756 -0.1786
 1823TP3      O17287   4.105   3.017   3.786 -0.3021  0.0645  0.2126
 1823TP3     H117288   4.090   2.938   3.837 -0.5568 -1.4704 -2.0973
 1823TP3     H217289   4.017   3.049   3.765 -0.2026  1.0396  1.1474
 1824TP3      O17290   2.646   3.173   7.941 -0.0220  0.4379  0.1822
 1824TP3     H117291   2.558   3.135   7.938  0.3036 -0.3105 -1.0786
 1824TP3     H217292   2.704   3.097   7.942  0.6379  0.8448 -1.7952
 1825TP3      O17293   1.264   1.993   9.828 -0.5743 -0.1486 -0.0272
 1825TP3     H117294   1.347   2.004   9.873 -0.3789  2.9387 -0.9018
 1825TP3     H217295   1.202   1.966   9.896  0.3904  1.1474  1.4290
 1826TP3      O17296   5.163   2.740   0.270 -0.1068 -0.9354  0.4636
 1826TP3     H117297   5.208   2.813   0.227 -0.8185  0.1527  1.5025
 1826TP3     H217298   5.180   2.664   0.213 -2.1740  0.6428 -2.5047
 1827TP3      O17299   0.736   0.386   6.680  0.8004  0.1090  0.1861
 1827TP3     H117300   0.683   0.462   6.705 -1.0292 -1.2899  0.8249
 1827TP3     H217301   0.681   0.338   6.618  2.5532  0.0600 -1.4146
 1828TP3      O17302   3.674   0.060   6.898 -0.1773 -0.1743  0.1015
 1828TP3     H117303   3.643   0.010   6.822 -0.5572 -1.9291  1.3468
 1828TP3     H217304   3.762   0.027   6.914 -0.8046 -1.2776  1.5544
 1829TP3      O17305   4.814   0.305   8.837 -0.4140 -0.1777 -0.2865
 1829TP3     H117306   4.805   0.374   8.772  1.6015 -0.0319 -0.4767
 1829TP3     H217307   4.762   0.336   8.912 -0.8641  0.7489 -0.9598
 1830TP3      O17308   0.772   2.090   1.649 -0.5439 -0.2740  0.4582
 1830TP3     H117309   0.789   2.122   1.737 -1.8906  2.1158 -0.0797
 1830TP3     H217310   0.750   1.997   1.661 -1.7516  0.2470  2.7537
 1831TP3      O17311   4.410   0.470   0.807 -0.1324 -0.9014 -0.2156
 1831TP3     H117312   4.339   0.464   0.744 -0.3918  0.0841 -0.0341
 1831TP3     H217313   4.487   0.436   0.760 -0.3162 -0.1530 -1.0851
 1832TP3      O17314   4.876   1.589  10.003 -0.2833  0.2005 -0.1562
 1832TP3     H117315   4.855   1.656  10.068 -0.8455  0.8593 -0.9863
 1832TP3     H217316   4.971   1.583  10.004 -0.3137 -1.8175  2.6897
 1833TP3      O17317   1.823   1.199   7.897 -0.1123  0.3936  0.4909
 1833TP3     H117318   1.840   1.250   7.818 -0.8060  1.0860  0.7764
 1833TP3     H217319   1.908   1.193   7.940  0.5719 -1.1260 -0.9405
 1834TP3      O17320   3.546   1.754   0.026 -0.2519  0.3157  0.6994
 1834TP3     H117321   3.495   1.680   0.059  0.0443 -1.1076 -1.7747
 1834TP3     H217322   3.487   1.798  -0.036  0.3252  0.8178  0.4962
 1835TP3      O17323   1.278   5.108   0.836  0.3936  0.1452  0.8605
 1835TP3     H117324   1.224   5.065   0.903 -0.6834 -1.0499 -0.7089
 1835TP3     H217325   1.255   5.201   0.842 -0.8461 -0.1626  1.1182
 1836TP3      O17326   3.063   4.340   9.150  0.0009 -0.2861  0.5578
 1836TP3     H117327   3.115   4.266   9.118  0.1736 -0.6143  1.5801
 1836TP3     H217328   3.055   4.398   9.074 -0.6805 -1.6435 -0.4567
 1837TP3      O17329   4.724   2.637   8.837  0.2989 -0.3963 -0.0775
 1837TP3     H117330   4.701   2.719   8.793 -1.2310 -0.4276  0.5950
 1837TP3     H217331   4.783   2.593   8.776  0.1403  0.6275 -1.0131
 1838TP3      O17332   2.957   2.481   9.233 -0.2973 -0.0573  0.0994
 1838TP3     H117333   2.932   2.461   9.143 -0.6111  0.2658  0.1155
 1838TP3     H217334   2.933   2.572   9.246 -2.0176 -0.6069  1.1063
 1839TP3      O17335   1.715   1.558   1.215 -0.7887  0.5757 -0.4621
 1839TP3     H117336   1.780   1.599   1.158 -2.6318  2.3622 -1.4074
 1839TP3     H217337   1.630   1.585   1.179 -2.0729 -0.7519  1.3530
 1840TP3      O17338   1.783   4.318   9.623  0.6890 -0.0137 -0.3115
 1840TP3     H117339   1.799   4.359   9.538 -0.5619  1.0452 -0.0674
 1840TP3     H217340   1.865   4.328   9.671  0.6925  1.4233 -0.5860
 1841TP3      O17341   1.074   1.799   3.276  0.2260  0.3844 -0.6113
 1841TP3     H117342   1.156   1.791   3.324 -0.2906 -1.8985  0.0415
 1841TP3     H217343   1.007   1.805   3.345 -0.1491  3.6392 -1.1112
 1842TP3      O17344   2.496   2.052   1.186  0.3224 -0.3591 -0.2361
 1842TP3     H117345   2.464   2.070   1.097 -0.0147 -0.7049 -0.1860
 1842TP3     H217346   2.448   1.974   1.214  0.4931 -0.3057  0.2181
 1843TP3      O17347   1.820   3.435   2.034  0.1157 -0.3077 -0.0772
 1843TP3     H117348   1.906   3.403   2.005  0.5804  2.5103 -2.2730
 1843TP3     H217349   1.787   3.486   1.960 -2.1444  1.0912  1.7505
 1844TP3      O17350   0.097   0.364   9.250  0.0569 -0.4028  0.3419
 1844TP3     H117351   0.082   0.279   9.210  0.5368 -0.8813  1.1634
 1844TP3     H217352   0.035   0.422   9.206  2.0939 -0.3614 -2.7527
 1845TP3      O17353   3.554   0.321   0.109  0.3886 -0.4585  0.5977
 1845TP3     H117354   3.498   0.347   0.182  0.0992 -0.1855  0.2820
 1845TP3     H217355   3.589   0.236   0.134  1.9606  0.5606  2.0060
 1846TP3      O17356   0.005   1.978   7.877 -0.1160 -0.4791  0.2678
 1846TP3     H117357   0.090   1.935   7.869 -0.2459 -0.9698  1.3316
 1846TP3     H217358  -0.049   1.915   7.925 -0.6936  0.3581  0.7386
 1847TP3      O17359   3.521   3.613   2.257 -0.3766 -0.1167 -0.5899
 1847TP3     H117360   3.543   3.576   2.172 -0.6943 -1.2249 -0.2146
 1847TP3     H217361   3.502   3.536   2.312  0.8411  0.5092  0.7696
 1848TP3      O17362   4.511   0.699   7.638  0.2918 -0.3623  0.5690
 1848TP3     H117363   4.462   0.754   7.699 -1.3323 -0.6542 -0.4081
 1848TP3     H217364   4.443   0.649   7.592  1.5605 -1.1669 -0.4774
 1849TP3      O17365   4.011   0.805   2.011  0.0977 -0.3003  0.1722
 1849TP3     H117366   4.015   0.836   2.102  0.9477  0.9513 -0.2665
 1849TP3     H217367   3.994   0.884   1.960 -1.6789 -1.1746 -0.6804
 1850TP3      O17368   0.129   1.971   1.656 -0.2545 -0.0408 -0.0341
 1850TP3     H117369   0.058   1.912   1.631 -0.4421  0.3882 -0.5282
 1850TP3     H217370   0.206   1.936   1.610  0.0573 -0.9900  1.1429
 1851TP3      O17371   2.768   1.642   8.207  0.5022 -0.0123 -0.1255
 1851TP3     H117372   2.790   1.555   8.173  0.9171 -0.2094  0.6249
 1851TP3     H217373   2.679   1.658   8.174  0.0237 -1.1465  0.5221
 1852TP3      O17374   2.873   3.470   0.814 -0.0117 -0.5888 -0.6131
 1852TP3     H117375   2.886   3.560   0.786 -0.4594 -0.3121  0.0493
 1852TP3     H217376   2.786   3.447   0.783  0.7090 -1.3678 -2.2227
 1853TP3      O17377   1.328   2.382   7.088  0.2832 -0.0898  0.0233
 1853TP3     H117378   1.384   2.412   7.016  2.6882  1.1407  2.2165
 1853TP3     H217379   1.373   2.305   7.123 -0.3708 -0.1549  0.7467
 1854TP3      O17380   3.909   3.547   2.264  0.2809  0.3937 -0.7127
 1854TP3     H117381   3.905   3.497   2.183 -1.4574  0.6220 -0.8178
 1854TP3     H217382   3.877   3.634   2.241  0.0961  0.5679  0.1402
 1855TP3      O17383   0.204   2.562   0.008  0.5022 -0.0353 -0.5262
 1855TP3     H117384   0.145   2.501  -0.037 -1.7220  1.9777 -0.5160
 1855TP3     H217385   0.178   2.558   0.099 -0.3452  1.5564 -0.6581
 1856TP3      O17386   1.775   3.961   3.049 -0.0065 -0.4659 -0.0552
 1856TP3     H117387   1.801   4.048   3.078 -1.8186 -0.2262  1.0061
 1856TP3     H217388   1.818   3.901   3.110 -1.0049 -0.1438  0.9853
 1857TP3      O17389   4.904   2.413   8.097 -0.3232  0.7227  0.2627
 1857TP3     H117390   4.819   2.367   8.099  0.4970 -0.8949 -0.0764
 1857TP3     H217391   4.958   2.364   8.159  0.1709  2.2022  1.0466
 1858TP3      O17392   4.476   1.327   2.281 -0.4300 -0.1143  0.1336
 1858TP3     H117393   4.386   1.308   2.309  0.0096 -0.1873  1.6008
 1858TP3     H217394   4.530   1.301   2.356  0.9989 -1.8099 -1.3935
 1859TP3      O17395   1.104   3.176   9.066 -0.4294  0.1297 -0.2427
 1859TP3     H117396   1.197   3.159   9.052 -0.1629  2.0266 -1.0712
 1859TP3     H217397   1.092   3.266   9.038 -2.5692 -0.1317 -0.2996
 1860TP3      O17398   3.252   4.401   6.906 -0.1108 -0.3783  0.4372
 1860TP3     H117399   3.239   4.306   6.911  0.1727 -0.5642 -1.5502
 1860TP3     H217400   3.165   4.435   6.885 -0.1852 -0.2100  1.0190
 1861TP3      O17401   0.788   4.381   9.838 -0.3348 -0.3167  0.4977
 1861TP3     H117402   0.876   4.407   9.814 -0.7503  0.7103  0.0588
 1861TP3     H217403   0.790   4.375   9.934 -1.1079  5.1722  1.2021
 1862TP3      O17404   2.644   4.329   8.209 -0.0430  0.5478  0.0076
 1862TP3     H117405   2.598   4.413   8.207 -0.5839  0.2422 -1.5625
 1862TP3     H217406   2.575   4.264   8.228  0.4042  0.4495  1.4225
 1863TP3      O17407   2.993   5.223   0.645  0.2477  0.6366  0.1105
 1863TP3     H117408   3.028   5.180   0.723  0.6098  0.2514 -0.2623
 1863TP3     H217409   2.900   5.233   0.663  0.4705  1.3423  0.9646
 1864TP3      O17410   5.072   4.007   8.091 -0.4923 -0.2147  0.0259
 1864TP3     H117411   5.013   4.021   8.017  0.2100 -0.5340 -0.6085
 1864TP3     H217412   5.081   4.093   8.132  0.3643  0.3180 -1.2194
 1865TP3      O17413   0.811   2.601   8.028 -0.3660  0.3440  0.5554
 1865TP3     H117414   0.875   2.670   8.013 -1.0051  1.2633  1.8632
 1865TP3     H217415   0.726   2.645   8.021 -0.7881 -0.3397  1.2232
 1866TP3      O17416   3.321   1.420   9.834  0.2556 -0.3210  0.1208
 1866TP3     H117417   3.278   1.465   9.762 -2.9538 -0.2117  1.8994
 1866TP3     H217418   3.345   1.335   9.798 -0.5536  0.0099 -1.2896
 1867TP3      O17419   4.748   1.733   7.518  0.5675  0.0719 -0.1346
 1867TP3     H117420   4.726   1.824   7.539  1.0291 -0.1443  1.4124
 1867TP3     H217421   4.843   1.730   7.525  0.4656 -0.8234  1.1787
 1868TP3      O17422   1.795   5.172   2.652 -0.3333 -0.0409 -0.4552
 1868TP3     H117423   1.741   5.099   2.620 -1.9910  1.0382 -0.2275
 1868TP3     H217424   1.749   5.203   2.730  1.4228  0.0074  0.6050
 1869TP3      O17425   2.618   0.864   7.727 -0.3633  0.0254 -0.1975
 1869TP3     H117426   2.648   0.789   7.676  1.5961  1.2310 -0.9498
 1869TP3     H217427   2.649   0.847   7.816  0.4167  0.0902 -0.4478
 1870TP3      O17428   0.284   2.744   3.533 -0.1225 -0.0693 -0.1027
 1870TP3     H117429   0.343   2.711   3.466 -0.6201 -0.0445 -0.5629
 1870TP3     H217430   0.228   2.806   3.487 -1.1469 -0.8127  0.1055
 1871TP3      O17431   1.173   2.883   9.530  0.8585  0.3145 -0.2670
 1871TP3     H117432   1.169   2.946   9.458  1.5057  1.8653  1.0039
 1871TP3     H217433   1.119   2.922   9.599  1.4900 -0.3765  0.6401
 1872TP3      O17434   3.865   0.010   2.516 -0.7363  0.1706  0.1513
 1872TP3     H117435   3.773  -0.005   2.538 -0.5070 -0.5943  0.6279
 1872TP3     H217436   3.913  -0.020   2.593 -0.0310 -0.3943 -0.5018
 1873TP3      O17437   3.173   3.628   8.680  0.0726 -0.5208  0.5945
 1873TP3     H117438   3.088   3.609   8.720  0.1544 -0.6897  0.6874
 1873TP3     H217439   3.153   3.689   8.609 -0.3108 -1.6528 -0.3061
 1874TP3      O17440   4.887   4.190   0.939 -0.3751 -0.4634 -0.0381
 1874TP3     H117441   4.946   4.153   1.004  1.0921 -0.9013 -1.5464
 1874TP3     H217442   4.904   4.138   0.860 -1.9905  0.1364 -0.8200
 1875TP3      O17443   0.398   2.383   8.925  0.0370  0.3914 -0.3713
 1875TP3     H117444   0.415   2.291   8.902  1.3019  0.5981 -0.2802
 1875TP3     H217445   0.440   2.395   9.010 -0.7598  0.8692 -0.0366
 1876TP3      O17446   3.550   1.993   9.000  0.1311  0.6084 -0.3477
 1876TP3     H117447   3.622   1.964   9.056 -0.5837  0.8486  0.7264
 1876TP3     H217448   3.478   1.934   9.023 -0.1762  0.7219 -1.0151
 1877TP3      O17449   5.279   0.881   0.726  0.1972 -0.4984  0.0758
 1877TP3     H117450   5.239   0.801   0.692 -1.4522  0.0226  0.6701
 1877TP3     H217451   5.312   0.926   0.648  1.4560 -1.8769 -0.2313
 1878TP3      O17452   0.856   2.251   8.616 -0.2893  0.2981 -0.0589
 1878TP3     H117453   0.908   2.173   8.598 -0.4245  0.5297 -1.6342
 1878TP3     H217454   0.834   2.286   8.529 -3.3547  0.0312  0.4873
 1879TP3      O17455   2.103   0.289   0.038  0.0738  0.4201  0.2183
 1879TP3     H117456   2.026   0.328  -0.004 -0.4659 -1.2182 -0.4391
 1879TP3     H217457   2.178   0.331  -0.003 -0.4491  2.0674  0.8881
 1880TP3      O17458   1.261   1.798   2.845 -0.6460  0.7389 -0.4023
 1880TP3     H117459   1.174   1.761   2.859 -0.3729  0.3132  0.2101
 1880TP3     H217460   1.269   1.867   2.911 -0.0288 -0.0984  0.4280
 1881TP3      O17461   3.699   3.379   0.899  0.1806  0.1774  0.3851
 1881TP3     H117462   3.743   3.464   0.898  0.6042 -0.0513 -0.6375
 1881TP3     H217463   3.617   3.394   0.853  0.6207 -0.1569 -0.5199
 1882TP3      O17464   3.090   4.712   7.595  0.5768 -0.3478 -0.3334
 1882TP3     H117465   3.012   4.660   7.577 -0.5653  0.7122  1.2466
 1882TP3     H217466   3.137   4.714   7.512 -0.3648 -2.1677 -0.9568
 1883TP3      O17467   2.901   1.738   8.658 -0.0896  0.4354 -0.0805
 1883TP3     H117468   2.824   1.681   8.665 -1.0216  1.1489 -2.9764
 1883TP3     H217469   2.906   1.782   8.742 -2.9117  0.3775  0.2176
 1884TP3      O17470   3.385   3.908   7.388  0.5555  0.0676 -0.3242
 1884TP3     H117471   3.408   3.846   7.456 -2.1027 -0.5210  0.1680
 1884TP3     H217472   3.412   3.866   7.306  2.3831  0.1121  0.2165
 1885TP3      O17473   2.539   4.826   2.596 -0.2703  0.0047 -0.2328
 1885TP3     H117474   2.568   4.756   2.537  0.5059 -0.0184  0.1697
 1885TP3     H217475   2.473   4.784   2.652 -1.8946  0.3216 -1.8315
 1886TP3      O17476   3.170   0.247   2.940  0.2445  0.6281  0.6057
 1886TP3     H117477   3.231   0.242   3.014 -0.2079 -0.7672  0.9252
 1886TP3     H217478   3.086   0.272   2.979  0.2218  0.8360  0.4244
 1887TP3      O17479   1.148   2.099   2.194  0.1818  0.5228 -0.4300
 1887TP3     H117480   1.242   2.092   2.177  0.1442 -0.3782 -0.2659
 1887TP3     H217481   1.108   2.043   2.128 -0.0743 -1.5531  1.4005
 1888TP3      O17482   1.220   3.140   1.184 -0.2598 -0.0388 -0.0163
 1888TP3     H117483   1.162   3.076   1.141 -0.1268 -1.2568  1.5159
 1888TP3     H217484   1.171   3.222   1.181 -2.2290 -1.0811  1.4377
 1889TP3      O17485   3.343   3.839   1.736  0.6667 -0.5046 -0.4967
 1889TP3     H117486   3.280   3.870   1.671 -0.4852 -0.9035  0.3968
 1889TP3     H217487   3.428   3.847   1.693  0.5635  4.0272 -0.3650
 1890TP3      O17488   4.404   5.263   8.728 -0.5031 -0.7376 -0.1340
 1890TP3     H117489   4.496   5.248   8.707 -0.6004 -1.8060  0.1321
 1890TP3     H217490   4.363   5.285   8.644 -0.0472 -0.4234 -0.2792
 1891TP3      O17491   1.792   1.296   0.215 -0.2276 -0.0855 -0.1960
 1891TP3     H117492   1.699   1.308   0.195 -0.1117 -0.3748 -0.9802
 1891TP3     H217493   1.838   1.336   0.141  0.2284 -1.4042 -0.6584
 1892TP3      O17494   2.937   4.009   2.834 -0.3394  0.7044  0.1283
 1892TP3     H117495   2.996   4.077   2.867 -1.7424  2.2689 -0.4595
 1892TP3     H217496   2.892   3.976   2.912  0.9809 -0.2096  0.5254
 1893TP3      O17497   4.945   4.783   8.624  0.1123 -0.1046 -0.6187
 1893TP3     H117498   4.952   4.699   8.578  1.3669  0.5167 -1.5916
 1893TP3     H217499   4.891   4.837   8.567 -3.3664 -1.1169  1.3987
 1894TP3      O17500   4.468   0.076   2.908  0.2389  0.0586 -0.9132
 1894TP3     H117501   4.544   0.040   2.954 -0.3643  0.3947  0.3781
 1894TP3     H217502   4.475   0.040   2.819  0.6074 -1.8782 -0.1639
 1895TP3      O17503   2.344   2.209   8.399  0.1799 -0.3805  0.8387
 1895TP3     H117504   2.293   2.138   8.362 -0.5315 -0.6421  2.2728
 1895TP3     H217505   2.306   2.288   8.361 -0.4456 -0.6495  0.8917
 1896TP3      O17506   4.555   4.721   0.388 -1.0615 -0.2103  0.0956
 1896TP3     H117507   4.522   4.772   0.463  1.8281  1.0130  0.6458
 1896TP3     H217508   4.650   4.727   0.395 -0.6656 -0.3346 -3.5269
 1897TP3      O17509   5.287   2.914   2.222  0.0881  0.0053 -0.1617
 1897TP3     H117510   5.286   2.904   2.126 -1.3132  1.8437 -0.4003
 1897TP3     H217511   5.244   2.836   2.255  1.1374 -0.9443 -0.9799
 1898TP3      O17512   1.105   3.267   1.935 -0.0333 -0.3897 -0.0568
 1898TP3     H117513   1.042   3.207   1.894  0.1890  0.2368 -1.3333
 1898TP3     H217514   1.084   3.353   1.899  3.6907 -0.5530 -3.3753
 1899TP3      O17515   1.227   1.526   1.631 -1.1024  0.5860  0.0298
 1899TP3     H117516   1.307   1.477   1.649 -0.5279  0.7399 -1.8852
 1899TP3     H217517   1.156   1.467   1.655 -0.4186 -0.2633 -0.0052
 1900TP3      O17518   1.129   4.761   7.313 -0.7487  0.0266 -0.4522
 1900TP3     H117519   1.141   4.853   7.336 -0.5955 -0.1810  0.3158
 1900TP3     H217520   1.049   4.760   7.260 -1.0286  0.5348 -0.0488
 1901TP3      O17521   2.627   2.500   9.293 -0.5862 -0.2849 -0.4120
 1901TP3     H117522   2.640   2.502   9.387 -1.7671 -1.4077 -0.2035
 1901TP3     H217523   2.532   2.500   9.281 -0.4584 -0.6519 -1.5784
 1902TP3      O17524   0.390   0.620   9.679  0.4212  0.1380 -0.0199
 1902TP3     H117525   0.436   0.647   9.600  1.6799 -0.8589  0.3406
 1902TP3     H217526   0.455   0.570   9.729 -0.8270 -0.6593  0.8668
 1903TP3      O17527   1.523   4.174   7.015  0.0782  0.5257 -0.3952
 1903TP3     H117528   1.593   4.198   6.955  0.6382  1.6817  0.6677
 1903TP3     H217529   1.506   4.082   6.998  1.3384  0.4273 -1.1891
 1904TP3      O17530   4.066   4.433   8.674 -0.6270  0.1650 -0.3980
 1904TP3     H117531   4.094   4.497   8.739 -0.6100 -0.5400  0.3113
 1904TP3     H217532   3.970   4.436   8.676 -0.6296  0.9275 -1.1515
 1905TP3      O17533   4.860   3.346   9.991  0.7464  0.1217  0.3848
 1905TP3     H117534   4.819   3.263  10.013 -0.2049  0.8414  1.4906
 1905TP3     H217535   4.903   3.374  10.073 -0.5183  1.5585  0.6160
 1906TP3      O17536   0.851   0.518  10.089 -0.0362  0.2013 -0.0176
 1906TP3     H117537   0.933   0.567  10.100  0.3273 -0.8101  2.3685
 1906TP3     H217538   0.797   0.543  10.164 -1.8327  0.6155 -1.3859
 1907TP3      O17539   4.199   4.277   2.246  0.3236  0.0380 -0.6959
 1907TP3     H117540   4.119   4.289   2.195  0.3930  1.1191 -0.5902
 1907TP3     H217541   4.194   4.344   2.314  0.7919 -0.6185 -0.0098
 1908TP3      O17542   2.481   2.672   9.914  0.2664 -0.0065 -0.2605
 1908TP3     H117543   2.402   2.654   9.864  1.4183  1.5945 -2.9023
 1908TP3     H217544   2.458   2.746   9.970 -0.8613 -1.4047  1.1912
 1909TP3      O17545   3.304   5.151   3.655  0.5449  0.2811  0.6076
 1909TP3     H117546   3.305   5.173   3.562 -1.6371  0.0799  0.4900
 1909TP3     H217547   3.336   5.231   3.698  0.5663  0.7441 -0.2406
 1910TP3      O17548   2.993   5.117   7.745 -0.4189  0.6069  0.0099
 1910TP3     H117549   3.019   5.209   7.757  2.8870 -0.2371  0.3065
 1910TP3     H217550   3.058   5.082   7.683 -0.3704 -1.9816  1.3976
 1911TP3      O17551   1.247   3.770   9.401 -0.0625 -0.0358  0.1398
 1911TP3     H117552   1.269   3.863   9.393  1.1811 -0.2995  0.2967
 1911TP3     H217553   1.166   3.769   9.452 -0.9002  1.0227 -1.1030
 1912TP3      O17554   3.132   1.065   1.865  0.0336  0.2672  0.1798
 1912TP3     H117555   3.126   1.151   1.906  0.6267  0.5070 -0.2238
 1912TP3     H217556   3.150   1.083   1.773  0.9427 -0.2818  0.2314
 1913TP3      O17557   2.458   4.005   3.612  0.1729  0.3296 -0.0645
 1913TP3     H117558   2.514   3.929   3.620 -0.1212 -0.0445 -1.3332
 1913TP3     H217559   2.476   4.057   3.690  0.5298 -0.9299  0.7131
 1914TP3      O17560   4.167   5.109   0.931 -0.4088  0.4849  0.2995
 1914TP3     H117561   4.161   5.056   1.010  0.4372  1.4716  1.0543
 1914TP3     H217562   4.165   5.199   0.962  1.3756  0.9069 -0.6645
 1915TP3      O17563   4.334   5.109   9.663 -0.2142  0.5184 -0.1027
 1915TP3     H117564   4.404   5.045   9.678 -1.3956 -0.6496  0.6041
 1915TP3     H217565   4.372   5.192   9.689  0.7703 -0.1672  0.7169
 1916TP3      O17566   4.076   1.370   0.778 -0.7471  0.5296  0.0750
 1916TP3     H117567   4.112   1.459   0.774  1.0365 -0.2009 -1.8117
 1916TP3     H217568   4.006   1.370   0.713 -0.9677  0.6522  0.3137
 1917TP3      O17569   2.393   3.361   8.353  0.1694  0.3852 -0.7936
 1917TP3     H117570   2.405   3.275   8.312  0.6127  0.6808 -1.2928
 1917TP3     H217571   2.447   3.420   8.301  0.9135  0.7326  0.3509
 1918TP3      O17572   3.810   5.082   1.569  0.1622  0.5405  0.2590
 1918TP3     H117573   3.834   5.164   1.526 -0.4321  0.2658 -0.6143
 1918TP3     H217574   3.763   5.110   1.648 -1.8420  1.0867 -1.0444
 1919TP3      O17575   4.895   3.076   3.039 -0.6399 -0.0977  0.1312
 1919TP3     H117576   4.919   3.026   3.117  0.9607  0.2133 -0.1219
 1919TP3     H217577   4.860   3.158   3.073 -2.5439 -1.0063  0.5308
 1920TP3      O17578   2.786   2.324   0.473  0.3200  0.4036 -0.2248
 1920TP3     H117579   2.766   2.410   0.509  0.8486  0.3509  0.1985
 1920TP3     H217580   2.862   2.339   0.417  0.3928  0.2195 -0.1757
 1921TP3      O17581   2.999   3.810   8.866 -0.2441  0.3127 -0.4973
 1921TP3     H117582   2.960   3.874   8.806 -3.3549 -0.5791  0.3941
 1921TP3     H217583   2.948   3.731   8.853  1.2024 -0.9464  0.9701
 1922TP3      O17584   0.379   1.230   2.333 -0.9740 -0.0314 -0.9599
 1922TP3     H117585   0.416   1.300   2.388  0.5643 -1.1496 -0.5240
 1922TP3     H217586   0.312   1.189   2.389 -0.4663 -0.1974 -0.4644
 1923TP3      O17587   1.964   3.506   3.267  0.3317  0.0799 -0.4993
 1923TP3     H117588   2.017   3.451   3.210  0.8639  0.9886 -0.9148
 1923TP3     H217589   1.874   3.477   3.251  0.6143 -0.8020 -0.5393
 1924TP3      O17590   5.266   2.266   0.581 -0.1707  0.0381  0.4557
 1924TP3     H117591   5.175   2.247   0.559 -0.2688  1.5683 -0.5765
 1924TP3     H217592   5.278   2.226   0.668 -1.1754 -2.0081 -0.2660
 1925TP3      O17593   2.827   0.756   2.510  0.7910 -0.6490 -0.4365
 1925TP3     H117594   2.847   0.797   2.594  0.2426 -0.3115 -0.4596
 1925TP3     H217595   2.838   0.826   2.446  2.3591 -1.1914 -0.8152
 1926TP3      O17596   2.302   4.025   1.572  0.0093  0.3669  0.3520
 1926TP3     H117597   2.359   4.043   1.498  0.9932 -2.5524  0.2947
 1926TP3     H217598   2.222   3.990   1.534  0.0045  0.0910  0.6085
 1927TP3      O17599   4.993   3.045   2.471  0.2234 -0.4607 -0.1092
 1927TP3     H117600   5.036   2.961   2.489  0.4274 -0.2417  0.4298
 1927TP3     H217601   5.050   3.111   2.509 -0.0032 -0.0767 -0.4151
 1928TP3      O17602   3.662   1.322   0.539 -0.5139 -0.1259 -0.1171
 1928TP3     H117603   3.650   1.410   0.501  0.1529 -0.8808 -2.2112
 1928TP3     H217604   3.649   1.262   0.466  0.8111 -1.6984  0.8572
 1929TP3      O17605   4.162   2.140   8.827  0.0478  0.2148  0.0855
 1929TP3     H117606   4.075   2.163   8.796 -0.0882 -0.1417  0.1951
 1929TP3     H217607   4.174   2.049   8.800  0.7832  0.5648 -0.7898
 1930TP3      O17608   1.867   0.499   1.313 -0.2317 -0.2225  0.5914
 1930TP3     H117609   1.886   0.536   1.399 -0.3936 -0.2282  0.6307
 1930TP3     H217610   1.796   0.437   1.329 -1.3762  0.9191  0.2183
 1931TP3      O17611   4.186   1.883   8.727 -0.3980 -0.6604 -0.5444
 1931TP3     H117612   4.139   1.838   8.797  0.0134 -0.3791 -0.0853
 1931TP3     H217613   4.272   1.840   8.724  1.5549  2.4930  2.5347
 1932TP3      O17614   4.354   2.331   2.180  0.0222 -0.0605  0.3393
 1932TP3     H117615   4.304   2.410   2.199 -0.7970 -0.1752 -1.1681
 1932TP3     H217616   4.315   2.296   2.100  0.7122 -1.7112  0.6694
 1933TP3      O17617   2.384   4.358   7.264  0.0050  0.4375  0.1057
 1933TP3     H117618   2.356   4.425   7.327 -1.3852  0.2743 -0.2905
 1933TP3     H217619   2.414   4.408   7.188 -1.7695  0.6612 -0.5001
 1934TP3      O17620   3.613   4.318   8.948  0.9541 -0.3395  0.6599
 1934TP3     H117621   3.578   4.386   9.007  0.7838 -1.1871  1.5635
 1934TP3     H217622   3.557   4.323   8.870  0.6621  0.2634  0.8972
 1935TP3      O17623   2.890   2.154   6.945  0.1836  0.0796 -0.2471
 1935TP3     H117624   2.843   2.234   6.971 -0.3937 -0.3891  0.1803
 1935TP3     H217625   2.971   2.156   6.996  0.1456  0.3628 -0.1957
 1936TP3      O17626   2.668   2.648   0.965 -0.1373  0.3687  0.1620
 1936TP3     H117627   2.683   2.741   0.946  0.5700 -0.2501 -2.8707
 1936TP3     H217628   2.753   2.616   0.998  0.3697  0.3365 -1.1155
 1937TP3      O17629   1.234   0.435   2.269 -0.8247  0.3102 -0.1213
 1937TP3     H117630   1.317   0.479   2.252 -0.9797  1.7818  2.4961
 1937TP3     H217631   1.178   0.461   2.195  0.4893  0.7056 -1.0095
 1938TP3      O17632   0.490   3.480   2.995  0.6447 -0.6960 -0.4723
 1938TP3     H117633   0.509   3.548   3.059 -0.2235 -0.9050  0.0167
 1938TP3     H217634   0.407   3.441   3.024  0.7746 -1.5016 -1.1254
 1939TP3      O17635   3.667   1.768   2.609 -0.1324 -0.4885 -0.1455
 1939TP3     H117636   3.693   1.697   2.668  1.9276 -0.2983 -0.7352
 1939TP3     H217637   3.596   1.731   2.557 -0.2672 -1.5220  0.7454
 1940TP3      O17638   1.113   1.136   6.706  0.3443 -0.1220  0.5478
 1940TP3     H117639   1.040   1.076   6.689  0.0121  0.1301  1.0459
 1940TP3     H217640   1.188   1.078   6.721  0.4307 -0.3669 -0.7348
 1941TP3      O17641   2.854   0.712   9.796 -0.9179  0.0293  0.3903
 1941TP3     H117642   2.905   0.640   9.759  1.2943  2.5019 -1.7777
 1941TP3     H217643   2.777   0.718   9.739  0.2883  1.0346 -1.2312
 1942TP3      O17644   3.025   0.771   8.297  0.4619  0.2950  0.0746
 1942TP3     H117645   2.930   0.779   8.307  0.4136  0.1328 -0.2392
 1942TP3     H217646   3.046   0.684   8.330  0.3174 -0.1953 -1.0594
 1943TP3      O17647   2.808   1.174   7.912  0.4894  0.1119 -0.2811
 1943TP3     H117648   2.842   1.199   7.826  0.6795  2.7837  0.4586
 1943TP3     H217649   2.744   1.243   7.933  0.0185 -0.7979  1.4738
 1944TP3      O17650   2.757   3.872   8.006  0.0589 -0.3210  0.1253
 1944TP3     H117651   2.682   3.862   7.947 -0.0839  1.2978 -0.0351
 1944TP3     H217652   2.719   3.892   8.091  0.2880 -1.5007  0.5165
 1945TP3      O17653   3.420   2.413   0.812 -0.3415  0.4677 -0.1442
 1945TP3     H117654   3.443   2.472   0.740  0.5620  0.0677 -0.1865
 1945TP3     H217655   3.326   2.427   0.823 -0.5294  0.4550 -1.4809
 1946TP3      O17656   2.719   1.435   1.276  0.4021  0.5472 -0.2443
 1946TP3     H117657   2.781   1.384   1.329  2.5308 -0.1052 -3.1130
 1946TP3     H217658   2.750   1.424   1.186 -1.5195  3.5835 -1.4303
 1947TP3      O17659   3.784   2.025   7.940  0.2331 -0.2699  0.2231
 1947TP3     H117660   3.719   2.021   7.870  0.8862  0.3184 -0.4394
 1947TP3     H217661   3.862   1.983   7.903  0.1206 -1.3775  1.1642
 1948TP3      O17662   2.604   2.059   1.900  0.0084 -0.2460 -0.3031
 1948TP3     H117663   2.509   2.053   1.896  0.0034 -0.3820  0.0201
 1948TP3     H217664   2.632   2.061   1.808 -0.2176 -1.5238 -0.4112
 1949TP3      O17665   1.581   5.106   1.281 -0.3297  0.6284 -0.0387
 1949TP3     H117666   1.619   5.034   1.331  0.7845  0.4534 -1.0821
 1949TP3     H217667   1.488   5.103   1.301 -0.3554 -1.3089 -0.3218
 1950TP3      O17668   2.745   3.741   9.161  0.2207  0.5409  0.6597
 1950TP3     H117669   2.705   3.778   9.240 -1.0124 -0.6155  0.6191
 1950TP3     H217670   2.753   3.648   9.180  1.6806  0.5409  0.1206
 1951TP3      O17671   3.143   3.010   1.652  0.3254 -0.0625  0.2057
 1951TP3     H117672   3.220   2.978   1.606  1.2808  0.4099  1.4158
 1951TP3     H217673   3.117   2.937   1.709  0.2207 -0.0180  0.2156
 1952TP3      O17674   2.091   2.984   8.165 -0.5705 -0.4419 -0.1361
 1952TP3     H117675   2.108   2.948   8.078  0.9097  1.7495 -0.8548
 1952TP3     H217676   2.067   3.075   8.149  2.8757  1.0018  1.7640
 1953TP3      O17677   4.826   3.197   2.041 -0.0199  0.3597 -0.0749
 1953TP3     H117678   4.751   3.240   2.081  0.1155  1.2540 -0.7555
 1953TP3     H217679   4.902   3.242   2.078  0.3406 -1.7838  2.1114
 1954TP3      O17680   0.713   4.755   8.573  0.5239  0.7849  0.7061
 1954TP3     H117681   0.779   4.727   8.636  1.2261  0.9910  0.0742
 1954TP3     H217682   0.693   4.845   8.597  0.0277  0.5261  1.2680
 1955TP3      O17683   3.173   2.151   2.784  0.1400  0.0814  0.0636
 1955TP3     H117684   3.107   2.219   2.770 -1.4347 -1.5466 -0.8645
 1955TP3     H217685   3.256   2.193   2.760 -0.4985  2.2210  1.3584
 1956TP3      O17686   1.953   3.524   2.285  0.2959 -0.2480 -0.4675
 1956TP3     H117687   2.036   3.484   2.309  0.2051 -0.3093 -0.2476
 1956TP3     H217688   1.912   3.461   2.226  0.3722 -0.2533 -0.5142
 1957TP3      O17689   2.974   2.738   0.571  0.2008  0.2126 -0.6413
 1957TP3     H117690   2.887   2.699   0.568 -0.3359  1.3575 -0.3384
 1957TP3     H217691   3.024   2.688   0.507 -0.3920 -1.1088 -0.1158
 1958TP3      O17692   1.082   4.108   3.233  0.0186  0.3002  0.7235
 1958TP3     H117693   1.122   4.023   3.216 -1.0136 -0.2658  1.0475
 1958TP3     H217694   1.013   4.116   3.166  0.0620  0.8493  0.7378
 1959TP3      O17695   5.176   4.509   8.725  0.1084 -0.2795 -0.2794
 1959TP3     H117696   5.262   4.532   8.760 -0.2793 -1.1908  1.3973
 1959TP3     H217697   5.192   4.489   8.633  1.3974  1.0842 -0.3917
 1960TP3      O17698   3.492   3.372   9.523  0.0670  0.5658  0.2005
 1960TP3     H117699   3.421   3.431   9.500 -1.1810 -1.4284 -1.4242
 1960TP3     H217700   3.454   3.312   9.588  0.2712 -0.4301 -0.5762
 1961TP3      O17701   4.130   3.290   9.645 -0.3773  0.0255  0.3188
 1961TP3     H117702   4.186   3.242   9.583  0.7943 -0.3167  1.5956
 1961TP3     H217703   4.114   3.374   9.602  0.0200 -0.3704 -0.6445
 1962TP3      O17704   3.457   3.787   7.611  0.2670  0.6020 -0.6105
 1962TP3     H117705   3.440   3.695   7.595  0.6495  0.5066 -0.4855
 1962TP3     H217706   3.515   3.789   7.687  0.2316  0.9442 -0.5878
 1963TP3      O17707   0.811   2.819   2.709  0.3942  0.4553  0.1546
 1963TP3     H117708   0.876   2.751   2.726 -0.0737 -0.7544 -2.5157
 1963TP3     H217709   0.859   2.888   2.664  0.1193  0.1178 -0.6794
 1964TP3      O17710   2.280   3.128   0.092 -0.0860 -0.6391  0.1030
 1964TP3     H117711   2.207   3.091   0.043 -1.8706 -0.3322  2.3547
 1964TP3     H217712   2.322   3.189   0.032 -2.1023 -0.3284 -1.0646
 1965TP3      O17713   4.563   2.703   1.101 -0.1470 -0.3341 -0.5221
 1965TP3     H117714   4.480   2.676   1.061  0.2280 -2.0042 -0.2386
 1965TP3     H217715   4.543   2.709   1.195 -0.1993  0.3426 -0.5681
 1966TP3      O17716   2.544   2.359   1.935  0.6114  0.2495 -0.8295
 1966TP3     H117717   2.526   2.321   1.849  1.2735  0.6237 -1.1448
 1966TP3     H217718   2.633   2.329   1.956  0.4439  0.1397 -0.2627
 1967TP3      O17719   2.424   3.290   0.880  0.1604 -0.1183 -0.3981
 1967TP3     H117720   2.388   3.378   0.865  1.1689  0.3826  0.0153
 1967TP3     H217721   2.387   3.237   0.809  0.3787  0.8875 -1.3022
 1968TP3      O17722   3.198   3.469   7.222 -0.5506  0.0453 -0.4369
 1968TP3     H117723   3.155   3.513   7.149  0.6651 -1.7406 -2.3265
 1968TP3     H217724   3.145   3.390   7.236 -0.6274  0.2436  0.4984
 1969TP3      O17725   1.175   2.835   8.208  0.2777 -0.1220 -0.6216
 1969TP3     H117726   1.087   2.809   8.234  0.1813  0.8111  0.0540
 1969TP3     H217727   1.227   2.828   8.289  0.7856 -0.4847 -0.9696
 1970TP3      O17728   2.348   4.407   8.306 -0.3809 -0.4493 -0.2938
 1970TP3     H117729   2.294   4.415   8.384  0.7983 -0.4887  0.5575
 1970TP3     H217730   2.382   4.495   8.290  2.2766 -1.0357  1.4447
 1971TP3      O17731   2.651   2.634   7.049  0.3497  0.3258 -0.2196
 1971TP3     H117732   2.718   2.657   7.113 -0.6351  0.1724  0.9004
 1971TP3     H217733   2.684   2.668   6.966  0.7896  2.1742  0.6790
 1972TP3      O17734   3.090   0.439  10.112 -0.3749 -0.2449  0.8106
 1972TP3     H117735   3.000   0.446  10.081 -0.1908 -0.8887  0.1027
 1972TP3     H217736   3.082   0.407  10.202 -0.8690  0.2336  0.9393
 1973TP3      O17737   0.082   4.989   2.439 -0.7100 -0.2067  0.1164
 1973TP3     H117738   0.175   5.006   2.422 -0.3478 -2.2536 -0.2311
 1973TP3     H217739   0.080   4.958   2.530 -1.3808  1.8504  0.8453
 1974TP3      O17740   4.664   5.172   9.550  0.3643  0.6723  0.2253
 1974TP3     H117741   4.754   5.144   9.565  0.1122  0.6984  1.9797
 1974TP3     H217742   4.612   5.115   9.607 -0.8220  0.1652 -1.2912
 1975TP3      O17743   0.632   2.855   0.325 -0.0094  0.5431 -0.0936
 1975TP3     H117744   0.550   2.864   0.277  0.9923  0.0877 -2.0316
 1975TP3     H217745   0.641   2.760   0.339  1.1960  0.3444 -1.9005
 1976TP3      O17746   3.529   2.498   1.969  0.0780 -0.0670 -0.2812
 1976TP3     H117747   3.435   2.477   1.971 -0.1769  1.0632  0.2093
 1976TP3     H217748   3.533   2.590   1.944  1.0084  0.1605  0.6329
 1977TP3      O17749   2.652   3.717   7.102 -0.4020  0.2310  0.9179
 1977TP3     H117750   2.652   3.638   7.157  0.6747  0.3841  1.1705
 1977TP3     H217751   2.568   3.759   7.121 -2.1363 -2.0653 -1.0627
 1978TP3      O17752   4.767   0.586   7.730  0.2886 -0.6604 -0.2656
 1978TP3     H117753   4.700   0.642   7.693  0.0868  0.1166  1.2247
 1978TP3     H217754   4.725   0.501   7.740 -1.1224  0.2433  2.3093
 1979TP3      O17755   5.130   5.279   0.840 -0.4386 -0.5042 -0.8130
 1979TP3     H117756   5.157   5.317   0.756 -1.7931 -0.6396 -1.3408
 1979TP3     H217757   5.115   5.355   0.897  1.2329 -0.4351 -0.4206
 1980TP3      O17758   2.503   4.277   1.999  0.0348  0.0222 -0.4853
 1980TP3     H117759   2.570   4.219   2.035 -0.2999  0.6629  1.2747
 1980TP3     H217760   2.457   4.224   1.934 -0.5477 -1.8646  1.3568
 1981TP3      O17761   3.597   2.891   9.674 -0.5548 -0.1336 -0.6372
 1981TP3     H117762   3.522   2.926   9.627  0.4583 -0.4491 -2.5930
 1981TP3     H217763   3.610   2.950   9.748 -0.5667  2.0318 -2.2776
 1982TP3      O17764   0.677   3.976   9.940 -0.3729  0.2238  0.1456
 1982TP3     H117765   0.623   3.901   9.915  0.8520 -1.7658  2.9475
 1982TP3     H217766   0.724   4.000   9.860  1.6955 -4.2205 -0.2595
 1983TP3      O17767   2.854   1.963  10.131 -0.3317  0.1036  0.0039
 1983TP3     H117768   2.761   1.952  10.112 -0.0055  0.0022 -1.7509
 1983TP3     H217769   2.880   1.884  10.178 -0.8562 -0.4896 -0.6929
 1984TP3      O17770   2.695   3.413   6.848 -0.1261  0.0875 -0.3998
 1984TP3     H117771   2.666   3.338   6.899 -0.0863  1.1680  1.2938
 1984TP3     H217772   2.615   3.462   6.829  0.1799  1.6009  1.8604
 1985TP3      O17773   4.822   3.451   0.568  0.4714 -0.4340 -0.2650
 1985TP3     H117774   4.756   3.434   0.635 -0.8367 -0.1710 -1.4467
 1985TP3     H217775   4.874   3.523   0.604 -0.8700  0.4262  0.0352
 1986TP3      O17776   2.112   3.485   6.910  0.0600  0.3911  0.1079
 1986TP3     H117777   2.148   3.431   6.980 -0.9204 -0.4359 -0.0094
 1986TP3     H217778   2.134   3.438   6.829 -0.9559  0.0511  0.0161
 1987TP3      O17779   0.072   0.572   1.764 -0.0337 -0.0347 -0.1326
 1987TP3     H117780   0.146   0.592   1.822  1.2202 -3.2707 -0.4217
 1987TP3     H217781   0.098   0.609   1.679  0.7071 -0.0911  0.0590
 1988TP3      O17782   4.278   3.384   7.702 -0.8269  0.2839 -0.0265
 1988TP3     H117783   4.340   3.398   7.774 -1.3078  1.1449  0.2222
 1988TP3     H217784   4.330   3.340   7.635 -0.2809 -0.2106  0.6966
 1989TP3      O17785   0.242   0.521   7.895 -0.0838 -0.0736 -0.1550
 1989TP3     H117786   0.285   0.452   7.946 -0.0434  0.4212  0.4958
 1989TP3     H217787   0.187   0.474   7.833  0.7806 -0.7037 -0.4631
 1990TP3      O17788   3.426   4.624   2.577 -0.2320  0.0662 -0.2662
 1990TP3     H117789   3.376   4.631   2.658  1.1637  2.3696  0.4869
 1990TP3     H217790   3.377   4.674   2.513 -1.3432 -1.7677 -0.9297
 1991TP3      O17791   4.413   1.545   9.718  0.2281  0.2589 -0.8729
 1991TP3     H117792   4.509   1.545   9.725  0.2074 -0.5781 -0.3775
 1991TP3     H217793   4.396   1.528   9.625  0.5602  0.1805 -0.9220
 1992TP3      O17794   2.673   2.054   1.615 -0.4270  0.1155 -0.1902
 1992TP3     H117795   2.637   2.096   1.537  0.3584  0.2660 -0.4841
 1992TP3     H217796   2.757   2.098   1.629 -0.9112  0.6417  1.2122
 1993TP3      O17797   1.262   1.609   0.612 -0.4304 -0.0347  0.1009
 1993TP3     H117798   1.182   1.606   0.664 -0.7820 -1.9070 -0.4671
 1993TP3     H217799   1.331   1.585   0.673  0.2933  4.4542  1.3835
 1994TP3      O17800   1.848   4.799   8.360 -0.0461 -0.8585 -0.5232
 1994TP3     H117801   1.769   4.792   8.306 -0.5142 -0.4824  0.0995
 1994TP3     H217802   1.832   4.876   8.415  0.7034 -0.8583 -0.3033
 1995TP3      O17803   2.945   0.125   7.793  0.0626 -0.1069 -0.2500
 1995TP3     H117804   2.934   0.152   7.701 -2.7123  2.5040  0.6932
 1995TP3     H217805   3.015   0.181   7.826 -0.5143  0.6206 -0.2292
 1996TP3      O17806   1.805   2.431   1.348 -0.7446 -0.8700 -0.1901
 1996TP3     H117807   1.715   2.444   1.376  0.0410  0.3486  2.0140
 1996TP3     H217808   1.846   2.383   1.419  1.0140  1.1115  0.2548
 1997TP3      O17809   0.820   0.142   9.430  0.0305 -0.2564  0.0172
 1997TP3     H117810   0.912   0.137   9.456 -0.6217 -1.9859  2.2771
 1997TP3     H217811   0.788   0.053   9.439 -2.0193  0.4199 -0.2022
 1998TP3      O17812   1.624   5.183   7.645  0.1385  0.0902  0.2257
 1998TP3     H117813   1.663   5.248   7.587  1.3549 -2.2352 -1.7608
 1998TP3     H217814   1.530   5.199   7.641  0.2573  0.5410 -1.7794
 1999TP3      O17815   0.598   0.885   9.118  0.1752  0.0086  0.3675
 1999TP3     H117816   0.565   0.951   9.178  0.0150 -0.1717  0.4784
 1999TP3     H217817   0.674   0.848   9.162 -0.7063 -1.0510  1.0688
 2000TP3      O17818   1.381   3.726  10.000  0.1209 -0.5599  0.1093
 2000TP3     H117819   1.448   3.659   9.992  3.6328  2.6791 -0.5594
 2000TP3     H217820   1.354   3.744   9.910 -1.4797 -1.5397  0.3448
 2001TP3      O17821   1.859   3.222   1.439  0.1270 -0.4450  0.6851
 2001TP3     H117822   1.791   3.205   1.374  0.9233  1.5435 -0.7696
 2001TP3     H217823   1.940   3.194   1.397  0.9998  3.0685 -0.3803
 2002TP3      O17824   0.112   3.984   9.775 -0.1407  0.1452 -0.1626
 2002TP3     H117825   0.066   4.045   9.833  0.4983 -0.1666  0.6912
 2002TP3     H217826   0.202   4.015   9.775  0.7005 -1.9659  1.9847
 2003TP3      O17827   3.248   5.269   7.618 -0.1478  0.6088 -0.2908
 2003TP3     H117828   3.316   5.202   7.629 -2.5869 -1.9612  0.3627
 2003TP3     H217829   3.228   5.268   7.524 -0.0327  0.5899 -0.3148
 2004TP3      O17830   2.300   1.524   8.607 -0.6582  0.4329 -0.4449
 2004TP3     H117831   2.258   1.544   8.691  0.7866 -1.0513  0.6817
 2004TP3     H217832   2.331   1.434   8.616 -0.0379  0.3938 -2.4108
 2005TP3      O17833   4.454   2.766   3.297 -0.1288 -0.0263 -0.5678
 2005TP3     H117834   4.466   2.671   3.307  0.2781 -0.0242 -0.9994
 2005TP3     H217835   4.537   2.804   3.328 -0.7277  0.2695  0.7468
 2006TP3      O17836   3.083   4.116   8.980 -0.0207 -0.4182  0.6116
 2006TP3     H117837   3.060   4.152   8.894 -0.3297  0.5950  1.0948
 2006TP3     H217838   3.008   4.061   9.003  0.7126 -1.8951 -0.3911
 2007TP3      O17839   5.279   2.087   9.733 -0.0035 -0.0446 -0.3995
 2007TP3     H117840   5.338   2.163   9.731 -0.5956  0.4267 -0.3067
 2007TP3     H217841   5.296   2.041   9.652 -0.7921  1.0982 -1.2507
 2008TP3      O17842   5.256   1.339   1.150  0.2319 -0.1290  0.1547
 2008TP3     H117843   5.270   1.322   1.243  2.6671 -0.4733 -0.2033
 2008TP3     H217844   5.230   1.255   1.113 -0.9443  0.0551  0.5246
 2009TP3      O17845   1.579   1.093   6.788  0.3592  0.2213 -0.1918
 2009TP3     H117846   1.624   1.022   6.743  1.2566  0.9541 -0.4981
 2009TP3     H217847   1.650   1.152   6.815 -0.4528  1.8382 -1.4001
 2010TP3      O17848   2.444   3.075   2.444 -0.0087 -0.4276 -0.1589
 2010TP3     H117849   2.506   3.003   2.455  1.0422  0.4608 -0.1264
 2010TP3     H217850   2.384   3.045   2.376 -0.6458 -2.0212  1.0498
 2011TP3      O17851   3.100   1.722   0.082 -0.1738 -0.5720  0.6088
 2011TP3     H117852   3.155   1.693   0.010 -0.0175 -1.7021  1.1642
 2011TP3     H217853   3.153   1.788   0.128 -0.2254  0.0501 -0.2122
 2012TP3      O17854   3.106   2.631   3.150  0.3132 -0.8639  0.1000
 2012TP3     H117855   3.076   2.553   3.196 -0.1945 -0.4561  0.4673
 2012TP3     H217856   3.164   2.675   3.212 -0.3370 -0.3366  0.3489
 2013TP3      O17857   1.766   0.362   1.933  0.6578 -0.3737  0.0452
 2013TP3     H117858   1.838   0.384   1.874  1.8553 -3.0914  0.3524
 2013TP3     H217859   1.797   0.387   2.020  0.4602  0.1250 -0.0242
 2014TP3      O17860   0.325   4.349   8.617 -0.6686 -0.1940 -0.4562
 2014TP3     H117861   0.372   4.405   8.555 -0.1743  0.9435  0.9172
 2014TP3     H217862   0.342   4.260   8.586 -0.0165  0.3267 -1.6506
 2015TP3      O17863   0.466   2.920   2.315  0.5249 -0.1006  0.4512
 2015TP3     H117864   0.521   2.886   2.386  0.4996  1.0696  1.0578
 2015TP3     H217865   0.384   2.945   2.358  0.5661  0.7689  0.0587
 2016TP3      O17866   4.481   2.474   8.787 -0.1595 -0.1604  0.3833
 2016TP3     H117867   4.536   2.552   8.783  1.4002 -1.2679 -2.9061
 2016TP3     H217868   4.541   2.404   8.813 -0.7009 -0.8665 -0.2218
 2017TP3      O17869   4.673   3.959   2.935 -0.2180  0.2087 -0.0807
 2017TP3     H117870   4.660   3.961   3.030 -0.5171  0.1655 -0.1196
 2017TP3     H217871   4.678   3.866   2.913  1.6547  0.2281  0.1287
 2018TP3      O17872   4.145   4.872   2.362  0.1034 -0.0948 -0.2773
 2018TP3     H117873   4.175   4.926   2.435  1.2053  1.3153 -1.7061
 2018TP3     H217874   4.066   4.916   2.330 -0.7907 -1.1078  0.4684
 2019TP3      O17875   0.515   0.901   8.168 -0.1037 -0.2430  0.0582
 2019TP3     H117876   0.449   0.968   8.189  2.0251  0.9414  3.9288
 2019TP3     H217877   0.583   0.949   8.121  0.2716 -0.2677  0.5737
 2020TP3      O17878   1.295   0.670   7.563 -0.0185 -0.2542 -0.3784
 2020TP3     H117879   1.284   0.757   7.524  1.5273 -0.3866 -1.1811
 2020TP3     H217880   1.355   0.684   7.636  0.7661 -0.7336 -0.9171
 2021TP3      O17881   4.992   4.715   9.208 -0.5850 -0.0652 -0.9375
 2021TP3     H117882   5.077   4.680   9.234  0.5368  2.9448 -0.1025
 2021TP3     H217883   4.993   4.711   9.112  0.2625 -0.5488 -0.9178
 2022TP3      O17884   4.631   3.302   2.210 -0.4029 -0.0466 -0.0786
 2022TP3     H117885   4.544   3.317   2.174 -0.4205  1.7128  0.5885
 2022TP3     H217886   4.639   3.365   2.282  1.5392  0.0927 -0.3384
 2023TP3      O17887   1.250   4.143   7.016  0.2399  0.2165  0.2997
 2023TP3     H117888   1.189   4.214   7.037 -0.8519 -0.2386 -1.1208
 2023TP3     H217889   1.335   4.174   7.046 -0.3288  1.8234  0.3461
 2024TP3      O17890   3.075   0.783   0.193  0.0690 -0.2914  0.3059
 2024TP3     H117891   3.146   0.722   0.173  1.2771  0.7258  1.2617
 2024TP3     H217892   3.066   0.836   0.114 -1.1470 -1.8127 -0.6106
 2025TP3      O17893   1.742   3.830   8.107 -0.0815 -0.0013 -0.4976
 2025TP3     H117894   1.656   3.845   8.146  0.1214  0.6155 -0.2748
 2025TP3     H217895   1.744   3.889   8.031  0.5612  0.8131  0.1327
 2026TP3      O17896   3.447   0.317   1.927 -0.1077 -0.2964  0.1304
 2026TP3     H117897   3.528   0.351   1.965 -0.8046  0.6940  0.7779
 2026TP3     H217898   3.470   0.229   1.896  0.4234 -1.3671  3.1946
 2027TP3      O17899   0.199   4.941   7.856  0.1084  0.2663  0.3155
 2027TP3     H117900   0.104   4.949   7.849  0.1538 -0.5119 -2.0712
 2027TP3     H217901   0.230   5.032   7.864 -0.8192  0.4918  1.7136
 2028TP3      O17902   0.108   0.681   9.756  0.7467  0.3605 -0.1265
 2028TP3     H117903   0.098   0.773   9.732  0.2096  0.0623 -1.0936
 2028TP3     H217904   0.194   0.656   9.721 -0.0116 -0.0587 -1.7807
 2029TP3      O17905   5.079   2.346   1.172  0.5448 -0.1875  0.4869
 2029TP3     H117906   5.132   2.284   1.223  1.1656  0.5622  0.7755
 2029TP3     H217907   5.142   2.387   1.112  0.3606  0.9546  1.0579
 2030TP3      O17908   2.279   0.236   8.997  0.2400 -0.4016  0.2790
 2030TP3     H117909   2.301   0.158   8.946 -0.5087 -1.0858  0.9781
 2030TP3     H217910   2.184   0.244   8.990  0.1696 -0.2630  1.2011
 2031TP3      O17911   0.691   2.032  10.072  0.7045  0.4657  0.0446
 2031TP3     H117912   0.611   2.051  10.023  1.5138 -0.1581 -1.6227
 2031TP3     H217913   0.713   2.114  10.115  0.2002  1.2054 -1.0511
 2032TP3      O17914   1.780   2.984   7.803  0.1873 -0.3463  0.0542
 2032TP3     H117915   1.872   2.974   7.828  0.5521  1.7591 -0.3089
 2032TP3     H217916   1.740   3.030   7.876 -0.1346  0.4388 -0.6066
 2033TP3      O17917   5.280   3.554   0.316  0.1530  0.2492  0.2472
 2033TP3     H117918   5.303   3.484   0.378  0.7408  0.0758 -0.1650
 2033TP3     H217919   5.329   3.630   0.347 -0.0639  0.3384  0.3756
 2034TP3      O17920   1.683   4.940   7.627 -0.3928 -0.0848  0.4282
 2034TP3     H117921   1.656   5.029   7.651  1.8127  0.5275  0.8897
 2034TP3     H217922   1.635   4.921   7.547 -0.9404  1.5102  0.3461
 2035TP3      O17923   3.762   1.180   1.215  0.3163 -0.4350  0.3961
 2035TP3     H117924   3.693   1.246   1.214  2.0315  1.4537  0.6603
 2035TP3     H217925   3.716   1.097   1.224 -1.9986  0.5891 -1.2930
 2036TP3      O17926   2.956   2.393   0.267 -0.2077 -0.0288  0.9807
 2036TP3     H117927   2.965   2.324   0.201 -2.4644 -0.7725  1.3612
 2036TP3     H217928   3.046   2.419   0.288  0.6031  0.3147 -2.4111
 2037TP3      O17929   3.060   0.690   2.341 -0.0338  0.3503  0.0969
 2037TP3     H117930   3.079   0.619   2.403  2.2096  2.4059  1.9461
 2037TP3     H217931   3.009   0.753   2.391 -1.7190  0.2935 -1.4330
 2038TP3      O17932   4.353   3.284   8.621 -0.6161 -0.0273 -0.3348
 2038TP3     H117933   4.419   3.350   8.601 -1.8160  1.7511  1.2159
 2038TP3     H217934   4.400   3.217   8.671 -0.0119  1.4582  1.1910
 2039TP3      O17935   4.818   1.289   8.029  0.0430  0.2518 -0.3612
 2039TP3     H117936   4.822   1.294   8.125 -2.5267 -0.0404 -0.1806
 2039TP3     H217937   4.864   1.367   7.999  2.6495 -0.6346  0.9997
 2040TP3      O17938   2.667   3.003   1.799  0.0922 -0.0994 -0.4942
 2040TP3     H117939   2.735   3.025   1.735  0.8985 -1.1493 -0.0382
 2040TP3     H217940   2.629   3.087   1.823  1.7781  0.6253 -0.1921
 2041TP3      O17941   4.969   3.638   0.695  0.1793  0.0981 -0.0017
 2041TP3     H117942   4.947   3.573   0.761 -0.9996  0.2182 -0.2587
 2041TP3     H217943   5.048   3.681   0.728  1.4019 -1.8964 -0.1403
 2042TP3      O17944   3.259   1.386   1.209  0.0635 -0.1786 -0.4614
 2042TP3     H117945   3.276   1.471   1.169  1.1224 -0.7947 -1.3757
 2042TP3     H217946   3.192   1.403   1.275  1.2562  1.6070  0.3575
 2043TP3      O17947   4.500   5.201   0.015 -0.0708 -0.3245  0.6457
 2043TP3     H117948   4.418   5.236  -0.022 -0.0495 -0.6755  0.2670
 2043TP3     H217949   4.568   5.232  -0.044 -0.0233 -0.7871  0.4559
 2044TP3      O17950   3.236   2.858   7.939 -0.0220  0.5043  0.0871
 2044TP3     H117951   3.284   2.899   8.011  0.0907 -0.1766  0.4060
 2044TP3     H217952   3.163   2.813   7.981  0.0412  0.1053 -0.2254
 2045TP3      O17953   2.856   1.443   2.493 -0.1663  0.4796  0.4417
 2045TP3     H117954   2.900   1.477   2.415 -0.2464 -0.0581  0.1572
 2045TP3     H217955   2.849   1.519   2.552  2.7356  0.2614  1.2588
 2046TP3      O17956   3.486   1.035   8.226 -0.1827  0.5811 -0.3732
 2046TP3     H117957   3.410   1.070   8.181  0.0263  1.3672 -0.1368
 2046TP3     H217958   3.484   1.077   8.312  0.3559  0.3872 -0.2624
 2047TP3      O17959   0.865   5.095   9.402 -0.4034  0.1939 -0.8443
 2047TP3     H117960   0.885   5.003   9.384 -3.6959 -0.7315 -0.2975
 2047TP3     H217961   0.818   5.126   9.324 -0.7268  0.9318 -0.3692
 2048TP3      O17962   0.345   1.929   9.941  0.3443  0.3121  0.2734
 2048TP3     H117963   0.250   1.926   9.949  0.3325 -0.2714 -0.0044
 2048TP3     H217964   0.360   1.982   9.862  0.1289 -1.9704 -1.3991
 2049TP3      O17965   2.134   2.981   0.856  0.2257 -0.4754  0.0747
 2049TP3     H117966   2.186   2.902   0.871  2.7201  1.1475  0.4157
 2049TP3     H217967   2.175   3.023   0.781 -0.4700  0.9664  0.4660
 2050TP3      O17968   0.455   3.301   1.989  0.1681 -0.6903 -0.2114
 2050TP3     H117969   0.439   3.232   1.925  1.2930 -2.0859  0.9434
 2050TP3     H217970   0.413   3.270   2.070 -0.1550  0.4469  0.0768
 2051TP3      O17971   0.427   3.592   1.316 -0.1094  0.6263  0.0109
 2051TP3     H117972   0.409   3.647   1.392  1.6247 -1.4808  2.0834
 2051TP3     H217973   0.360   3.523   1.320 -0.3097  0.7665 -0.7071
 2052TP3      O17974   5.176   3.560   2.926  0.3062  0.4448  0.1068
 2052TP3     H117975   5.253   3.617   2.930  0.2853  0.3953  2.1169
 2052TP3     H217976   5.113   3.601   2.984 -0.3278 -0.7537  0.2862
 2053TP3      O17977   1.350   4.088   7.984  0.0655  0.2422  0.2326
 2053TP3     H117978   1.331   4.081   8.077  0.1501  1.6326  0.3808
 2053TP3     H217979   1.441   4.059   7.975 -0.2511 -0.8351  0.4219
 2054TP3      O17980   2.189   3.418   2.319  0.0633  0.3884 -0.2379
 2054TP3     H117981   2.246   3.401   2.393  1.0453  1.9003 -0.6157
 2054TP3     H217982   2.248   3.428   2.244 -0.7990  0.4872 -0.9339
 2055TP3      O17983   2.858   3.280   8.849 -0.4083 -0.0872  0.6389
 2055TP3     H117984   2.816   3.194   8.847  1.0941 -0.8944  1.9240
 2055TP3     H217985   2.949   3.262   8.872  0.1238  1.7926  0.1573
 2056TP3      O17986   4.476   3.618   7.284  0.7036 -0.6323  0.2068
 2056TP3     H117987   4.459   3.600   7.191  0.0442 -0.0821  0.2062
 2056TP3     H217988   4.569   3.601   7.295  1.2506  1.1641 -1.0324
 2057TP3      O17989   1.793   1.669   2.803 -0.0943 -0.6048 -0.0334
 2057TP3     H117990   1.786   1.575   2.787 -1.6244 -0.3252 -1.2899
 2057TP3     H217991   1.742   1.709   2.732  1.9237  1.2581 -0.5239
 2058TP3      O17992   1.300   3.757   8.044 -0.0711 -0.2913 -0.0636
 2058TP3     H117993   1.258   3.694   8.103 -0.0810 -1.3573 -1.1675
 2058TP3     H217994   1.229   3.817   8.019 -0.2247 -0.2558  0.4490
 2059TP3      O17995   2.211   3.772   6.996  0.1874 -0.6183  0.5374
 2059TP3     H117996   2.261   3.779   6.915  2.1381 -1.4629  1.5805
 2059TP3     H217997   2.150   3.700   6.982 -0.2602 -0.0471 -0.5232
 2060TP3      O17998   2.711   4.564   1.661  0.4721 -0.3834  0.0676
 2060TP3     H117999   2.726   4.657   1.644 -0.1846  0.0272  1.5622
 2060TP3     H218000   2.619   4.559   1.686  0.8030 -1.2498  1.1629
 2061TP3      O18001   2.280   0.082   8.709 -0.1890 -0.4671  0.4892
 2061TP3     H118002   2.232   0.160   8.679  2.0524  0.9020  0.2335
 2061TP3     H218003   2.281   0.024   8.633 -0.5957 -0.0941  0.1916
 2062TP3      O18004   3.792   3.283   2.313  0.4072 -0.0158 -0.0190
 2062TP3     H118005   3.801   3.360   2.258 -0.1569 -0.7105 -1.1277
 2062TP3     H218006   3.881   3.266   2.345  1.2064 -0.7269 -2.3522
 2063TP3      O18007   0.366   4.927   2.341  0.3129  0.2239  0.0746
 2063TP3     H118008   0.462   4.930   2.334  0.1978  1.8717 -1.7165
 2063TP3     H218009   0.343   4.841   2.305  1.1131 -0.0949  0.2939
 2064TP3      O18010   3.093   1.709   8.448  0.3769  0.1178  0.1895
 2064TP3     H118011   3.072   1.636   8.390 -0.0124 -0.5259  1.1167
 2064TP3     H218012   3.042   1.692   8.527 -0.5353  1.9361  0.0516
 2065TP3      O18013   3.795   2.114   9.898  0.3521  0.0186 -0.4833
 2065TP3     H118014   3.847   2.147   9.971 -0.4792  2.7595 -0.9994
 2065TP3     H218015   3.859   2.073   9.840  1.4963  0.5768  0.3386
 2066TP3      O18016   1.291   0.174   2.566  0.5198 -0.4429 -0.0382
 2066TP3     H118017   1.367   0.133   2.607  2.1170  1.8424 -0.5183
 2066TP3     H218018   1.272   0.250   2.621  1.0011  1.1350 -1.9420
 2067TP3      O18019   4.865   4.893   2.734 -0.7094 -0.1867  0.3645
 2067TP3     H118020   4.946   4.910   2.781 -1.0425  0.3935  0.7496
 2067TP3     H218021   4.798   4.939   2.785 -1.0200  0.8040 -0.8904
 2068TP3      O18022   1.534   3.175   8.398 -0.1111 -0.0112  0.5013
 2068TP3     H118023   1.594   3.229   8.450  0.3163 -0.4176  0.4439
 2068TP3     H218024   1.525   3.094   8.449 -0.2120 -0.1507  0.2611
 2069TP3      O18025   5.154   1.047   2.730 -0.5917 -0.5551 -0.2725
 2069TP3     H118026   5.155   0.965   2.779 -0.3060  0.7897  2.1099
 2069TP3     H218027   5.234   1.092   2.757  0.1763 -0.1476 -2.8624
 2070TP3      O18028   0.935   2.947   7.760 -0.1099  0.0702 -0.8262
 2070TP3     H118029   0.886   3.003   7.699 -0.0741  1.6287  0.5078
 2070TP3     H218030   1.027   2.957   7.733 -0.1323  0.4367 -0.7736
 2071TP3      O18031   4.252   4.390   0.932  0.2451 -0.4901 -0.1780
 2071TP3     H118032   4.205   4.312   0.900 -2.3562  0.5548  0.8206
 2071TP3     H218033   4.270   4.441   0.853  1.5020 -1.7870 -0.7868
 2072TP3      O18034   1.850   1.563   8.619  0.2333  0.0880  0.2653
 2072TP3     H118035   1.800   1.645   8.627 -2.0133 -1.1402 -0.2934
 2072TP3     H218036   1.892   1.569   8.533 -1.2878 -0.0238 -0.5133
 2073TP3      O18037   2.300   1.495   6.856 -0.2951  1.1289 -0.3945
 2073TP3     H118038   2.275   1.415   6.903 -0.2401  2.2007  1.5673
 2073TP3     H218039   2.366   1.466   6.793  1.1900 -0.1216  1.6014
 2074TP3      O18040   0.258   4.851   0.438 -0.4539  0.4741 -0.1655
 2074TP3     H118041   0.189   4.894   0.488  0.8676 -0.2812  2.5209
 2074TP3     H218042   0.236   4.758   0.441  0.8714  0.1524  1.2404
 2075TP3      O18043   4.574   1.533   7.519 -0.5814  0.6015 -0.5309
 2075TP3     H118044   4.632   1.609   7.527 -0.3177  0.3192  0.3889
 2075TP3     H218045   4.633   1.460   7.502 -0.7807  0.5092 -0.8260
 2076TP3      O18046   3.190   5.111   8.758  0.0794 -0.6992  0.0763
 2076TP3     H118047   3.197   5.037   8.818  2.1269 -0.1456  0.6060
 2076TP3     H218048   3.148   5.180   8.809 -0.3239 -0.9661  0.1072
 2077TP3      O18049   0.263   1.909   7.801  0.3158  0.4235  0.5738
 2077TP3     H118050   0.313   1.829   7.784  2.3974  1.4865  1.2983
 2077TP3     H218051   0.294   1.971   7.734  0.1322  1.1755  1.1700
 2078TP3      O18052   3.744   2.922   7.673  0.0331 -0.1981 -0.1076
 2078TP3     H118053   3.783   2.849   7.624 -0.7633  0.1045 -1.2496
 2078TP3     H218054   3.652   2.921   7.647  0.1269  1.5903 -0.6738
 2079TP3      O18055   0.117   1.678   3.189  0.1218 -0.3214  0.6304
 2079TP3     H118056   0.093   1.616   3.258  0.3246  0.5693  1.5337
 2079TP3     H218057   0.114   1.627   3.108 -0.7313 -1.2378  1.2210
 2080TP3      O18058   0.520   4.905   7.375 -0.3140 -0.3914  0.0348
 2080TP3     H118059   0.595   4.855   7.342 -0.6707 -0.1993 -1.1391
 2080TP3     H218060   0.530   4.904   7.470  1.4231  0.0159 -0.1055
 2081TP3      O18061   0.245   4.036   9.507  0.1127 -0.4982 -0.0916
 2081TP3     H118062   0.287   4.018   9.591  0.6891  1.2532  0.0389
 2081TP3     H218063   0.164   3.986   9.509  0.9244 -1.8233  0.7793
 2082TP3      O18064   3.801   2.707   8.031  0.3007  0.3829 -0.4666
 2082TP3     H118065   3.807   2.706   8.127 -0.2238  0.3906 -0.4288
 2082TP3     H218066   3.892   2.713   8.001  0.4211  1.3156  0.0467
 2083TP3      O18067   3.876   3.382   1.644  0.4408  0.5772  0.0670
 2083TP3     H118068   3.831   3.419   1.720 -1.1192 -0.0988 -0.4629
 2083TP3     H218069   3.898   3.458   1.589 -1.4725  0.8749 -0.3649
 2084TP3      O18070   4.119   1.591   2.776  0.0308 -0.1257  0.3167
 2084TP3     H118071   4.040   1.537   2.783  0.3293 -1.2987 -3.1386
 2084TP3     H218072   4.087   1.679   2.759 -0.5764 -0.4778 -0.4367
 2085TP3      O18073   3.419   3.513   0.160 -0.8306 -0.0432 -0.8091
 2085TP3     H118074   3.375   3.562   0.230 -0.9731  0.6901 -1.3996
 2085TP3     H218075   3.359   3.518   0.086 -0.3543 -0.1770 -1.2105
 2086TP3      O18076   4.343   3.506   2.757 -0.2387 -0.0234  0.0926
 2086TP3     H118077   4.336   3.419   2.797 -1.6416 -0.2786 -0.6373
 2086TP3     H218078   4.261   3.550   2.779  0.0396  0.7591 -0.3727
 2087TP3      O18079   2.904   0.213   7.535 -1.2634 -0.4344 -0.5418
 2087TP3     H118080   2.913   0.128   7.491 -0.2702 -0.5416 -0.1856
 2087TP3     H218081   2.821   0.248   7.504 -1.7421 -1.5819 -0.6292
 2088TP3      O18082   3.827   4.982   7.156 -0.1791  0.0511  0.3039
 2088TP3     H118083   3.898   5.020   7.209  1.4297  0.0582 -1.7170
 2088TP3     H218084   3.814   5.045   7.085 -1.4596 -0.5079  0.0104
 2089TP3      O18085   0.797   1.050   9.609  0.5320 -0.3675  0.1912
 2089TP3     H118086   0.729   1.117   9.611  0.3449 -0.5665  0.4933
 2089TP3     H218087   0.860   1.077   9.676  0.1237 -0.8429  0.7710
 2090TP3      O18088   4.382   3.860   0.858  0.0469  0.0787 -0.1229
 2090TP3     H118089   4.452   3.860   0.923 -1.7894  0.2115  1.9778
 2090TP3     H218090   4.339   3.775   0.870 -1.1191  0.6392 -0.2424
 2091TP3      O18091   4.144   5.235   7.104 -0.5128 -0.5330  0.1906
 2091TP3     H118092   4.230   5.269   7.081 -0.9251 -0.0818 -0.7238
 2091TP3     H218093   4.133   5.258   7.196  1.5184 -3.1049  1.1995
 2092TP3      O18094   0.117   0.269   8.710 -0.0048 -0.0880 -0.3683
 2092TP3     H118095   0.086   0.215   8.783 -0.1148  1.0220  0.4343
 2092TP3     H218096   0.037   0.304   8.671 -0.0521 -1.9221 -2.0604
 2093TP3      O18097   2.652   4.528   6.944 -0.5893  0.4932 -0.0601
 2093TP3     H118098   2.725   4.467   6.931 -1.2349  0.0652 -1.9541
 2093TP3     H218099   2.693   4.607   6.981  0.4367 -0.5991  1.2527
 2094TP3      O18100   2.137   4.521   9.389 -0.5215 -0.2961  0.0726
 2094TP3     H118101   2.123   4.573   9.309 -0.8130 -0.8477 -0.2392
 2094TP3     H218102   2.094   4.572   9.458 -1.5555 -0.5325 -0.3811
 2095TP3      O18103   1.766   1.995  10.017  0.2119  0.0860 -0.5226
 2095TP3     H118104   1.767   2.091  10.011 -1.5099  0.1926  0.1680
 2095TP3     H218105   1.683   1.970   9.977  0.1749 -1.0267  0.2192
 2096TP3      O18106   2.237   2.967   2.997 -0.3379  0.0374 -0.1926
 2096TP3     H118107   2.268   3.010   3.076 -1.3336  1.5565 -0.5776
 2096TP3     H218108   2.289   2.887   2.991  0.6049  0.4945  1.3200
 2097TP3      O18109   2.166   3.293   7.095  0.5561 -0.0314  0.6841
 2097TP3     H118110   2.255   3.274   7.125  0.9713 -0.2758 -0.6255
 2097TP3     H218111   2.110   3.258   7.164  1.4666  1.0334  2.0398
 2098TP3      O18112   0.515   5.225   7.307  0.1452 -0.4437 -0.1915
 2098TP3     H118113   0.460   5.269   7.243  0.9321  1.4955  0.3760
 2098TP3     H218114   0.458   5.160   7.348 -0.3766 -1.7043 -2.7656
 2099TP3      O18115   3.579   3.841   1.618  0.6733 -0.1224  0.0079
 2099TP3     H118116   3.661   3.792   1.614  1.5713  1.3840 -1.1597
 2099TP3     H218117   3.599   3.924   1.574 -0.7424  1.3557  2.0001
 2100TP3      O18118   0.527   2.261   8.201 -0.2044 -0.2966 -0.1557
 2100TP3     H118119   0.517   2.356   8.198 -0.8325 -0.3379  0.5411
 2100TP3     H218120   0.493   2.231   8.117 -0.6745  0.0373 -0.0903
 2101TP3      O18121   5.226   2.565   9.001 -0.3915 -0.4716  1.1732
 2101TP3     H118122   5.158   2.625   8.970 -0.2487 -0.3189  1.1560
 2101TP3     H218123   5.209   2.483   8.955 -0.1187 -0.2184  0.6118
 2102TP3      O18124   0.030   4.162   9.967  0.3999  0.2898  0.2514
 2102TP3     H118125   0.079   4.244   9.977 -0.2848  0.7683 -0.2720
 2102TP3     H218126  -0.013   4.151  10.052 -0.3705  1.0453 -0.0284
 2103TP3      O18127   1.521   0.773   0.062 -0.1380 -0.2055  0.1110
 2103TP3     H118128   1.462   0.703   0.035  0.2369 -0.0677 -1.1021
 2103TP3     H218129   1.525   0.765   0.158 -2.4383  0.0651  0.2755
 2104TP3      O18130   0.177   3.311   8.659  0.4437  0.2931  0.4359
 2104TP3     H118131   0.101   3.342   8.610  0.8935  1.7629  0.6080
 2104TP3     H218132   0.211   3.238   8.607 -0.0078  0.8133 -0.6241
 2105TP3      O18133   0.094   0.610   1.305 -0.4178 -0.0887  0.0676
 2105TP3     H118134   0.135   0.637   1.222 -0.3244  1.5166  0.5959
 2105TP3     H218135   0.065   0.520   1.289  0.4721 -0.1625 -1.3785
 2106TP3      O18136   0.512   3.735  10.088  0.0991  0.9106  0.6723
 2106TP3     H118137   0.499   3.770  10.176 -1.9120  1.9722  0.0207
 2106TP3     H218138   0.424   3.730  10.051  0.7894 -0.4942 -0.9348
 2107TP3      O18139   4.240   0.397   1.545  0.5148  0.0217 -0.3266
 2107TP3     H118140   4.274   0.428   1.629  0.2924  0.9747 -0.5748
 2107TP3     H218141   4.262   0.304   1.542 -0.5720 -0.3255  1.3315
 2108TP3      O18142   1.409   1.656   0.180 -0.3500 -0.1389  0.8110
 2108TP3     H118143   1.480   1.711   0.148  0.1854 -1.9548 -1.4044
 2108TP3     H218144   1.415   1.662   0.276  2.3931  0.2892  0.6926
 2109TP3      O18145   0.434   2.042   2.008 -0.8454 -0.1757  0.4094
 2109TP3     H118146   0.435   2.118   2.065 -1.0648  0.0893  0.0672
 2109TP3     H218147   0.359   2.057   1.950 -0.0582  0.0283 -0.5741
 2110TP3      O18148   3.696   2.157   7.572  0.5276 -0.4221 -0.4535
 2110TP3     H118149   3.680   2.098   7.646  1.5463 -2.7591 -1.9623
 2110TP3     H218150   3.791   2.155   7.560  0.4122  0.1940 -1.5768
 2111TP3      O18151   4.354   2.963   8.956 -0.0821 -0.0679 -0.4384
 2111TP3     H118152   4.421   2.936   9.018  0.6472 -0.0805 -1.2125
 2111TP3     H218153   4.403   2.995   8.880 -0.9487  0.2227 -0.8881
 2112TP3      O18154   2.910   3.013   0.531 -0.1261  0.3715 -0.5501
 2112TP3     H118155   2.944   2.928   0.558 -2.3485 -0.3603  0.1616
 2112TP3     H218156   2.876   3.052   0.611  1.1909  2.1327 -0.8014
 2113TP3      O18157   1.875   0.503   8.904  0.0535  0.4523  0.8204
 2113TP3     H118158   1.859   0.596   8.923 -0.6456  0.7275 -0.9415
 2113TP3     H218159   1.788   0.464   8.902  0.3623 -0.3244  1.8354
 2114TP3      O18160   0.380   4.489   8.391 -0.4752  0.7410  0.2085
 2114TP3     H118161   0.398   4.581   8.410 -1.1835  1.0766 -0.7431
 2114TP3     H218162   0.292   4.488   8.354  0.5095  0.0087 -2.2582
 2115TP3      O18163   0.721   1.499   9.647 -0.1416  0.0539 -0.3495
 2115TP3     H118164   0.812   1.513   9.673  0.4424  0.7172 -2.5226
 2115TP3     H218165   0.689   1.585   9.621 -0.7969 -0.4538 -1.3047
 2116TP3      O18166   1.709   2.798   3.418  0.7601 -0.1500 -0.0210
 2116TP3     H118167   1.743   2.867   3.476  0.9864 -1.0821  0.9781
 2116TP3     H218168   1.616   2.818   3.408  1.1081  1.1531 -0.9817
 2117TP3      O18169   1.235   2.503   9.716 -0.2102 -0.3640 -0.0870
 2117TP3     H118170   1.164   2.502   9.780 -0.1674 -0.5188 -0.0406
 2117TP3     H218171   1.315   2.502   9.769 -0.1100  2.2978 -0.0530
 2118TP3      O18172   1.663   1.420   7.980 -0.1807  0.6139 -0.0108
 2118TP3     H118173   1.582   1.392   7.936 -0.3709  0.6525  0.3142
 2118TP3     H218174   1.711   1.338   7.994 -0.9944  0.3608  1.4517
 2119TP3      O18175   1.369   5.267   7.542  0.1004 -0.0819 -0.0121
 2119TP3     H118176   1.286   5.249   7.586  0.0605  2.1922  0.9695
 2119TP3     H218177   1.366   5.361   7.524  1.0042 -0.5257 -3.0906
 2120TP3      O18178   0.737   5.135   9.152  0.4791 -0.1046 -0.2714
 2120TP3     H118179   0.760   5.050   9.113 -2.2667 -0.8599 -0.4056
 2120TP3     H218180   0.702   5.186   9.079 -1.0040 -0.0875  0.4355
 2121TP3      O18181   4.622   1.584   2.303 -0.2460 -0.4165 -0.4299
 2121TP3     H118182   4.680   1.609   2.230  3.3591 -0.2952  2.1791
 2121TP3     H218183   4.630   1.489   2.309 -0.8462 -0.4694 -0.4389
 2122TP3      O18184   4.043   4.608   3.233 -0.3715 -0.1719 -0.8289
 2122TP3     H118185   4.086   4.672   3.288  1.3063 -1.6260 -0.3614
 2122TP3     H218186   3.969   4.655   3.194  0.5558  1.8861 -0.2037
 2123TP3      O18187   4.360   2.755   0.794 -0.3114  0.1601  0.1075
 2123TP3     H118188   4.316   2.836   0.770  1.5115  1.4394  0.8310
 2123TP3     H218189   4.327   2.735   0.882  0.2114  0.9052  0.4902
 2124TP3      O18190   1.727   4.432   8.370  0.0096 -0.5333  1.0104
 2124TP3     H118191   1.759   4.343   8.381  1.5729  0.1306  2.2538
 2124TP3     H218192   1.799   4.479   8.329 -1.9847 -0.5201 -2.9527
 2125TP3      O18193   4.232   5.045   2.584 -0.1718 -0.0428 -0.9222
 2125TP3     H118194   4.238   5.100   2.662  0.6690 -2.5237  0.9206
 2125TP3     H218195   4.252   5.104   2.511 -0.7978  2.3406  0.7183
 2126TP3      O18196   4.165   2.061   1.243 -0.3563  0.0574 -0.1130
 2126TP3     H118197   4.158   2.156   1.232  3.9724  0.4808 -0.9244
 2126TP3     H218198   4.171   2.027   1.154  1.1470 -0.5665  0.1971
 2127TP3      O18199   3.543   4.358   2.065 -0.4169  0.2283 -0.2681
 2127TP3     H118200   3.609   4.423   2.043 -0.7350  0.4642 -0.5384
 2127TP3     H218201   3.570   4.279   2.018 -0.2890  0.3024 -0.3177
 2128TP3      O18202   1.417   3.977   0.790 -0.7793  0.0383  0.1518
 2128TP3     H118203   1.381   3.950   0.874 -2.9577  0.9914 -0.4250
 2128TP3     H218204   1.383   3.913   0.727  0.6116 -0.5087 -0.0872
 2129TP3      O18205   0.800   0.382   7.700  0.2955 -0.4112 -0.3329
 2129TP3     H118206   0.887   0.369   7.740  0.5224  0.4647 -0.5220
 2129TP3     H218207   0.739   0.364   7.771  0.6850  0.6869  0.3071
 2130TP3      O18208   3.302   4.439   1.702 -0.4265  0.0703 -0.5813
 2130TP3     H118209   3.359   4.515   1.709 -1.2370  0.6353 -0.0511
 2130TP3     H218210   3.297   4.403   1.790 -0.2361 -0.4766 -0.7828
 2131TP3      O18211   3.312   1.060  10.124 -0.0543  0.5373 -0.6181
 2131TP3     H118212   3.341   1.003  10.195  0.8146  0.1867 -1.2345
 2131TP3     H218213   3.224   1.029  10.102  0.0861 -0.0329 -0.3935
 2132TP3      O18214   1.754   1.428   9.022  0.7674 -0.5742 -0.5188
 2132TP3     H118215   1.670   1.474   9.027  0.4406 -1.2789  1.0284
 2132TP3     H218216   1.814   1.492   8.983 -0.0587  0.6081  0.0901
 2133TP3      O18217   2.522   0.518   7.733  0.6702  0.4268  0.2368
 2133TP3     H118218   2.608   0.489   7.762  1.5319  1.0357 -1.5677
 2133TP3     H218219   2.538   0.563   7.650 -1.4432  0.0838 -0.4327
 2134TP3      O18220   1.760   3.923   1.743 -0.8880  0.6859  0.0381
 2134TP3     H118221   1.807   3.992   1.697  1.5144 -1.3769 -0.7867
 2134TP3     H218222   1.767   3.846   1.687 -2.4600 -0.5898  1.4446
 2135TP3      O18223   3.034   4.736   7.960  0.8101 -0.3374 -0.4046
 2135TP3     H118224   3.022   4.796   7.887  0.8353 -1.9257 -1.7735
 2135TP3     H218225   3.129   4.733   7.974  1.0987 -2.0659 -2.1911
 2136TP3      O18226   0.915   0.122   7.977 -0.8413  0.1013  0.3038
 2136TP3     H118227   0.987   0.179   7.951 -0.3343 -0.7808 -0.2568
 2136TP3     H218228   0.873   0.098   7.895 -0.6008 -0.9162  0.4731
 2137TP3      O18229   4.545   2.351   1.116  0.1440 -0.2323 -0.4390
 2137TP3     H118230   4.547   2.269   1.165  0.2532  0.1388  0.1940
 2137TP3     H218231   4.601   2.336   1.041  2.2336  0.0557  0.9846
 2138TP3      O18232   3.994   4.617   0.694 -0.2042  0.8386 -0.0057
 2138TP3     H118233   4.050   4.643   0.621 -0.1127  0.6357 -0.0066
 2138TP3     H218234   3.957   4.700   0.726  0.4309  1.0251  0.2702
 2139TP3      O18235   1.991   0.668   0.236 -0.5613 -0.0509  0.2892
 2139TP3     H118236   1.913   0.630   0.195 -0.9912  0.6513  0.4461
 2139TP3     H218237   1.986   0.643   0.328 -0.4611 -0.2281  0.2470
 2140TP3      O18238   3.637   4.370   7.922 -0.2606 -0.3439  0.9058
 2140TP3     H118239   3.652   4.319   8.002 -0.9977 -0.1974  1.1463
 2140TP3     H218240   3.553   4.337   7.889  1.0201 -1.9452 -1.0058
 2141TP3      O18241   0.651   2.355   1.062  0.3682  0.1549  0.0142
 2141TP3     H118242   0.724   2.351   1.001  0.0738 -2.0135 -0.2829
 2141TP3     H218243   0.622   2.264   1.071 -0.0419  0.4643  2.8435
 2142TP3      O18244   2.989   3.906   7.659 -0.4242  0.0956 -0.7182
 2142TP3     H118245   2.949   3.987   7.691  0.2931  0.1034  0.2170
 2142TP3     H218246   3.002   3.921   7.565  0.2034  1.2991 -0.4647
 2143TP3      O18247   4.293   0.669   1.429 -1.3977  0.0696  0.2350
 2143TP3     H118248   4.288   0.592   1.486 -0.4242 -1.1579 -1.2345
 2143TP3     H218249   4.201   0.694   1.415 -1.6781 -0.0256  1.7416
 2144TP3      O18250   1.212   4.992   2.166  0.3097 -0.5582  0.3957
 2144TP3     H118251   1.180   5.050   2.235  2.4791  1.6482 -0.3655
 2144TP3     H218252   1.222   4.907   2.210 -0.5791  0.1923  2.1613
 2145TP3      O18253   2.973   3.189   0.781 -0.0282  0.3150 -0.4936
 2145TP3     H118254   2.994   3.119   0.843  0.3312 -0.8688 -1.8818
 2145TP3     H218255   2.890   3.225   0.812  0.1609 -0.2342  0.6737
 2146TP3      O18256   0.434   2.686   9.162  0.1308  0.6600 -0.1865
 2146TP3     H118257   0.493   2.611   9.152 -0.2425  0.3213  0.1019
 2146TP3     H218258   0.346   2.647   9.160 -0.0567  1.0370  0.4331
 2147TP3      O18259   1.532   3.734   7.887 -0.1782 -0.5344 -0.2611
 2147TP3     H118260   1.564   3.644   7.889  1.9716  0.1595 -0.8255
 2147TP3     H218261   1.452   3.732   7.940  0.2178 -2.6098  0.3463
 2148TP3      O18262   4.770   0.717   0.419 -0.0391 -0.9174  0.2527
 2148TP3     H118263   4.724   0.664   0.354  1.2707  0.1255 -1.6375
 2148TP3     H218264   4.742   0.807   0.401 -0.6150 -0.7035  2.0116
 2149TP3      O18265   4.905   3.695   2.797 -0.4981  0.0161 -0.1511
 2149TP3     H118266   4.898   3.742   2.714 -1.0026  0.5535  0.1955
 2149TP3     H218267   4.896   3.603   2.772  1.0038  0.0291 -0.8988
 2150TP3      O18268   2.978   0.548   9.570  0.2818 -0.5057  0.0512
 2150TP3     H118269   3.026   0.496   9.505  1.3546 -0.9560  1.1753
 2150TP3     H218270   2.887   0.520   9.560  0.4549 -0.7147 -1.1083
 2151TP3      O18271   3.900   4.953   0.232  0.2389  0.2419 -0.0850
 2151TP3     H118272   3.976   4.943   0.175  0.4013  0.7894  0.0258
 2151TP3     H218273   3.937   4.969   0.318  0.0269  1.7806 -0.2486
 2152TP3      O18274   5.095   2.673   8.040 -0.4552 -0.3497  0.4279
 2152TP3     H118275   5.083   2.578   8.042  0.7487 -0.5062  0.4628
 2152TP3     H218276   5.078   2.701   8.130  1.5863 -0.8511  1.0097
 2153TP3      O18277   4.963   2.526   2.289 -0.2447 -0.1285  0.1573
 2153TP3     H118278   4.943   2.507   2.197 -0.7424 -0.6664  0.3709
 2153TP3     H218279   4.905   2.468   2.338  0.5000 -0.3427  0.8089
 2154TP3      O18280   4.184   0.036   9.533 -0.4682 -0.3221 -0.0324
 2154TP3     H118281   4.108  -0.008   9.571 -1.5556  0.4662 -1.2257
 2154TP3     H218282   4.259   0.001   9.582 -1.6689 -0.3184  1.9020
 2155TP3      O18283   3.045   2.214   9.116  0.1917 -0.4124 -0.4966
 2155TP3     H118284   3.083   2.294   9.079 -1.7438  0.2156 -1.2106
 2155TP3     H218285   3.121   2.159   9.136  1.6588  2.0520  1.1769
 2156TP3      O18286   1.669   3.464   9.061 -0.7790 -0.0865 -0.5193
 2156TP3     H118287   1.698   3.436   8.974 -0.7629  1.2341 -0.9603
 2156TP3     H218288   1.662   3.383   9.111  1.9934 -0.6409 -0.8868
 2157TP3      O18289   4.926   1.306   6.616  0.0341 -0.2359  0.1935
 2157TP3     H118290   4.944   1.213   6.629 -1.1142 -0.4465  0.4012
 2157TP3     H218291   4.832   1.309   6.594  0.4860  0.6725 -1.8738
 2158TP3      O18292   4.370   2.838   9.582 -0.3345 -0.6756  0.1761
 2158TP3     H118293   4.429   2.772   9.545  0.5523  0.2692 -0.1565
 2158TP3     H218294   4.305   2.788   9.631  0.9895 -1.7433  0.9117
 2159TP3      O18295   2.431   4.295   8.848 -0.0296 -0.1658 -0.1552
 2159TP3     H118296   2.489   4.237   8.898  0.3590 -0.7308 -1.2276
 2159TP3     H218297   2.351   4.243   8.835  0.5243 -0.7199 -1.5924
 2160TP3      O18298   1.336   0.249   7.517  0.1408 -0.4978 -0.2590
 2160TP3     H118299   1.401   0.303   7.562 -0.4466 -1.2340  1.5490
 2160TP3     H218300   1.254   0.297   7.528  0.3032  0.4624 -2.5890
 2161TP3      O18301   5.197   4.520   7.718 -0.1804  0.3258  0.1140
 2161TP3     H118302   5.275   4.482   7.678 -0.3309  0.3103 -0.1692
 2161TP3     H218303   5.218   4.613   7.727 -0.3680  0.4443 -0.5640
 2162TP3      O18304   1.895   3.946   9.492  0.1582  0.0344 -0.4628
 2162TP3     H118305   1.864   3.966   9.403  0.5572  1.3508 -0.3362
 2162TP3     H218306   1.975   3.895   9.479 -1.1012 -1.9583 -0.8083
 2163TP3      O18307   4.600   1.435   0.422  0.0424 -0.0263 -0.2271
 2163TP3     H118308   4.625   1.521   0.387  1.2364 -0.2389  0.0640
 2163TP3     H218309   4.508   1.444   0.444 -0.0401  0.9492 -0.9062
 2164TP3      O18310   4.792   1.896   0.549  0.0798 -0.1232  0.1924
 2164TP3     H118311   4.815   1.890   0.642 -1.0492  0.5456  0.5450
 2164TP3     H218312   4.870   1.865   0.503  1.0364  0.4756  1.3360
 2165TP3      O18313   3.022   1.412   0.523  0.1776  0.1152  0.2067
 2165TP3     H118314   2.958   1.469   0.480  0.0829 -1.1687 -1.4135
 2165TP3     H218315   3.094   1.405   0.461  0.1772 -1.5467  0.3609
 2166TP3      O18316   2.621   0.014   0.353  0.4545  0.0655 -0.0268
 2166TP3     H118317   2.633   0.065   0.273 -0.1606 -1.2377 -0.9881
 2166TP3     H218318   2.529  -0.013   0.350  0.5892 -0.5056  0.8097
 2167TP3      O18319   5.037   3.505   9.450  0.1404 -0.3582 -0.0078
 2167TP3     H118320   4.951   3.526   9.486  0.1757  0.9673 -0.6291
 2167TP3     H218321   5.019   3.447   9.377 -0.2606  0.1304 -0.3042
 2168TP3      O18322   2.795   3.761   9.544 -0.1940 -0.3928  0.0968
 2168TP3     H118323   2.801   3.749   9.638  1.4416 -2.9655 -0.2413
 2168TP3     H218324   2.884   3.749   9.512 -0.8225 -0.2774 -1.8529
 2169TP3      O18325   0.222   2.643   8.051  0.2493  0.1105 -0.2012
 2169TP3     H118326   0.185   2.721   8.091  0.4835 -0.4058  1.0516
 2169TP3     H218327   0.235   2.668   7.959  0.7087  1.6750  0.2565
 2170TP3      O18328   3.804   2.198   1.248  0.0505 -0.2472  0.5369
 2170TP3     H118329   3.805   2.291   1.228 -2.6104 -0.1310  0.5993
 2170TP3     H218330   3.802   2.194   1.344  0.3467 -0.3807  0.5384
 2171TP3      O18331   3.002   2.160   0.122  0.4315  0.2401 -0.1432
 2171TP3     H118332   3.088   2.121   0.141  0.5704  0.8666  0.5502
 2171TP3     H218333   2.945   2.085   0.104  0.4599 -0.3849  2.1133
 2172TP3      O18334   3.343   4.625   6.202 -0.2601  0.3325  0.2168
 2172TP3     H118335   3.375   4.711   6.229 -1.9809  1.2318 -0.4507
 2172TP3     H218336   3.250   4.627   6.222 -0.3970 -1.2629 -0.1357
 2173TP3      O18337   4.518   2.123   1.328 -0.0072  0.2563  0.3422
 2173TP3     H118338   4.432   2.083   1.330  0.3460 -0.5020  1.8176
 2173TP3     H218339   4.505   2.210   1.367 -0.1672  0.2826  0.2300
 2174TP3      O18340   2.105   4.934   1.965  0.1286 -0.2396  0.0449
 2174TP3     H118341   2.141   4.972   2.045 -0.7724 -1.2936  0.9821
 2174TP3     H218342   2.016   4.970   1.960  0.1798 -0.1810 -0.4931
 2175TP3      O18343   4.676   3.529   1.432  0.4343 -0.0316 -0.4167
 2175TP3     H118344   4.591   3.490   1.414  0.3223  0.1382 -0.2641
 2175TP3     H218345   4.738   3.457   1.423  0.3137 -0.0791 -0.8681
 2176TP3      O18346   2.679   3.141   8.533 -0.1638  0.1886 -0.1836
 2176TP3     H118347   2.763   3.099   8.553  1.2462  2.6339 -0.5701
 2176TP3     H218348   2.669   3.129   8.439  0.7820  1.5416 -0.4871
 2177TP3      O18349   1.611   4.891   6.996  0.1626 -0.5963 -0.0564
 2177TP3     H118350   1.619   4.841   6.914 -1.2424 -0.2973 -0.4029
 2177TP3     H218351   1.701   4.911   7.020  0.5764  0.4224 -2.2178
 2178TP3      O18352   5.170   2.259   8.865  0.4038 -0.2478  0.2668
 2178TP3     H118353   5.244   2.209   8.831  0.1659 -0.6791  0.3735
 2178TP3     H218354   5.171   2.242   8.959  1.1457  1.0569  0.5078
 2179TP3      O18355   2.333   1.229   9.728  0.3920 -0.2621 -0.4165
 2179TP3     H118356   2.260   1.263   9.676 -0.0292  3.0922  1.9976
 2179TP3     H218357   2.295   1.158   9.780 -0.0027 -1.3675 -2.1259
 2180TP3      O18358   0.211   2.102   8.281  0.1122 -0.4955 -0.4579
 2180TP3     H118359   0.256   2.065   8.205  1.1667  2.6939 -1.5740
 2180TP3     H218360   0.272   2.091   8.353  0.2574 -1.1581 -0.6737
 2181TP3      O18361   3.037   0.259   2.629  0.1142  0.1718 -0.1487
 2181TP3     H118362   2.950   0.276   2.592 -1.3225 -1.0312  2.3759
 2181TP3     H218363   3.031   0.293   2.719  1.9464 -0.7735  0.3743
 2182TP3      O18364   3.917   2.672   2.535  0.2151  0.5368  0.7537
 2182TP3     H118365   3.834   2.677   2.583 -0.6870 -1.8540 -0.4004
 2182TP3     H218366   3.974   2.620   2.593  0.1729  0.3490  0.6296
 2183TP3      O18367   3.876   3.771   0.124  0.5003 -0.1640 -0.2821
 2183TP3     H118368   3.902   3.846   0.178  1.2801  1.2727 -2.5034
 2183TP3     H218369   3.782   3.782   0.112  0.6150  0.4758 -0.6164
 2184TP3      O18370   5.167   4.094   0.059  0.0589 -0.7806 -0.4506
 2184TP3     H118371   5.135   4.082   0.148 -0.1044 -0.5486 -0.4751
 2184TP3     H218372   5.101   4.052   0.004  0.3595 -1.2706 -0.4421
 2185TP3      O18373   1.950   0.182   2.218  0.0591 -0.5844  0.3116
 2185TP3     H118374   1.888   0.153   2.151  0.4399 -1.1145  0.1897
 2185TP3     H218375   1.945   0.278   2.215 -0.5354 -0.6191  0.0987
 2186TP3      O18376   2.179   4.079   9.642 -1.0193  0.3540  0.4117
 2186TP3     H118377   2.140   4.070   9.555 -0.3533 -0.5769  0.1991
 2186TP3     H218378   2.144   4.162   9.675 -1.3050  0.7069 -0.7290
 2187TP3      O18379   0.482   0.692   2.394 -0.3377  0.1243  0.5116
 2187TP3     H118380   0.483   0.639   2.474  0.5523 -0.6723 -0.0078
 2187TP3     H218381   0.571   0.728   2.388 -0.5160  0.5071  0.0883
 2188TP3      O18382   2.150   1.172   8.830 -0.3279  0.5132  0.2503
 2188TP3     H118383   2.169   1.116   8.905 -1.6486  0.9064  0.9199
 2188TP3     H218384   2.063   1.145   8.801  0.0316  0.5863 -0.9578
 2189TP3      O18385   3.965   1.499   1.010  0.2492 -0.1736 -0.3361
 2189TP3     H118386   3.956   1.512   0.915  1.4260  2.2259 -0.2026
 2189TP3     H218387   3.950   1.406   1.023  1.5099 -0.8560 -3.0837
 2190TP3      O18388   3.205   5.070   1.789 -0.3351  0.1899  0.3624
 2190TP3     H118389   3.201   5.147   1.845 -0.5743  0.5737 -0.1669
 2190TP3     H218390   3.132   5.082   1.727 -1.2859 -1.1911  1.1791
 2191TP3      O18391   2.830   2.226   1.955  0.1561 -0.2085 -0.5460
 2191TP3     H118392   2.789   2.156   1.904  2.6780 -1.7477 -0.6408
 2191TP3     H218393   2.839   2.189   2.043 -1.8179  1.4673  0.4358
 2192TP3      O18394   0.503   1.719   7.218  0.8927  0.4848 -0.2597
 2192TP3     H118395   0.489   1.810   7.244  4.3032  1.1372 -0.3067
 2192TP3     H218396   0.551   1.725   7.135 -0.1117 -1.4215 -1.0422
 2193TP3      O18397   0.537   1.289   0.584 -0.0090 -0.0964  0.2320
 2193TP3     H118398   0.467   1.316   0.525 -0.1095 -0.1118  0.3426
 2193TP3     H218399   0.571   1.207   0.547  1.6364  1.1701 -1.2174
 2194TP3      O18400   5.152   3.958   7.746  0.3036  0.0076  0.3472
 2194TP3     H118401   5.147   4.046   7.784  0.6156 -0.0427  0.5109
 2194TP3     H218402   5.062   3.926   7.749 -0.0852  0.8760 -1.0685
 2195TP3      O18403   4.098   3.546   0.142  0.5369 -0.9221 -0.2500
 2195TP3     H118404   4.132   3.500   0.065  0.5583  1.5250 -1.8099
 2195TP3     H218405   4.163   3.532   0.210  1.4635 -1.5893 -1.2488
 2196TP3      O18406   0.792   0.680   0.209 -0.1373 -0.6038 -0.3926
 2196TP3     H118407   0.791   0.766   0.167 -1.4797 -0.6509 -0.4927
 2196TP3     H218408   0.805   0.698   0.302 -2.9638 -0.0600 -0.0165
 2197TP3      O18409   4.366   5.093   0.687  0.1635  0.3249  0.3062
 2197TP3     H118410   4.414   5.066   0.765 -0.5419  0.5695  0.8365
 2197TP3     H218411   4.354   5.188   0.698  0.3260  0.4145 -0.2520
 2198TP3      O18412   2.396   3.065   8.638 -0.0952 -0.5502  0.4170
 2198TP3     H118413   2.409   3.134   8.703 -2.5888 -0.2053  0.6651
 2198TP3     H218414   2.448   3.092   8.563 -0.7941  1.4740  0.6173
 2199TP3      O18415   3.141   1.549   6.930 -0.1099  0.4342 -0.3796
 2199TP3     H118416   3.214   1.611   6.926  0.2874 -0.0067 -0.1381
 2199TP3     H218417   3.179   1.469   6.967 -0.6854  0.1506 -0.3767
 2200TP3      O18418   1.095   2.084   0.689 -0.1864 -0.1728 -0.4683
 2200TP3     H118419   1.003   2.061   0.691  0.0685 -1.2732 -0.5406
 2200TP3     H218420   1.123   2.082   0.781 -0.6323  1.9742 -0.2441
 2201TP3      O18421   4.068   1.513   1.569 -0.1035 -0.7374  0.5955
 2201TP3     H118422   4.040   1.462   1.646 -1.7573 -2.7094 -1.2013
 2201TP3     H218423   4.021   1.474   1.496  1.3104  1.1633 -1.4515
 2202TP3      O18424   2.565   3.996   0.115 -0.3795 -0.0352 -0.4846
 2202TP3     H118425   2.492   4.047   0.081  0.0290  0.4113 -0.7054
 2202TP3     H218426   2.558   4.004   0.210 -1.7320 -1.5733 -0.3980
 2203TP3      O18427   1.994   3.925   7.790  0.4219  0.0379  0.1998
 2203TP3     H118428   1.963   3.967   7.870 -0.8999  0.9456 -0.7482
 2203TP3     H218429   1.985   3.831   7.807 -0.1246  0.2299  1.0140
 2204TP3      O18430   4.485   2.172   6.965 -0.5050  0.4472  0.6758
 2204TP3     H118431   4.530   2.117   7.028  0.1293  0.2698  0.0749
 2204TP3     H218432   4.398   2.187   7.003 -1.0363 -1.7243  0.4236
 2205TP3      O18433   0.640   4.155   8.542  0.0458 -0.2278  1.1549
 2205TP3     H118434   0.638   4.184   8.634  0.8382 -0.6973  1.3330
 2205TP3     H218435   0.727   4.180   8.511 -1.0354  2.1424 -0.2429
 2206TP3      O18436   2.762   1.231   9.747 -0.1014 -0.4293 -0.0124
 2206TP3     H118437   2.717   1.316   9.741  0.6698 -0.0872 -1.4664
 2206TP3     H218438   2.694   1.167   9.727  0.0533  0.1109 -2.6555
 2207TP3      O18439   4.508   4.095   1.081  0.4013  0.0280  0.4945
 2207TP3     H118440   4.414   4.079   1.085  0.4168  0.1260  2.0512
 2207TP3     H218441   4.548   4.008   1.084  0.3545  0.0056  0.4397
 2208TP3      O18442   2.918   4.792   8.892  0.1419  0.2224  0.4906
 2208TP3     H118443   2.856   4.863   8.908 -0.9451 -0.8505  1.1566
 2208TP3     H218444   2.864   4.715   8.876  1.3014 -0.5660  0.2252
 2209TP3      O18445   5.288   2.884   9.113  0.1869 -0.3894  0.3972
 2209TP3     H118446   5.243   2.910   9.033 -0.5437 -0.1771  0.8577
 2209TP3     H218447   5.256   2.795   9.130 -0.3379 -0.1084  0.9125
 2210TP3      O18448   3.427   1.927   2.773  0.2352  0.5335  0.3085
 2210TP3     H118449   3.388   1.902   2.857  0.3013 -0.0609  0.1695
 2210TP3     H218450   3.356   1.917   2.710  0.4917 -0.1741  0.1159
 2211TP3      O18451   4.398   4.812   2.655  0.4112 -0.0854 -0.0773
 2211TP3     H118452   4.340   4.881   2.622  0.2184 -0.2207 -0.0238
 2211TP3     H218453   4.461   4.859   2.709  0.8516  0.1587 -0.7914
 2212TP3      O18454   0.579   1.564   1.302 -0.2602  0.9640  0.2655
 2212TP3     H118455   0.659   1.542   1.253 -0.5180  1.1010 -0.2174
 2212TP3     H218456   0.550   1.481   1.338  1.0005  1.1392  1.8296
 2213TP3      O18457   3.822   2.473   1.299  0.4241  0.1034  0.1528
 2213TP3     H118458   3.839   2.437   1.386  0.1044 -0.9092 -0.1953
 2213TP3     H218459   3.842   2.566   1.308 -0.1216  0.1211  1.4583
 2214TP3      O18460   4.576   5.224   8.986 -0.7537 -0.1354  0.4537
 2214TP3     H118461   4.631   5.146   8.988 -1.0531 -0.3737 -0.4763
 2214TP3     H218462   4.603   5.271   8.907 -1.0052  0.3945  0.6777
 2215TP3      O18463   3.373   2.464   1.576 -0.3704  0.2647  0.7133
 2215TP3     H118464   3.419   2.406   1.636 -2.1466 -1.2438  0.7149
 2215TP3     H218465   3.294   2.491   1.624 -0.3400  1.4519  0.1357
 2216TP3      O18466   1.051   1.076   8.066  0.2188  0.0299 -0.1722
 2216TP3     H118467   1.025   1.002   8.012  1.3349 -0.3078 -0.2629
 2216TP3     H218468   1.062   1.149   8.004  0.8105 -0.1768 -0.3145
 2217TP3      O18469   3.446   1.561   0.200 -0.0778 -0.0610  0.3557
 2217TP3     H118470   3.497   1.602   0.270 -0.0027 -3.4806  2.5348
 2217TP3     H218471   3.361   1.542   0.240 -1.4759  1.3257 -1.7641
 2218TP3      O18472   4.260   4.061   0.186  0.7273 -0.1254  0.3700
 2218TP3     H118473   4.179   4.040   0.139  0.2913 -0.7595  1.3696
 2218TP3     H218474   4.232   4.081   0.275  1.6636 -0.2812  0.7166
 2219TP3      O18475   4.900   3.890   9.649 -0.1426  0.5385 -0.6422
 2219TP3     H118476   4.828   3.953   9.656 -1.3700 -0.4117 -3.2069
 2219TP3     H218477   4.975   3.942   9.621  0.2153  1.5219  1.9314
 2220TP3      O18478   1.616   3.621   2.173 -0.1079  0.4390 -0.4332
 2220TP3     H118479   1.573   3.665   2.100 -0.2402  0.5834 -0.2689
 2220TP3     H218480   1.665   3.690   2.217 -1.2749  0.6917  0.5439
 2221TP3      O18481   4.157   0.288   2.707  0.7281  0.1056  0.4824
 2221TP3     H118482   4.094   0.312   2.639  0.6883  0.2590  0.5733
 2221TP3     H218483   4.237   0.334   2.683  0.1792  1.7253  1.5749
 2222TP3      O18484   0.916   0.376   1.131 -0.1778 -0.2571 -0.1158
 2222TP3     H118485   0.994   0.356   1.081  0.0573 -0.3778  0.2903
 2222TP3     H218486   0.907   0.303   1.193 -0.6824 -0.3105 -0.2448
 2223TP3      O18487   2.167   1.770   9.863  0.3177 -0.5732 -0.2668
 2223TP3     H118488   2.241   1.806   9.912  1.0386  0.4680 -2.0179
 2223TP3     H218489   2.090   1.796   9.914  0.9026  2.2945 -0.6364
 2224TP3      O18490   1.302   2.264   0.668  0.0525 -0.2676  0.1241
 2224TP3     H118491   1.347   2.258   0.584 -0.6942  1.4627 -0.4376
 2224TP3     H218492   1.227   2.205   0.659 -0.5003  0.5585 -0.7508
 2225TP3      O18493   4.766   2.222   3.615  0.6821 -0.4051  0.7239
 2225TP3     H118494   4.791   2.312   3.595 -0.5216 -0.5502 -1.9749
 2225TP3     H218495   4.728   2.226   3.702 -0.2149  1.9063  0.2891
 2226TP3      O18496   4.423   2.032   3.066  0.0312  0.2754  0.0291
 2226TP3     H118497   4.331   2.055   3.052 -0.1445  1.0697  2.1063
 2226TP3     H218498   4.429   1.939   3.044 -1.2318  0.2411 -0.2406
 2227TP3      O18499   2.803   2.189   8.717 -0.2011  0.5984  1.4703
 2227TP3     H118500   2.733   2.243   8.680  0.6677  2.1535  1.9934
 2227TP3     H218501   2.764   2.151   8.796 -1.1089 -0.3202  0.6219
 2228TP3      O18502   3.691   0.762   2.969 -0.0569 -0.4693  0.1525
 2228TP3     H118503   3.622   0.825   2.988  2.0428  1.9119  0.5844
 2228TP3     H218504   3.754   0.773   3.040  1.6292 -1.1332 -1.1494
 2229TP3      O18505   3.833   3.241   2.604 -0.5411 -0.1503 -0.4884
 2229TP3     H118506   3.737   3.241   2.604 -0.5566  0.2997  0.5548
 2229TP3     H218507   3.857   3.316   2.659  0.4135 -0.3790 -0.5694
 2230TP3      O18508   5.100   3.279   9.815  0.0955  0.2623  0.5360
 2230TP3     H118509   5.024   3.313   9.862  0.0972  1.3049 -0.1919
 2230TP3     H218510   5.170   3.342   9.833  1.0265 -1.0790  1.8097
 2231TP3      O18511   2.487   2.554   0.208 -0.6823  0.3218 -0.1368
 2231TP3     H118512   2.581   2.570   0.214 -0.6175  0.2048 -0.7992
 2231TP3     H218513   2.449   2.641   0.193 -0.5736  0.2170 -1.0332
 2232TP3      O18514   4.099   2.700   9.634  0.0030 -0.5457  0.4760
 2232TP3     H118515   4.024   2.655   9.595  0.2151 -0.5185  0.0249
 2232TP3     H218516   4.066   2.786   9.658 -0.0819 -0.4879  0.1585
 2233TP3      O18517   4.750   1.588   6.903 -0.3218  0.0283 -0.0751
 2233TP3     H118518   4.818   1.654   6.893  0.2853 -0.4602  0.6904
 2233TP3     H218519   4.668   1.637   6.899  0.0243  0.5269 -1.8414
 2234TP3      O18520   0.190   5.198   0.545 -0.2061  0.1489  0.3229
 2234TP3     H118521   0.146   5.125   0.589  1.6441 -1.0814  0.2354
 2234TP3     H218522   0.246   5.237   0.612 -0.5972  1.0106  0.1619
 2235TP3      O18523   3.666   2.668   0.881  0.7212 -0.3153 -0.5268
 2235TP3     H118524   3.637   2.662   0.789  0.1701  0.2020 -0.3933
 2235TP3     H218525   3.724   2.744   0.883  1.5721 -0.9449 -0.6511
 2236TP3      O18526   3.566   3.967   3.223  0.4054  0.6077 -0.7440
 2236TP3     H118527   3.594   3.960   3.315  1.9273 -0.8864 -1.2705
 2236TP3     H218528   3.498   3.900   3.214  1.9011 -0.9248 -1.2231
 2237TP3      O18529   2.985   4.669   1.580  0.3226 -0.2600  0.3269
 2237TP3     H118530   3.039   4.612   1.525 -0.7375 -1.6280  0.6244
 2237TP3     H218531   2.966   4.616   1.658  0.7632  1.1785  1.4493
 2238TP3      O18532   5.112   0.174   1.041  0.0876  0.1926 -0.1043
 2238TP3     H118533   5.038   0.177   1.101 -0.3986  1.9924 -0.7426
 2238TP3     H218534   5.188   0.165   1.097 -0.4663  0.3663  0.6854
 2239TP3      O18535   2.728   1.757   1.334 -0.0242  0.5960 -0.6868
 2239TP3     H118536   2.740   1.816   1.259  1.1935  0.1266 -0.8871
 2239TP3     H218537   2.658   1.697   1.306 -1.7803  2.3173 -0.2099
 2240TP3      O18538   2.765   0.312   9.525 -0.0214 -0.4826 -0.2254
 2240TP3     H118539   2.672   0.334   9.532  0.3854  0.9899  1.3630
 2240TP3     H218540   2.777   0.291   9.433 -1.6995  0.4561 -0.7151
 2241TP3      O18541   3.821   4.712   3.114 -0.4083  0.3351 -0.0284
 2241TP3     H118542   3.762   4.651   3.070 -1.5366  2.0559 -1.0801
 2241TP3     H218543   3.860   4.762   3.042 -0.1482  1.3713  0.8111
 2242TP3      O18544   2.649   0.061   2.231  0.2302  0.4603  0.2627
 2242TP3     H118545   2.652   0.114   2.152  1.1133  0.1873  0.1078
 2242TP3     H218546   2.571   0.006   2.220 -0.5473  1.5120  0.3041
 2243TP3      O18547   4.987   4.363   6.927  0.3788  0.3351  0.2161
 2243TP3     H118548   4.934   4.423   6.874  0.7213  0.3001 -0.1733
 2243TP3     H218549   5.066   4.412   6.947  0.6167  0.0504 -0.0151
 2244TP3      O18550   0.169   4.395  10.078  0.3913  0.0599 -0.1343
 2244TP3     H118551   0.165   4.491  10.087 -1.7740  0.1879 -1.6811
 2244TP3     H218552   0.167   4.363  10.168  0.5893  1.4590  0.3945
 2245TP3      O18553   4.899   4.368   2.940  0.1564  0.4170  0.0512
 2245TP3     H118554   4.891   4.376   3.035  0.0093  1.1281 -0.0167
 2245TP3     H218555   4.926   4.455   2.910 -0.8127  0.4937 -0.6665
 2246TP3      O18556   1.723   0.821   1.249  0.0510  0.3795  0.4451
 2246TP3     H118557   1.682   0.779   1.325  1.3593  0.5070  1.2377
 2246TP3     H218558   1.666   0.797   1.175 -0.4991 -0.8572  1.2428
 2247TP3      O18559   4.513   5.060   0.454 -0.2629  0.3937 -0.1604
 2247TP3     H118560   4.596   5.071   0.500 -0.5205  0.6950  0.2374
 2247TP3     H218561   4.447   5.072   0.521 -0.6261 -0.1682 -0.4137
 2248TP3      O18562   1.009   0.501   1.774  0.4725 -0.4065 -0.0912
 2248TP3     H118563   1.018   0.578   1.718 -1.1415 -1.1189 -1.4407
 2248TP3     H218564   0.946   0.446   1.728  0.9141 -2.1426  1.2748
 2249TP3      O18565   1.779   4.561   2.685  0.2798  0.7203 -0.1805
 2249TP3     H118566   1.733   4.566   2.601  1.4607  1.3387 -0.8010
 2249TP3     H218567   1.835   4.484   2.676  1.4667  1.6100 -0.5102
 2250TP3      O18568   3.793   0.836   1.690  0.0295  0.2448  0.2166
 2250TP3     H118569   3.821   0.918   1.649  0.2237  0.0591 -0.0273
 2250TP3     H218570   3.740   0.863   1.765  0.3507  0.5938  0.3182
 2251TP3      O18571   5.247   1.305   0.755 -0.3766  0.0790  0.5196
 2251TP3     H118572   5.156   1.309   0.725 -1.2172  1.2201  2.9112
 2251TP3     H218573   5.299   1.330   0.679 -2.1301  0.5579 -0.5889
 2252TP3      O18574   1.213   2.658   0.287  0.6168  0.5429 -0.1510
 2252TP3     H118575   1.155   2.604   0.233  1.0842 -0.9050  0.7370
 2252TP3     H218576   1.171   2.744   0.288 -0.8893 -0.1479 -0.5110
 2253TP3      O18577   3.920   4.197   2.443  0.2116 -0.0293  0.0946
 2253TP3     H118578   3.847   4.154   2.398  0.0979 -0.9639  1.1255
 2253TP3     H218579   3.948   4.265   2.383 -1.4765  0.3241 -0.3553
 2254TP3      O18580   4.106   1.965   7.549 -0.6144  0.0432  0.0735
 2254TP3     H118581   4.110   1.945   7.455  0.1026  2.0691 -0.3783
 2254TP3     H218582   4.185   1.927   7.585 -0.1024  0.5835 -0.4547
 2255TP3      O18583   4.493   3.277   6.306  0.4982  0.3806  0.2776
 2255TP3     H118584   4.580   3.312   6.324  1.5699 -2.2608  0.6743
 2255TP3     H218585   4.496   3.187   6.340 -2.5634  0.3737  0.7685
 2256TP3      O18586   1.574   2.478   1.475  0.1055 -0.0039  0.0743
 2256TP3     H118587   1.603   2.548   1.534 -0.8584  0.4189  0.0708
 2256TP3     H218588   1.511   2.521   1.417 -0.9439 -1.0029  0.4492
 2257TP3      O18589   1.500   4.368   2.125  0.0447 -0.1582 -0.5642
 2257TP3     H118590   1.589   4.334   2.129 -1.1701 -3.6533  0.4918
 2257TP3     H218591   1.478   4.368   2.032  0.7661 -0.4142 -0.7410
 2258TP3      O18592   3.539   2.735   8.104  0.6362 -0.0374  0.1876
 2258TP3     H118593   3.518   2.642   8.102  1.6604 -0.2974  0.6298
 2258TP3     H218594   3.623   2.742   8.059  0.2314  0.7820 -0.4762
 2259TP3      O18595   5.243   1.770   1.583  0.6724  0.0398  0.1612
 2259TP3     H118596   5.238   1.692   1.638  0.2685  0.4517  0.7114
 2259TP3     H218597   5.191   1.748   1.506  2.5145 -1.1398 -0.8346
 2260TP3      O18598   3.744   4.730   1.085 -0.0038  0.3692 -0.3385
 2260TP3     H118599   3.780   4.791   1.149 -0.1792  1.2548 -1.0723
 2260TP3     H218600   3.662   4.699   1.126  0.2081  0.4242  0.1391
 2261TP3      O18601   1.172   2.657   2.183  0.4297 -0.9845 -0.6686
 2261TP3     H118602   1.163   2.672   2.277  1.0177 -0.1670 -0.7291
 2261TP3     H218603   1.224   2.577   2.176  1.3745 -0.4280 -0.2766
 2262TP3      O18604   0.952   4.337   0.891 -0.2786 -0.1379  0.2004
 2262TP3     H118605   0.878   4.292   0.931 -1.0159 -0.3157 -1.2893
 2262TP3     H218606   0.936   4.330   0.797  1.5269  0.0014 -0.1601
 2263TP3      O18607   4.045   3.020   8.582  0.2335  0.2170 -0.0923
 2263TP3     H118608   4.048   2.926   8.602  1.8219 -0.1817 -1.8479
 2263TP3     H218609   3.952   3.040   8.572 -0.0625 -1.5775 -1.3249
 2264TP3      O18610   4.208   0.691   0.173 -0.0765 -0.0369  0.0362
 2264TP3     H118611   4.296   0.724   0.189 -0.3760 -0.0403  1.8919
 2264TP3     H218612   4.156   0.769   0.154  0.4859 -0.1255 -2.1273
 2265TP3      O18613   0.071   2.627   3.949  0.1027 -0.2866  0.1033
 2265TP3     H118614   0.064   2.720   3.970  0.4462  0.0271 -1.0630
 2265TP3     H218615   0.131   2.624   3.875  1.7279 -1.6418  1.3939
 2266TP3      O18616   0.442   1.064   9.401  0.6608 -0.1136  0.4344
 2266TP3     H118617   0.365   1.115   9.375  0.0820 -1.2179 -0.0673
 2266TP3     H218618   0.517   1.116   9.371  0.0792  0.3519 -0.2266
 2267TP3      O18619   3.690   4.285   8.490  0.2793 -0.5185  0.3916
 2267TP3     H118620   3.632   4.277   8.415 -0.0130 -0.6887  0.6316
 2267TP3     H218621   3.677   4.204   8.539  1.3587 -0.9426  0.0071
 2268TP3      O18622   0.975   0.391   2.852  0.1806 -0.5644  0.4007
 2268TP3     H118623   1.057   0.380   2.803 -1.3024  1.9503 -2.9887
 2268TP3     H218624   0.979   0.480   2.886 -2.0461  0.5670 -1.9744
 2269TP3      O18625   3.805   2.662   9.424  0.0513  0.5801  0.5603
 2269TP3     H118626   3.762   2.601   9.484  0.2410  1.2097  1.3465
 2269TP3     H218627   3.740   2.731   9.411 -0.2081  0.1744 -0.4213
 2270TP3      O18628   1.377   4.230   9.874 -0.2026 -0.5890 -0.2307
 2270TP3     H118629   1.329   4.148   9.881  1.4701 -1.5459  0.7841
 2270TP3     H218630   1.430   4.220   9.795 -1.1512  0.2038 -0.9973
 2271TP3      O18631   3.102   1.845   0.785  0.0886  0.2632 -0.3637
 2271TP3     H118632   3.188   1.839   0.744  0.6036  1.0362  0.5495
 2271TP3     H218633   3.102   1.777   0.852 -1.2423 -1.8837 -2.4018
 2272TP3      O18634   4.574   4.026   0.380 -0.2005 -0.1036  0.0821
 2272TP3     H118635   4.517   3.984   0.445 -0.8342 -0.9720 -0.9959
 2272TP3     H218636   4.531   4.009   0.297  2.0503 -1.5074 -0.8845
 2273TP3      O18637   2.677   0.120   1.758 -0.2298 -0.3356 -0.3101
 2273TP3     H118638   2.757   0.116   1.705 -1.0614 -1.5690 -1.5541
 2273TP3     H218639   2.631   0.197   1.726  0.8656  0.9744  1.1026
 2274TP3      O18640   4.029   4.819   2.888  0.0238 -0.3704 -0.4713
 2274TP3     H118641   4.012   4.734   2.846 -0.6871 -0.9554  0.9358
 2274TP3     H218642   4.038   4.880   2.815 -2.2514 -1.1248 -1.4837
 2275TP3      O18643   3.536   5.061   0.097 -0.0139 -0.2344 -0.4426
 2275TP3     H118644   3.478   5.138   0.104  0.4451  0.0192  0.9200
 2275TP3     H218645   3.483   4.989   0.129  0.0314 -0.2241 -0.3449
 2276TP3      O18646   1.448   2.359   9.001  0.2628 -0.0854  0.9100
 2276TP3     H118647   1.479   2.268   9.008  0.4860  0.0620  2.1560
 2276TP3     H218648   1.413   2.379   9.088  0.4865  1.1154  0.7426
 2277TP3      O18649   1.014   1.856   9.470  0.3307  0.0557  0.0062
 2277TP3     H118650   1.030   1.946   9.497  0.0339 -0.1061  0.7537
 2277TP3     H218651   1.097   1.811   9.485  0.2754  0.0518  0.3166
 2278TP3      O18652   3.640   2.020   0.074 -0.2434  0.5776  0.3776
 2278TP3     H118653   3.584   1.955   0.033 -0.7329  0.8217  0.6589
 2278TP3     H218654   3.713   2.030   0.013 -0.1770 -0.2101  0.3207
 2279TP3      O18655   4.854   4.215   8.645  0.0523  0.5959  0.2878
 2279TP3     H118656   4.885   4.206   8.735 -0.0896 -0.8067  0.2197
 2279TP3     H218657   4.815   4.302   8.642  3.0941  2.0968  0.6250
 2280TP3      O18658   4.664   0.037   1.252 -0.1041 -0.4568 -0.3845
 2280TP3     H118659   4.599  -0.028   1.225 -0.0984 -0.0454 -1.4577
 2280TP3     H218660   4.719  -0.009   1.315 -1.3409 -0.8558  0.4508
 2281TP3      O18661   4.509   0.251   0.205 -0.2737 -0.0258  0.3873
 2281TP3     H118662   4.525   0.192   0.278 -1.0256 -0.6380  0.0742
 2281TP3     H218663   4.416   0.239   0.185 -0.9935  2.6708  1.5622
 2282TP3      O18664   1.721   1.661   0.484 -0.6009  0.1025 -0.3266
 2282TP3     H118665   1.752   1.571   0.473 -0.6706 -0.0853  0.8461
 2282TP3     H218666   1.630   1.659   0.455 -0.3237  0.0307 -1.2221
 2283TP3      O18667   4.322   3.148   8.280 -0.3342  0.1735  0.2871
 2283TP3     H118668   4.234   3.182   8.295 -0.2005  0.5671  0.1834
 2283TP3     H218669   4.321   3.119   8.188 -0.7843 -1.1333  0.6838
 2284TP3      O18670   3.059   5.079   0.435  0.1700  0.2586  0.0233
 2284TP3     H118671   3.030   4.989   0.449 -2.0336  0.2970 -3.3867
 2284TP3     H218672   3.031   5.126   0.514 -1.8008 -1.3865  0.3715
 2285TP3      O18673   4.841   1.119   3.571  0.3323  0.2510 -0.8980
 2285TP3     H118674   4.935   1.121   3.583  0.2129  2.2955  0.2016
 2285TP3     H218675   4.826   1.169   3.490  0.0916  2.3275  0.3598
 2286TP3      O18676   0.328   2.623   9.794  0.0640  0.8023  0.5197
 2286TP3     H118677   0.365   2.551   9.846  0.7559  0.5911 -0.2416
 2286TP3     H218678   0.400   2.684   9.782  0.5855 -0.1820 -2.0010
 2287TP3      O18679   1.353   3.997  10.053  0.4365 -0.1145  0.2020
 2287TP3     H118680   1.368   3.903  10.039 -0.0397 -0.0493 -0.8672
 2287TP3     H218681   1.266   4.013  10.016  1.4417  1.1742 -1.8151
 2288TP3      O18682   1.255   0.663   8.262 -0.2268 -0.6246 -0.5023
 2288TP3     H118683   1.186   0.729   8.273  0.5381  0.2521 -0.8206
 2288TP3     H218684   1.305   0.667   8.344 -1.7186 -2.7066  0.6019
 2289TP3      O18685   3.855   3.798   1.594 -0.0402  0.0517 -0.3368
 2289TP3     H118686   3.865   3.831   1.504  0.2425  2.2052  0.4227
 2289TP3     H218687   3.918   3.726   1.600  1.5809  1.3223 -1.2417
 2290TP3      O18688   2.570   1.844   0.968  0.0295 -0.1517  0.0902
 2290TP3     H118689   2.655   1.829   1.009  0.5037 -2.5757 -1.5507
 2290TP3     H218690   2.585   1.914   0.905  1.1767 -1.3201 -1.0027
 2291TP3      O18691   3.540   1.198   2.006 -0.1118 -0.9630  0.7325
 2291TP3     H118692   3.461   1.225   1.959  0.5756  0.0477  0.1032
 2291TP3     H218693   3.568   1.118   1.963  0.4321 -0.1234 -0.5360
 2292TP3      O18694   4.196   1.356   0.180 -0.4206  0.1330  0.8282
 2292TP3     H118695   4.190   1.342   0.085  0.8017  1.1493  0.5817
 2292TP3     H218696   4.105   1.365   0.208 -0.8048 -0.1886 -0.2338
 2293TP3      O18697   4.792   4.583   6.827 -0.4234 -0.0419  0.5811
 2293TP3     H118698   4.766   4.572   6.736  0.2820  0.7819  0.2618
 2293TP3     H218699   4.780   4.677   6.845 -0.1951 -0.1267  1.2158
 2294TP3      O18700   3.130   1.683   2.051 -0.0949  0.3750  0.2068
 2294TP3     H118701   3.195   1.752   2.036  0.1787  0.3425  1.1768
 2294TP3     H218702   3.048   1.729   2.065 -0.4557  0.3985 -1.6713
 2295TP3      O18703   1.521   3.013   7.470 -0.1231 -0.3822 -0.2461
 2295TP3     H118704   1.606   2.982   7.438 -0.1470 -2.0776  1.1915
 2295TP3     H218705   1.537   3.105   7.493  1.8073 -1.0654  1.4655
 2296TP3      O18706   2.129   4.057   7.025  0.0544  0.1920 -0.1733
 2296TP3     H118707   2.125   3.968   7.061 -0.1807  0.6468  0.9836
 2296TP3     H218708   2.045   4.069   6.982 -0.0542 -0.0241 -0.0262
 2297TP3      O18709   4.709   3.804   7.939  0.2796  0.0144  0.0800
 2297TP3     H118710   4.621   3.831   7.968 -0.1563  1.8454 -2.5424
 2297TP3     H218711   4.756   3.887   7.927  1.6699 -0.8393 -0.5562
 2298TP3      O18712   4.391   3.170   1.399  0.0222  0.1196  0.2758
 2298TP3     H118713   4.481   3.135   1.400 -0.2756 -0.6442  1.3188
 2298TP3     H218714   4.360   3.159   1.488 -0.6861  1.5448  0.2178
 2299TP3      O18715   0.582   2.914   7.858  0.1563  0.0186  0.2706
 2299TP3     H118716   0.526   2.972   7.806  1.5866  1.0366 -0.2083
 2299TP3     H218717   0.638   2.973   7.908  0.2647 -0.9714  1.3555
 2300TP3      O18718   1.281   0.179   1.178  0.2872 -0.0501  0.1715
 2300TP3     H118719   1.374   0.167   1.161  0.0397 -0.8670 -0.7037
 2300TP3     H218720   1.258   0.258   1.129  0.6764  0.6062  1.0348
 2301TP3      O18721   4.581   0.284   1.206 -0.4621 -0.0951  0.0431
 2301TP3     H118722   4.634   0.206   1.222  3.0302  2.1245  0.3413
 2301TP3     H218723   4.552   0.312   1.293 -0.9335 -0.5440  0.0315
 2302TP3      O18724   0.917   3.922   8.606 -0.0414 -0.5067 -0.6958
 2302TP3     H118725   0.959   3.930   8.691 -2.2832 -0.0669  0.4452
 2302TP3     H218726   0.833   3.879   8.625 -1.4010  1.2190 -2.3676
 2303TP3      O18727   3.666   4.300   9.419  0.1260 -0.1846 -0.2891
 2303TP3     H118728   3.754   4.338   9.427 -0.1179  0.2650  0.3281
 2303TP3     H218729   3.675   4.235   9.350  1.1563 -0.7163  0.3159
 2304TP3      O18730   1.781   0.226   7.574  0.6584  0.6729 -0.1209
 2304TP3     H118731   1.749   0.149   7.527  0.8938 -1.0377  2.2918
 2304TP3     H218732   1.876   0.224   7.562  0.9592 -0.9799  1.9383
 2305TP3      O18733   0.984   5.031   2.944  0.0912  0.2439  0.2526
 2305TP3     H118734   1.037   4.951   2.934  0.3407  0.5620 -1.3147
 2305TP3     H218735   0.899   4.999   2.974 -0.2896 -0.8217 -1.7725
 2306TP3      O18736   4.444   2.341   7.933 -0.3049 -0.0233  0.1593
 2306TP3     H118737   4.462   2.263   7.880  1.2434  2.4686 -3.4020
 2306TP3     H218738   4.367   2.380   7.892  0.9728  2.0272 -0.4331
 2307TP3      O18739   3.508   3.725   3.021 -0.4219  0.2849 -0.5144
 2307TP3     H118740   3.432   3.751   3.072 -0.2864 -0.1809 -0.0644
 2307TP3     H218741   3.521   3.796   2.958 -2.1742 -0.3605 -1.6533
 2308TP3      O18742   3.268   3.625   7.904 -0.1681 -0.0021 -0.6963
 2308TP3     H118743   3.208   3.632   7.830 -0.0181 -2.7189 -1.1450
 2308TP3     H218744   3.281   3.716   7.932 -0.9594  1.0308 -3.3741
 2309TP3      O18745   0.198   0.622   7.238  0.3739  0.0645  0.1049
 2309TP3     H118746   0.286   0.600   7.207  0.3633  2.2472 -1.7052
 2309TP3     H218747   0.144   0.615   7.159 -0.5367  1.4068  0.5862
 2310TP3      O18748   0.599   2.417   3.021 -0.1502  0.4396 -0.6963
 2310TP3     H118749   0.616   2.484   3.088 -0.0857 -0.3848  0.1390
 2310TP3     H218750   0.683   2.404   2.978  0.4083 -0.6988  0.6683
 2311TP3      O18751   3.987   2.258   3.640 -0.6402  0.2521  0.6131
 2311TP3     H118752   4.038   2.337   3.623  1.6877 -1.2199  0.3080
 2311TP3     H218753   3.954   2.232   3.554 -1.1390  0.6982  0.6650
 2312TP3      O18754   4.991   3.125   4.220 -0.2572 -0.2110  0.4915
 2312TP3     H118755   5.024   3.049   4.171  1.7888  0.7002  0.3243
 2312TP3     H218756   5.016   3.200   4.165 -1.1875  0.6417  1.2139
 2313TP3      O18757   4.601   3.168   0.763 -0.2387 -0.1098  0.1571
 2313TP3     H118758   4.571   3.077   0.772 -0.5526  0.1045  1.3749
 2313TP3     H218759   4.692   3.159   0.732  0.5037 -0.9231  2.3744
 2314TP3      O18760   0.512   4.668   0.493  0.2359  0.0884 -0.0612
 2314TP3     H118761   0.501   4.627   0.579 -0.1983  0.4758  0.0693
 2314TP3     H218762   0.432   4.719   0.480  0.8108  0.9724 -0.1837
 2315TP3      O18763   2.201   4.129   0.615  0.5629  0.1579 -0.0169
 2315TP3     H118764   2.176   4.124   0.523  0.2365  1.6274 -0.0454
 2315TP3     H218765   2.182   4.043   0.651  0.2186 -0.2750 -1.2163
 2316TP3      O18766   4.435   1.055   9.969 -0.0479 -0.4555 -0.2051
 2316TP3     H118767   4.375   0.980   9.978  1.3459 -1.4141  2.2613
 2316TP3     H218768   4.404   1.102   9.892 -1.9239 -2.7261 -0.9488
 2317TP3      O18769   0.815   0.734   8.501  0.1113  0.0422 -0.1347
 2317TP3     H118770   0.891   0.706   8.551 -0.4452 -0.4593  0.4345
 2317TP3     H218771   0.744   0.739   8.565 -0.6814 -0.9117 -0.9110
 2318TP3      O18772   0.857   3.572   7.247  0.2101 -0.1646 -0.1064
 2318TP3     H118773   0.763   3.555   7.245 -0.4556  2.8126  0.6773
 2318TP3     H218774   0.893   3.501   7.301 -1.6792 -1.0098  0.1167
 2319TP3      O18775   1.274   0.249   8.032  0.5891  0.0962 -0.0109
 2319TP3     H118776   1.265   0.240   8.127  0.9818 -1.6152 -0.1196
 2319TP3     H218777   1.336   0.321   8.021  1.1924 -0.2444  1.0486
 2320TP3      O18778   1.240   2.294   1.286 -0.8175  0.5639 -0.5868
 2320TP3     H118779   1.314   2.356   1.289 -0.3735  0.0072  1.1053
 2320TP3     H218780   1.282   2.208   1.282 -1.3363  0.2220  0.7509
 2321TP3      O18781   2.486   3.222   0.285  0.2924  0.8795  0.2938
 2321TP3     H118782   2.419   3.194   0.223 -0.7743 -0.1333  1.8248
 2321TP3     H218783   2.540   3.144   0.299  0.6522  1.1555  0.4473
 2322TP3      O18784   1.408   0.542   0.523 -0.1418  0.1738  0.2365
 2322TP3     H118785   1.462   0.523   0.599 -0.6125  1.0423  0.8020
 2322TP3     H218786   1.372   0.629   0.540  0.3058  0.6960 -1.3033
 2323TP3      O18787   1.670   0.997   8.419 -0.8291  0.1369 -0.1577
 2323TP3     H118788   1.745   0.942   8.441 -2.7580 -2.0245  1.5273
 2323TP3     H218789   1.679   1.015   8.326  1.0913 -1.1086 -0.2580
 2324TP3      O18790   1.974   1.832  10.059  0.4775 -0.7045  0.0214
 2324TP3     H118791   1.901   1.882  10.024  0.6897 -1.8149 -2.2066
 2324TP3     H218792   1.999   1.878  10.140 -2.3624 -0.0794  0.6248
 2325TP3      O18793   4.102   2.739   7.298  0.2836  0.3679  0.6449
 2325TP3     H118794   4.022   2.746   7.245  0.0236  1.2816  1.1350
 2325TP3     H218795   4.164   2.799   7.256  0.7545 -0.4143  0.2079
 2326TP3      O18796   3.246   3.697   1.951 -0.4175  0.5190 -0.2840
 2326TP3     H118797   3.293   3.729   1.874  1.9116  0.4076  0.9874
 2326TP3     H218798   3.255   3.602   1.947  0.6606  0.5548  0.6082
 2327TP3      O18799   4.124   4.542   0.153 -0.5298 -0.0120 -0.0122
 2327TP3     H118800   4.204   4.490   0.166  0.9819  2.6676  2.4981
 2327TP3     H218801   4.155   4.623   0.114 -1.8570  1.3603  1.6378
 2328TP3      O18802   1.161   3.140   9.361 -0.2287  0.2492 -0.2002
 2328TP3     H118803   1.069   3.137   9.334 -0.3120 -1.4729  0.1313
 2328TP3     H218804   1.173   3.228   9.397 -2.2009  0.0112  1.2225
 2329TP3      O18805   2.315   3.830   9.459 -0.0853  0.3762  0.3409
 2329TP3     H118806   2.336   3.738   9.442 -1.1122  0.4643 -1.6877
 2329TP3     H218807   2.220   3.834   9.459 -0.0654  1.2547  1.6133
 2330TP3      O18808   2.395   1.460   9.310  0.1468  0.1201 -0.3335
 2330TP3     H118809   2.453   1.388   9.336  1.4917  0.3493 -2.4618
 2330TP3     H218810   2.406   1.525   9.380 -1.0498 -1.6247  1.6060
 2331TP3      O18811   5.061   1.289   9.257 -0.2092 -0.1259 -0.1182
 2331TP3     H118812   5.051   1.290   9.352 -1.8800  0.1425 -0.2673
 2331TP3     H218813   5.152   1.263   9.243 -0.3388 -1.6759  1.5309
 2332TP3      O18814   1.847   5.224   1.411 -0.2579  0.1249 -0.2253
 2332TP3     H118815   1.852   5.156   1.344 -1.8994  1.1461 -1.4671
 2332TP3     H218816   1.817   5.178   1.489  0.8569 -0.9480 -0.4072
 2333TP3      O18817   4.586   3.615   0.304 -0.0786  0.6786 -0.0721
 2333TP3     H118818   4.658   3.677   0.320  0.9167 -0.2090 -0.9696
 2333TP3     H218819   4.629   3.531   0.291 -1.2798  0.1488 -0.7803
 2334TP3      O18820   2.780   3.810   8.660 -0.2116  0.0703 -0.2919
 2334TP3     H118821   2.793   3.730   8.710  0.1693 -0.0598 -0.5929
 2334TP3     H218822   2.788   3.782   8.568  0.4302  0.5359 -0.3855
 2335TP3      O18823   4.514   2.782   9.183 -0.4771  0.1929 -0.5097
 2335TP3     H118824   4.525   2.691   9.155  0.1256 -0.6826  2.2997
 2335TP3     H218825   4.423   2.787   9.212 -0.9219  0.9328 -1.9207
 2336TP3      O18826   3.625   2.238   8.252 -0.3029  0.2019  0.5662
 2336TP3     H118827   3.654   2.168   8.193 -0.1113  0.3866  0.4395
 2336TP3     H218828   3.706   2.277   8.285 -0.4088  0.3772  0.6227
 2337TP3      O18829   1.119   0.492   6.951 -0.5861 -0.0592  0.3988
 2337TP3     H118830   1.207   0.475   6.917 -0.5019  0.6110  0.2696
 2337TP3     H218831   1.063   0.492   6.874 -0.3564  1.7238  0.1811
 2338TP3      O18832   0.552   4.338   9.432  0.2107 -0.0401 -0.8334
 2338TP3     H118833   0.543   4.243   9.446  2.5432 -0.2804 -0.5114
 2338TP3     H218834   0.471   4.375   9.465 -0.2106 -1.8290  0.2721
 2339TP3      O18835   3.576   4.410   3.332 -0.3315 -0.0897  0.3180
 2339TP3     H118836   3.512   4.354   3.289  0.6779  0.8444 -2.6851
 2339TP3     H218837   3.647   4.352   3.358  0.5047 -0.3975 -2.3584
 2340TP3      O18838   4.795   4.460   7.969 -0.3760  0.0273  0.4196
 2340TP3     H118839   4.890   4.451   7.962 -0.4161 -1.5699  1.4784
 2340TP3     H218840   4.765   4.372   7.993 -2.2129  0.3008 -0.7408
 2341TP3      O18841   1.287   4.986   1.909 -0.9692  0.0613 -0.3955
 2341TP3     H118842   1.281   4.953   1.999 -0.5665  1.1458  0.0436
 2341TP3     H218843   1.254   4.914   1.855 -0.6023 -0.8548  0.5648
 2342TP3      O18844   1.621   1.262   2.926  0.3618 -0.1498 -0.3492
 2342TP3     H118845   1.592   1.305   3.007 -0.8882  0.7060 -1.2241
 2342TP3     H218846   1.628   1.170   2.950 -0.9617 -0.0693  0.4982
 2343TP3      O18847   3.161   1.332   2.581  0.6061 -0.2631  0.4963
 2343TP3     H118848   3.190   1.422   2.591  2.1601 -0.8154  1.2405
 2343TP3     H218849   3.126   1.328   2.493  1.5284  0.8089  0.0561
 2344TP3      O18850   3.567   1.556   9.849  0.1701 -0.3083 -0.4813
 2344TP3     H118851   3.505   1.485   9.837  0.3802 -0.3940 -1.1259
 2344TP3     H218852   3.632   1.543   9.780  0.7415 -0.0496 -0.0031
 2345TP3      O18853   4.081   0.848   8.835 -1.2192 -0.1147 -0.3923
 2345TP3     H118854   4.145   0.895   8.782 -1.1428 -0.3052 -0.4703
 2345TP3     H218855   3.999   0.854   8.786 -1.3704  0.5211 -0.0731
 2346TP3      O18856   2.341   2.091   7.984 -0.1096 -0.1341  0.3133
 2346TP3     H118857   2.376   2.088   8.074  0.5009  1.1447  0.1288
 2346TP3     H218858   2.258   2.043   7.990  0.9152 -1.9394  1.0898
 2347TP3      O18859   2.182   5.073   2.505  0.1382 -0.8024 -0.4406
 2347TP3     H118860   2.239   5.002   2.474  1.3718  0.2842 -0.7291
 2347TP3     H218861   2.096   5.053   2.467  0.8160 -1.3302 -1.7573
 2348TP3      O18862   2.400   4.357   2.478 -0.4193  0.3064 -0.1081
 2348TP3     H118863   2.467   4.292   2.459 -0.9906 -0.6845  1.1059
 2348TP3     H218864   2.397   4.412   2.400  2.9479  1.4455  0.4204
 2349TP3      O18865   4.540   2.682   9.452  0.4320 -0.2673  0.1177
 2349TP3     H118866   4.539   2.718   9.364  0.8832 -0.5746 -0.0138
 2349TP3     H218867   4.603   2.611   9.449 -2.2710 -2.8540 -0.3309
 2350TP3      O18868   4.225   4.995   7.978  0.4938 -0.1583 -0.2041
 2350TP3     H118869   4.251   4.997   8.070  0.1629 -0.3820 -0.1051
 2350TP3     H218870   4.220   5.087   7.952 -0.1088 -0.0794  0.1953
 2351TP3      O18871   0.597   2.973   8.280  0.5275 -0.0790  0.9789
 2351TP3     H118872   0.507   3.000   8.297  0.2247 -1.5462  1.8938
 2351TP3     H218873   0.637   2.967   8.367  0.5213 -2.5977  0.8760
 2352TP3      O18874   2.677   2.506   2.282  0.1023  0.0005 -0.1586
 2352TP3     H118875   2.647   2.447   2.351  0.8676  1.8617  1.9319
 2352TP3     H218876   2.616   2.580   2.286  0.5879  0.4618 -1.0087
 2353TP3      O18877   1.221   3.210   0.605 -0.5281  0.0521  0.2962
 2353TP3     H118878   1.149   3.216   0.668 -1.7664  0.1197 -1.0964
 2353TP3     H218879   1.181   3.225   0.520  0.7716 -1.8680 -0.7286
 2354TP3      O18880   2.546   5.116   2.533 -0.3763 -0.3711 -0.0596
 2354TP3     H118881   2.536   5.021   2.544  2.0164 -0.4418  2.8855
 2354TP3     H218882   2.623   5.126   2.477 -1.4796 -0.0915 -1.5790
 2355TP3      O18883   1.323   2.153   0.055 -0.0404 -0.2763  0.1749
 2355TP3     H118884   1.291   2.073   0.098 -1.1010 -0.9777 -1.7633
 2355TP3     H218885   1.399   2.179   0.106 -2.3927  0.2754  3.8291
 2356TP3      O18886   3.780   4.681   8.163  0.6065 -0.4456  1.0567
 2356TP3     H118887   3.824   4.746   8.218 -0.7334  0.1746  1.4696
 2356TP3     H218888   3.840   4.664   8.091  0.8734  1.5101  0.7665
 2357TP3      O18889   0.642   4.580   8.956  0.0214 -0.1392  0.3267
 2357TP3     H118890   0.600   4.568   9.041 -0.0328 -0.6504  0.2314
 2357TP3     H218891   0.579   4.547   8.892 -0.8228  2.1194 -0.1196
 2358TP3      O18892   2.263   3.680   9.884  0.2985  0.6047  0.2087
 2358TP3     H118893   2.289   3.772   9.892 -2.5075  1.7447 -1.7457
 2358TP3     H218894   2.326   3.643   9.823  1.4614  1.2160  1.0022
 2359TP3      O18895   4.212   3.080   0.625  0.0077 -0.6717 -0.8516
 2359TP3     H118896   4.172   3.167   0.614 -0.1819 -0.3690  1.6082
 2359TP3     H218897   4.283   3.078   0.561 -1.6987  0.1640 -2.8983
 2360TP3      O18898   3.871   1.254   2.039 -0.1717  0.2716  0.0926
 2360TP3     H118899   3.874   1.340   2.082  0.3526 -0.6341  1.9492
 2360TP3     H218900   3.781   1.225   2.051  0.2110 -0.3950  1.4735
 2361TP3      O18901   0.226   3.641   7.976  0.0966 -0.3677  0.0057
 2361TP3     H118902   0.278   3.640   8.056 -1.0878 -2.3987  0.8413
 2361TP3     H218903   0.177   3.723   7.981  0.2129 -0.3469  1.2827
 2362TP3      O18904   2.749   0.177   2.011  0.5200 -0.0549  0.5616
 2362TP3     H118905   2.843   0.164   1.999  0.7335  1.5248  0.2346
 2362TP3     H218906   2.711   0.164   1.923 -0.1092 -3.9950  1.2134
 2363TP3      O18907   2.158   1.462   8.840  0.3389  0.1395 -0.4000
 2363TP3     H118908   2.204   1.472   8.923 -1.1797 -0.0988  0.5064
 2363TP3     H218909   2.175   1.372   8.814 -0.5980 -0.3545  0.5846
 2364TP3      O18910   1.478   2.221   9.716 -0.0326 -0.4026 -0.3175
 2364TP3     H118911   1.527   2.143   9.690 -0.1477 -0.4180 -0.4889
 2364TP3     H218912   1.496   2.231   9.810 -0.8657 -1.2355 -0.0617
 2365TP3      O18913   5.022   1.550   3.532 -0.1694 -0.1322 -0.1827
 2365TP3     H118914   4.954   1.531   3.597  0.5140 -1.3964  0.2103
 2365TP3     H218915   4.975   1.565   3.451 -1.0318  1.2959  0.5441
 2366TP3      O18916   4.721   0.044   9.825 -0.3954 -0.1673 -0.1914
 2366TP3     H118917   4.786   0.078   9.763  0.7193 -4.0160 -1.3911
 2366TP3     H218918   4.638   0.078   9.794  0.4466  0.2742 -2.1113
 2367TP3      O18919   3.344   3.332   3.678 -0.2788 -0.1022  0.3296
 2367TP3     H118920   3.307   3.245   3.695 -0.4047  0.0296  0.7516
 2367TP3     H218921   3.282   3.392   3.719 -0.5345  0.2271 -0.5378
 2368TP3      O18922   2.329   0.194   7.530 -0.2759  0.1103 -0.3359
 2368TP3     H118923   2.332   0.283   7.496 -0.1614 -0.3779 -1.6637
 2368TP3     H218924   2.238   0.181   7.556 -0.0808  0.9523  0.9012
 2369TP3      O18925   4.468   4.603   8.793 -0.2379  0.1176  0.1420
 2369TP3     H118926   4.415   4.551   8.854 -1.7757  1.1269 -0.2772
 2369TP3     H218927   4.463   4.692   8.828  1.0370  0.2735 -0.0354
 2370TP3      O18928   0.062   0.480   0.016  0.0588 -0.0333  0.0925
 2370TP3     H118929   0.012   0.417   0.068  0.9320 -0.6164  0.2470
 2370TP3     H218930   0.045   0.455  -0.075 -0.0807 -0.1120  0.1394
 2371TP3      O18931   4.765   2.765   7.208  0.4325 -0.2109  0.4672
 2371TP3     H118932   4.833   2.832   7.199 -0.1733  0.2883 -0.5778
 2371TP3     H218933   4.774   2.710   7.131 -1.6934  1.1623 -0.8729
 2372TP3      O18934   0.862   2.632   2.314  0.2543  0.1243 -0.2075
 2372TP3     H118935   0.904   2.691   2.377 -1.6271  1.1483  0.1306
 2372TP3     H218936   0.815   2.690   2.255 -1.3270 -1.0052 -0.1021
 2373TP3      O18937   4.703   2.177   7.435 -0.0966 -0.0285  0.6309
 2373TP3     H118938   4.744   2.110   7.489 -0.7261 -0.5532  0.4779
 2373TP3     H218939   4.722   2.259   7.479  1.1042 -0.2588  0.5622
 2374TP3      O18940   2.248   4.605   2.285 -0.3195 -0.0370 -0.2265
 2374TP3     H118941   2.275   4.514   2.269 -0.7836 -0.7844  2.7299
 2374TP3     H218942   2.176   4.619   2.223  0.0970 -1.4766 -1.1009
 2375TP3      O18943   3.603   1.639   1.225  0.3598  0.4106  0.7716
 2375TP3     H118944   3.651   1.651   1.307  0.6994  0.7605  0.5266
 2375TP3     H218945   3.659   1.679   1.159  0.0304  0.2369  0.3855
 2376TP3      O18946   4.923   0.565   2.024 -0.1697  0.1140  0.3386
 2376TP3     H118947   4.932   0.470   2.018 -0.9757 -0.1333  2.3980
 2376TP3     H218948   4.974   0.590   2.101 -0.7682  1.2175  0.4030
 2377TP3      O18949   1.623   0.943   1.797 -0.6523 -0.0728  0.4996
 2377TP3     H118950   1.668   0.978   1.874 -1.1277  1.3467  0.1537
 2377TP3     H218951   1.661   0.856   1.785  2.5945  1.3031 -0.2263
 2378TP3      O18952   1.393   5.109   7.963 -0.6904 -0.0822 -0.4505
 2378TP3     H118953   1.399   5.204   7.973  1.1299 -0.2520  0.5731
 2378TP3     H218954   1.334   5.096   7.889 -0.5930  1.8508 -0.9186
 2379TP3      O18955   2.059   5.220   2.749 -0.1640  0.2669 -0.2799
 2379TP3     H118956   1.977   5.192   2.710 -0.2148  1.3660 -1.0278
 2379TP3     H218957   2.125   5.202   2.681 -0.1187  1.3593 -0.5438
 2380TP3      O18958   1.518   4.988   2.130 -0.0734  0.2731  0.2841
 2380TP3     H118959   1.501   4.999   2.037 -1.2926 -0.1776  0.4332
 2380TP3     H218960   1.449   5.038   2.173 -0.2261 -0.4729  0.9380
 2381TP3      O18961   0.701   3.384   0.332  0.4523 -0.3914 -0.0400
 2381TP3     H118962   0.759   3.411   0.261 -0.9294  1.1041 -0.6578
 2381TP3     H218963   0.640   3.322   0.290 -0.7405  0.9487 -0.3509
 2382TP3      O18964   4.961   5.223   7.681 -1.0300 -0.1652 -0.4213
 2382TP3     H118965   4.866   5.221   7.690 -1.2718  0.5263 -2.4491
 2382TP3     H218966   4.985   5.132   7.665 -1.1320 -0.5848  1.4858
 2383TP3      O18967   1.324   3.329   3.435 -0.5290  0.6710 -0.6050
 2383TP3     H118968   1.312   3.401   3.497  0.2414  0.9345 -0.7471
 2383TP3     H218969   1.414   3.339   3.404 -1.2000  1.1068 -2.5039
 2384TP3      O18970   4.225   4.927   9.288 -0.1406  0.3500 -0.2029
 2384TP3     H118971   4.210   4.858   9.223  1.8591 -0.5793  0.2592
 2384TP3     H218972   4.232   5.008   9.236  4.7692 -0.7376 -1.7444
 2385TP3      O18973   2.545   0.667   2.208  0.0807 -0.1447  0.3203
 2385TP3     H118974   2.486   0.673   2.134  0.7986  0.3950 -0.2198
 2385TP3     H218975   2.630   0.647   2.169  0.2691 -0.8832  1.0780
 2386TP3      O18976   1.513   1.284   0.131  0.1398  0.8319 -0.1923
 2386TP3     H118977   1.465   1.205   0.104 -1.3671  1.6954 -0.1519
 2386TP3     H218978   1.484   1.351   0.069  0.3156  1.6855  0.6327
 2387TP3      O18979   2.594   4.179   6.339 -0.1188 -0.6665  0.2278
 2387TP3     H118980   2.609   4.248   6.405 -1.1783 -0.0980 -0.1053
 2387TP3     H218981   2.617   4.098   6.384 -1.0178 -0.3058  1.3831
 2388TP3      O18982   1.775   5.139   9.132  0.0935 -0.4643  0.1257
 2388TP3     H118983   1.686   5.149   9.167 -0.7111 -1.6025 -1.4738
 2388TP3     H218984   1.774   5.054   9.087  1.4220  0.3340 -1.5178
 2389TP3      O18985   2.820   3.782   2.508  0.5725 -0.2095  0.6244
 2389TP3     H118986   2.789   3.859   2.556  1.7966 -0.6407  2.1876
 2389TP3     H218987   2.883   3.817   2.445  0.0514  0.2098  0.3307
 2390TP3      O18988   1.291   1.115   9.744  0.0617 -0.4193  0.0207
 2390TP3     H118989   1.332   1.108   9.658 -1.1455 -2.1972 -0.4737
 2390TP3     H218990   1.320   1.037   9.791  0.5839  0.4518  1.2213
 2391TP3      O18991   0.888   2.624   8.516  0.0531 -0.0938 -0.1527
 2391TP3     H118992   0.887   2.541   8.562  0.3434  0.8101  1.5692
 2391TP3     H218993   0.798   2.636   8.485 -0.3619 -0.3446  0.9268
 2392TP3      O18994   3.684   5.120   1.241  0.0289  0.2322 -0.2883
 2392TP3     H118995   3.657   5.118   1.149  1.6229 -0.0833 -0.7757
 2392TP3     H218996   3.601   5.121   1.289 -0.8596 -0.4679 -1.6962
 2393TP3      O18997   1.841   4.455   2.288  0.1366  0.5569  0.2840
 2393TP3     H118998   1.891   4.416   2.359 -0.0715 -0.0211  0.1137
 2393TP3     H218999   1.810   4.381   2.236 -1.6686  0.8225  0.8907
 2394TP3      O19000   1.122   4.697   2.223  0.3057 -0.7561 -0.1085
 2394TP3     H119001   1.098   4.626   2.281 -1.8916 -0.8365 -1.0107
 2394TP3     H219002   1.141   4.655   2.139  0.2351 -0.3785 -0.3187
 2395TP3      O19003   1.966   0.983   8.220 -0.3675  0.2191  0.0343
 2395TP3     H119004   1.958   1.002   8.313 -1.4178  2.0015 -0.3577
 2395TP3     H219005   1.889   1.025   8.181 -0.0246 -0.6096 -1.6192
 2396TP3      O19006   2.475   0.818  10.005  0.2884 -0.1009  0.0792
 2396TP3     H119007   2.525   0.838  10.084  1.1541 -1.1724 -0.1761
 2396TP3     H219008   2.396   0.775  10.036  0.1192  0.4475  0.4164
 2397TP3      O19009   2.725   4.676   1.031  0.0634 -0.2289 -0.2185
 2397TP3     H119010   2.784   4.601   1.018  0.2470  0.0468 -1.0609
 2397TP3     H219011   2.726   4.691   1.125  1.8415  0.1608 -0.2574
 2398TP3      O19012   4.680   2.082   0.862  0.0479  0.0690 -0.3582
 2398TP3     H119013   4.626   2.008   0.834  0.9318 -0.7347 -0.0107
 2398TP3     H219014   4.767   2.043   0.877  0.1599  0.8741  1.3126
 2399TP3      O19015   4.230   2.160   7.311 -0.4606  0.0583  0.7658
 2399TP3     H119016   4.207   2.067   7.310  2.1683 -0.6815  0.7291
 2399TP3     H219017   4.224   2.188   7.220 -0.1142 -0.4196  0.5939
 2400TP3      O19018   0.308   4.553   3.102 -0.3248 -0.2589 -0.6235
 2400TP3     H119019   0.240   4.569   3.037 -1.3926 -0.5585  0.3885
 2400TP3     H219020   0.329   4.639   3.137 -0.1084 -0.1545 -1.0115
 2401TP3      O19021   2.678   2.075   8.459 -0.1486 -0.1392 -0.3055
 2401TP3     H119022   2.653   2.024   8.536 -1.7260 -1.5760 -1.6847
 2401TP3     H219023   2.754   2.029   8.423 -2.8940 -3.2294 -2.8579
 2402TP3      O19024   0.378   3.393   8.485  0.4987 -0.7798 -0.1606
 2402TP3     H119025   0.320   3.396   8.561  0.9290  0.0703  0.1444
 2402TP3     H219026   0.385   3.300   8.464  1.0883 -1.1063  1.3840
 2403TP3      O19027   0.551   2.503   9.873  0.1976 -0.0699 -0.6399
 2403TP3     H119028   0.592   2.540   9.795  2.3197  1.3673  1.0606
 2403TP3     H219029   0.624   2.479   9.930 -1.2338  1.2900  1.9581
 2404TP3      O19030   0.457   3.726   1.085  0.1631  0.1334 -0.6984
 2404TP3     H119031   0.423   3.666   1.151 -1.9247  0.5138 -1.3606
 2404TP3     H219032   0.421   3.811   1.108  0.1912  0.4586 -1.7771
 2405TP3      O19033   3.134   2.129   8.385 -0.2313 -0.3825 -0.1906
 2405TP3     H119034   3.082   2.105   8.462 -1.5387 -1.4763 -1.3665
 2405TP3     H219035   3.221   2.092   8.403 -1.0306 -2.3166 -0.0428
 2406TP3      O19036   3.694   1.301   1.669 -0.7130 -0.4235 -0.2280
 2406TP3     H119037   3.693   1.218   1.623  1.0468 -0.3446 -0.4825
 2406TP3     H219038   3.621   1.351   1.632 -1.3822 -1.6018 -0.5179
 2407TP3      O19039   1.842   1.365   9.286 -0.4499  0.4879 -0.9016
 2407TP3     H119040   1.934   1.391   9.286 -0.4798  0.6125 -1.4871
 2407TP3     H219041   1.814   1.378   9.195 -1.1043  0.6691 -0.6770
 2408TP3      O19042   1.443   1.303   7.807  0.2124  0.5501  0.8249
 2408TP3     H119043   1.418   1.222   7.851  0.3001  1.3887  2.4919
 2408TP3     H219044   1.364   1.331   7.761  0.6467 -1.3394 -1.2790
 2409TP3      O19045   2.223   3.163   9.540  0.3879 -0.0129 -0.2641
 2409TP3     H119046   2.150   3.225   9.552 -0.4391 -1.1568  0.9450
 2409TP3     H219047   2.299   3.219   9.526 -0.5007  1.2561 -0.2674
 2410TP3      O19048   3.951   3.970   8.692 -0.2287  0.1495 -0.1365
 2410TP3     H119049   3.941   3.901   8.626  0.1337 -0.7218  0.6835
 2410TP3     H219050   3.874   4.026   8.681 -0.9600 -0.8598 -0.2857
 2411TP3      O19051   4.405   1.892   7.268  0.4084 -0.1062 -0.2558
 2411TP3     H119052   4.440   1.803   7.270 -0.4114 -0.4976  3.4526
 2411TP3     H219053   4.310   1.881   7.267  0.2916  0.6944  0.7191
 2412TP3      O19054   4.390   1.286   8.147  0.1008 -0.1107  0.1922
 2412TP3     H119055   4.299   1.310   8.165  0.0048  0.0970 -0.5713
 2412TP3     H219056   4.439   1.325   8.220 -0.4374 -0.4083  0.7265
 2413TP3      O19057   5.017   2.100   3.582  0.1592  0.3709 -0.1506
 2413TP3     H119058   4.939   2.150   3.603 -0.4344 -0.4772 -0.3028
 2413TP3     H219059   5.002   2.068   3.493  0.5246 -0.0876 -0.0499
 2414TP3      O19060   0.395   4.578   1.646 -0.1580 -0.6447 -0.0510
 2414TP3     H119061   0.410   4.671   1.627  2.4572 -0.8795  0.4630
 2414TP3     H219062   0.421   4.568   1.737 -0.2681 -1.9276 -0.1493
 2415TP3      O19063   2.988   0.504   2.803  0.0015  0.3066  0.4182
 2415TP3     H119064   2.976   0.434   2.867 -0.4930 -0.0266 -0.0284
 2415TP3     H219065   2.991   0.584   2.855  0.5170 -0.0330  0.9301
 2416TP3      O19066   2.203   2.425   1.886 -0.5827 -0.3408 -0.0913
 2416TP3     H119067   2.249   2.433   1.969 -1.6188 -1.9021  0.6772
 2416TP3     H219068   2.113   2.452   1.905 -0.5331  0.5616 -1.0435
 2417TP3      O19069   3.225   2.058   9.589  0.1842  0.6473 -0.2578
 2417TP3     H119070   3.142   2.056   9.541 -0.0946  2.6053  0.0553
 2417TP3     H219071   3.212   2.124   9.657  2.0876  1.2267 -0.3911
 2418TP3      O19072   0.225   5.264   9.775 -0.4279 -0.3861  0.4184
 2418TP3     H119073   0.180   5.253   9.859  0.2572 -0.2021  0.8139
 2418TP3     H219074   0.154   5.275   9.712 -0.9543 -0.5989  0.9584
 2419TP3      O19075   4.050   0.860   1.108  0.0039 -0.3506  0.1926
 2419TP3     H119076   4.101   0.905   1.041  0.4331  0.4412  1.0151
 2419TP3     H219077   4.021   0.779   1.067  1.0273 -0.3123 -0.6402
 2420TP3      O19078   0.353   0.465   9.270  0.2106  0.3997  0.4334
 2420TP3     H119079   0.258   0.455   9.274  0.1596  0.5545 -0.2622
 2420TP3     H219080   0.369   0.554   9.302  0.0834  0.5318  0.1319
 2421TP3      O19081   4.606   3.246   4.032 -0.0534 -0.2560 -0.2179
 2421TP3     H119082   4.526   3.293   4.009 -0.6185 -0.1862  1.7511
 2421TP3     H219083   4.672   3.315   4.042  0.1849 -0.2792 -1.3908
 2422TP3      O19084   5.152   1.708   0.066 -0.4119 -0.1585  0.6509
 2422TP3     H119085   5.218   1.698  -0.002  1.8107 -0.8236  2.7687
 2422TP3     H219086   5.133   1.619   0.095 -0.7835  0.1471  1.3850
 2423TP3      O19087   2.316   2.001   3.025  0.0328 -0.1358  0.3420
 2423TP3     H119088   2.324   2.092   2.994 -0.4747 -0.3950 -0.5974
 2423TP3     H219089   2.406   1.975   3.046  0.2601  0.3980  0.0482
 2424TP3      O19090   0.976   4.417   1.544  1.0209 -0.1040 -0.6469
 2424TP3     H119091   1.006   4.492   1.493  1.7207 -0.0763 -0.2183
 2424TP3     H219092   0.882   4.414   1.531  0.8036  1.5807  0.2896
 2425TP3      O19093   3.131   1.840   3.107 -0.1578 -0.2629  0.2395
 2425TP3     H119094   3.226   1.839   3.096 -0.1570 -0.7517  0.2360
 2425TP3     H219095   3.117   1.797   3.191 -0.3719 -0.1301  0.2714
 2426TP3      O19096   2.852   1.877   0.275 -0.1887 -0.0237 -0.5298
 2426TP3     H119097   2.841   1.871   0.369 -0.1474 -0.5551 -0.5538
 2426TP3     H219098   2.810   1.959   0.250 -1.6584 -0.6696 -0.2658
 2427TP3      O19099   4.449   4.277   2.155 -0.6464 -0.1745  0.2648
 2427TP3     H119100   4.457   4.324   2.072  0.3639  0.5285  0.7457
 2427TP3     H219101   4.355   4.259   2.163 -0.7955 -0.0222 -0.8914
 2428TP3      O19102   2.979   1.292   9.233 -0.0631  0.2747 -0.0174
 2428TP3     H119103   2.934   1.211   9.254  1.3137 -1.6388 -3.6747
 2428TP3     H219104   3.060   1.288   9.285 -0.3357 -0.3479  0.3675
 2429TP3      O19105   2.167   5.169   1.218  0.3644  0.2131 -1.0350
 2429TP3     H119106   2.119   5.225   1.279 -0.0652  0.3504 -1.4889
 2429TP3     H219107   2.171   5.220   1.137  0.8162 -0.0200 -1.1657
 2430TP3      O19108   4.990   0.507   9.026  0.0339 -0.4337 -0.3853
 2430TP3     H119109   5.007   0.417   9.054  2.6776  0.3709  0.9187
 2430TP3     H219110   4.962   0.499   8.935  1.3194 -2.5206 -0.6668
 2431TP3      O19111   2.145   2.307   6.949  0.1757  0.3273  0.8082
 2431TP3     H119112   2.134   2.215   6.970 -2.0959 -0.1856 -1.9511
 2431TP3     H219113   2.220   2.310   6.889  1.1084  0.5351  1.9427
 2432TP3      O19114   5.031   2.812   9.841  0.1394 -0.3004 -0.8011
 2432TP3     H119115   4.985   2.779   9.918  1.1603  1.7995  0.8275
 2432TP3     H219116   5.091   2.742   9.815 -0.1719 -1.0118  0.3761
 2433TP3      O19117   3.929   0.802   7.606  0.3042 -0.3515 -0.4536
 2433TP3     H119118   3.987   0.777   7.534  0.5629  1.4160 -0.9107
 2433TP3     H219119   3.948   0.895   7.620 -1.7192  0.0159  0.0580
 2434TP3      O19120   0.969   4.603   8.729 -0.8799  0.1653 -0.0433
 2434TP3     H119121   0.993   4.608   8.822  2.2234 -1.1239 -0.6621
 2434TP3     H219122   1.002   4.684   8.691 -3.3268  1.3271  0.0936
 2435TP3      O19123   1.509   1.898   3.337  0.1122  0.3167  0.8064
 2435TP3     H119124   1.603   1.881   3.329 -0.3750 -1.6371 -2.8134
 2435TP3     H219125   1.498   1.989   3.309  0.8154  0.2114  0.1844
 2436TP3      O19126   0.023   2.269   6.864  0.4993 -0.3883  0.3109
 2436TP3     H119127   0.110   2.295   6.834 -0.2234  1.1149 -0.6039
 2436TP3     H219128   0.003   2.191   6.814  0.8782 -0.1011 -0.3032
 2437TP3      O19129   1.009   2.815   7.500  1.0455 -0.6532  0.2275
 2437TP3     H119130   0.984   2.821   7.408 -0.3163  0.4351  0.6304
 2437TP3     H219131   1.006   2.721   7.520 -2.9063 -0.7037  0.1949
 2438TP3      O19132   5.057   4.373   9.402  0.5783  0.1255  0.0053
 2438TP3     H119133   5.110   4.452   9.410  0.0431  0.6749 -1.4425
 2438TP3     H219134   5.094   4.328   9.325  0.6654 -0.8827  0.6109
 2439TP3      O19135   0.898   4.872   2.313  0.2033 -0.5402 -0.3819
 2439TP3     H119136   0.896   4.949   2.256 -0.0593 -0.9318 -0.9140
 2439TP3     H219137   0.964   4.815   2.274  0.8664 -0.3148  0.3825
 2440TP3      O19138   0.006   1.478   3.000  0.6061  0.1936 -0.1337
 2440TP3     H119139   0.069   1.454   2.932  0.2318 -0.2291 -0.3430
 2440TP3     H219140  -0.063   1.412   2.992  0.7064 -0.0494  0.8636
 2441TP3      O19141   2.860   4.388   2.443 -0.5923 -0.1813  0.8215
 2441TP3     H119142   2.911   4.367   2.521  1.2118 -0.4913 -0.3813
 2441TP3     H219143   2.848   4.304   2.399 -1.4332  0.0199  0.6502
 2442TP3      O19144   1.710   3.488   9.860  0.2130 -0.3463 -0.1518
 2442TP3     H119145   1.795   3.515   9.896 -0.0902  0.8776 -0.2916
 2442TP3     H219146   1.711   3.521   9.770  0.3586 -2.0559 -0.8147
 2443TP3      O19147   4.308   3.103   9.548 -0.7681 -0.3028  0.4750
 2443TP3     H119148   4.309   3.007   9.544  0.0311 -0.2671 -1.1180
 2443TP3     H219149   4.400   3.128   9.552 -0.9322  0.4072  0.0799
 2444TP3      O19150   4.726   2.904   6.964  0.2771  0.6334  0.4346
 2444TP3     H119151   4.818   2.893   6.988  0.4928  0.7788 -0.3016
 2444TP3     H219152   4.697   2.816   6.940 -0.0057  0.4461  1.4415
 2445TP3      O19153   2.500   0.604   9.834  0.6553 -0.5073  0.3359
 2445TP3     H119154   2.536   0.685   9.870  2.1902 -0.5939 -0.9038
 2445TP3     H219155   2.490   0.547   9.909  1.2930  0.2126  0.9829
 2446TP3      O19156   3.683   3.560   9.654  0.1166 -0.9704 -0.5190
 2446TP3     H119157   3.657   3.530   9.741 -0.5800 -2.1891 -1.1214
 2446TP3     H219158   3.601   3.572   9.607  0.4424  0.5076 -0.7780
 2447TP3      O19159   2.908   4.825   2.483 -0.7115 -0.0523 -0.6202
 2447TP3     H119160   2.936   4.764   2.415 -0.5644 -0.5563 -0.1133
 2447TP3     H219161   2.853   4.773   2.541  0.2942 -0.0025  0.4224
 2448TP3      O19162   0.490   4.336   6.877  0.0022 -0.4988  0.0947
 2448TP3     H119163   0.529   4.254   6.848 -0.4306 -1.5449  2.2418
 2448TP3     H219164   0.406   4.309   6.916 -1.7111  1.3622 -2.0130
 2449TP3      O19165   2.049   2.178   9.976  0.2485  0.4459  0.2590
 2449TP3     H119166   1.980   2.205  10.037 -0.2635 -0.9313  0.3294
 2449TP3     H219167   2.013   2.198   9.890  0.3481  1.0096  0.3446
 2450TP3      O19168   2.038   1.740   0.669  0.2251  0.1130  0.2291
 2450TP3     H119169   2.059   1.821   0.623 -0.1054 -1.1803 -2.4176
 2450TP3     H219170   1.943   1.742   0.679  0.0668 -0.4635 -0.9887
 2451TP3      O19171   4.407   0.143   1.492 -0.3094 -1.2952  0.2788
 2451TP3     H119172   4.453   0.099   1.564 -0.2343 -0.8850  0.4886
 2451TP3     H219173   4.477   0.179   1.438 -0.3620  0.2999  1.2066
 2452TP3      O19174   4.143   4.374   9.303  0.4853 -0.2081 -0.5540
 2452TP3     H119175   4.208   4.346   9.239  0.6531 -0.1055 -0.4273
 2452TP3     H219176   4.167   4.328   9.383  0.5770  0.0592 -0.4281
 2453TP3      O19177   0.311   0.839   8.429 -0.1167 -0.6207  0.0165
 2453TP3     H119178   0.293   0.933   8.437 -0.3726 -0.5592 -1.0998
 2453TP3     H219179   0.228   0.801   8.401  0.4706 -0.8897 -1.4401
 2454TP3      O19180   1.638   4.969   2.647 -0.2981 -0.0695 -0.2341
 2454TP3     H119181   1.557   4.951   2.696 -1.9530  2.1865 -1.9178
 2454TP3     H219182   1.630   4.916   2.567  0.3138 -0.4319 -0.0671
 2455TP3      O19183   4.026   1.623  10.013 -0.4353 -0.0517 -0.9666
 2455TP3     H119184   4.107   1.587   9.977 -0.1970 -0.5394  0.0395
 2455TP3     H219185   3.961   1.554  10.000 -0.2198 -0.4519  0.0228
 2456TP3      O19186   4.804   3.767   0.921  0.3562  0.6818  0.1584
 2456TP3     H119187   4.840   3.691   0.967  0.5064  1.8309  2.0641
 2456TP3     H219188   4.824   3.752   0.829 -1.5429 -2.6169  0.1570
 2457TP3      O19189   0.255   1.218   1.205 -0.8774  0.1401  0.0559
 2457TP3     H119190   0.279   1.278   1.275  0.0334  0.3873 -0.4525
 2457TP3     H219191   0.213   1.144   1.250  0.6595 -0.2125  0.9712
 2458TP3      O19192   2.252   4.610   9.979 -0.3748  0.4653  0.0134
 2458TP3     H119193   2.331   4.636  10.027 -0.1334 -0.0592 -0.0958
 2458TP3     H219194   2.213   4.693   9.951  0.9300  0.6936 -1.2256
 2459TP3      O19195   5.170   1.992   1.355  0.5081  0.8592  0.0016
 2459TP3     H119196   5.163   1.901   1.328  1.3610  0.3264  1.4636
 2459TP3     H219197   5.212   2.036   1.281 -2.2136  0.6572 -1.7980
 2460TP3      O19198   0.906   3.048   2.634  0.3050 -0.3135  0.1679
 2460TP3     H119199   0.863   3.133   2.623  1.8756  0.6597  1.0578
 2460TP3     H219200   0.962   3.040   2.557 -1.3987 -1.5861 -0.9998
 2461TP3      O19201   1.880   2.218   9.604 -0.3237 -0.2617  0.5180
 2461TP3     H119202   1.811   2.285   9.600 -0.9563 -0.7289  2.4871
 2461TP3     H219203   1.833   2.136   9.621  0.6897 -0.6016  1.8144
 2462TP3      O19204   3.311   0.747   8.880 -0.3126  0.5838 -0.0169
 2462TP3     H119205   3.300   0.800   8.801 -1.1601  0.6709  0.1552
 2462TP3     H219206   3.273   0.799   8.950 -1.2363 -0.2743  0.1397
 2463TP3      O19207   2.639   0.036   9.767  0.0259  1.1385 -0.5599
 2463TP3     H119208   2.711   0.044   9.830 -1.9231  0.7619  1.8826
 2463TP3     H219209   2.621  -0.058   9.763 -1.9766  1.3972  0.9646
 2464TP3      O19210   0.341   1.802   0.416 -0.4588 -0.2767 -0.1759
 2464TP3     H119211   0.347   1.732   0.351  1.3733  0.4658 -0.8917
 2464TP3     H219212   0.334   1.882   0.364 -0.4256  0.2260  0.5825
 2465TP3      O19213   4.676   1.213   8.969 -0.2718  0.2831 -0.3180
 2465TP3     H119214   4.743   1.181   9.029 -0.4246 -1.6513 -1.1160
 2465TP3     H219215   4.660   1.303   8.998 -1.3685 -0.9168  3.4812
 2466TP3      O19216   1.494   1.975   2.365  0.5984 -0.4085 -0.1686
 2466TP3     H119217   1.578   1.956   2.406 -0.3216 -1.8893  1.1575
 2466TP3     H219218   1.429   1.944   2.428 -1.0016  2.1765 -0.4095
 2467TP3      O19219   3.939   1.348   0.559 -0.1518 -0.2756  0.3438
 2467TP3     H119220   3.864   1.407   0.554  0.0208 -0.1428 -0.8993
 2467TP3     H219221   3.939   1.302   0.475  0.8061 -0.7011  0.5640
 2468TP3      O19222   0.724   5.251   1.868 -0.6556  0.5132 -0.6051
 2468TP3     H119223   0.674   5.188   1.816 -2.1645 -0.3354  1.6837
 2468TP3     H219224   0.810   5.211   1.879 -1.5108 -1.1203  0.6024
 2469TP3      O19225   0.464   2.608   2.558 -0.0920  0.9056 -0.0283
 2469TP3     H119226   0.441   2.699   2.542 -0.8017  0.8638  0.6485
 2469TP3     H219227   0.544   2.612   2.610  0.5402  1.1032 -0.9979
 2470TP3      O19228   0.603   1.253   9.933 -0.1687  0.6241  0.5773
 2470TP3     H119229   0.544   1.326   9.949 -1.1986 -0.1612  0.5019
 2470TP3     H219230   0.579   1.222   9.845  1.1383  0.9915  0.0660
 2471TP3      O19231   0.305   1.816   9.478 -0.5438  0.4121 -0.0881
 2471TP3     H119232   0.325   1.905   9.508 -1.7361  1.2369 -1.5735
 2471TP3     H219233   0.390   1.775   9.466  0.0874  1.7958 -0.5944
 2472TP3      O19234   2.988   4.853   2.884 -0.0781 -0.3027  0.2051
 2472TP3     H119235   2.906   4.856   2.834 -0.1246  1.4962  0.3488
 2472TP3     H219236   2.963   4.813   2.968 -1.1482  1.4684  0.7834
 2473TP3      O19237   0.105   1.779   8.683 -0.1206  0.2153  0.3241
 2473TP3     H119238   0.097   1.866   8.722 -2.5953  0.2959 -0.2067
 2473TP3     H219239   0.187   1.744   8.719  1.0266  2.7879  0.4208
 2474TP3      O19240   3.161   1.159   7.713 -0.0432  0.5066  0.5147
 2474TP3     H119241   3.109   1.239   7.708 -0.3900  0.2213 -0.9235
 2474TP3     H219242   3.170   1.130   7.622 -1.5302 -2.1035  1.0955
 2475TP3      O19243   0.873   1.577   9.336  0.4821  0.0990  0.4125
 2475TP3     H119244   0.885   1.670   9.355  0.1515  0.8464 -2.5661
 2475TP3     H219245   0.934   1.532   9.395 -0.3634  2.0456  2.9285
 2476TP3      O19246   0.540   5.083   1.743 -0.0838  0.0261  0.5436
 2476TP3     H119247   0.576   5.023   1.678 -0.9925  0.4854 -0.4293
 2476TP3     H219248   0.456   5.110   1.706  1.2691  3.7420 -0.2489
 2477TP3      O19249   4.966   3.315   9.272  0.4913  0.4606  0.0928
 2477TP3     H119250   5.001   3.260   9.341 -1.0416  0.7282  1.1228
 2477TP3     H219251   4.941   3.255   9.202 -0.7209 -0.1396  1.0113
 2478TP3      O19252   5.110   1.197   3.511 -0.5095 -0.0366  0.1339
 2478TP3     H119253   5.121   1.272   3.569 -2.0904  1.7771 -1.7878
 2478TP3     H219254   5.091   1.235   3.426  1.0904 -2.6021 -1.5023
 2479TP3      O19255   0.712   3.135   7.338  0.3757  0.2212 -0.4477
 2479TP3     H119256   0.749   3.051   7.311  0.5193  0.4580 -1.0069
 2479TP3     H219257   0.728   3.193   7.264 -0.6551  0.4680 -0.4899
 2480TP3      O19258   1.620   1.838   0.141  0.0284  0.3704 -0.2327
 2480TP3     H119259   1.647   1.873   0.226  2.0932 -0.0602 -0.6462
 2480TP3     H219260   1.600   1.915   0.088  0.3863  0.7337  0.1511
 2481TP3      O19261   4.635   3.417   1.088  0.2174 -0.2296  0.1254
 2481TP3     H119262   4.569   3.438   1.153  1.3081  1.9356  0.6368
 2481TP3     H219263   4.660   3.327   1.108 -1.7504 -0.7111  0.6053
 2482TP3      O19264   4.526   5.154   7.327  0.1145  0.3224  0.1887
 2482TP3     H119265   4.502   5.160   7.234 -0.0022  0.0645  0.1992
 2482TP3     H219266   4.578   5.232   7.344 -0.1465  0.5392 -0.0103
 2483TP3      O19267   4.767   4.519   7.095  0.0956  0.3366  0.2791
 2483TP3     H119268   4.759   4.507   7.000  0.8141 -0.5372  0.3127
 2483TP3     H219269   4.810   4.603   7.106 -0.5006  0.7038 -0.1518
 2484TP3      O19270   1.165   0.596   8.007  0.4410  0.3323  0.3496
 2484TP3     H119271   1.235   0.601   8.073  1.0254 -0.2954 -0.1981
 2484TP3     H219272   1.085   0.586   8.058  1.1693 -3.9616  1.0706
 2485TP3      O19273   0.154   1.317   7.821 -0.9876  0.0686 -0.2325
 2485TP3     H119274   0.081   1.279   7.772 -0.3174 -1.3624 -0.1868
 2485TP3     H219275   0.142   1.285   7.910  0.1756 -0.9546 -0.4183
 2486TP3      O19276   0.798   3.485   9.080  0.0964 -0.1325  0.8191
 2486TP3     H119277   0.754   3.429   9.016  0.4177  0.9809 -0.4373
 2486TP3     H219278   0.759   3.572   9.067  0.9131  0.3420  1.3965
 2487TP3      O19279   1.857   5.213   8.278  0.3306  0.1477  0.0437
 2487TP3     H119280   1.919   5.273   8.320  0.8455 -0.9628  0.9354
 2487TP3     H219281   1.909   5.167   8.213  0.6775 -1.3559  1.3388
 2488TP3      O19282   1.186   3.811   0.348 -0.0398  0.0493 -0.1279
 2488TP3     H119283   1.233   3.752   0.289  1.5100 -0.2732  1.3475
 2488TP3     H219284   1.198   3.898   0.309  0.4346 -0.2196 -0.6050
 2489TP3      O19285   4.654   1.090   2.046  0.5347  0.3440  0.1728
 2489TP3     H119286   4.708   1.053   1.976 -0.9657 -1.7834  0.0255
 2489TP3     H219287   4.710   1.087   2.123  0.9131 -1.0995 -0.1272
 2490TP3      O19288   4.320   4.837   7.535  0.4697 -0.0780 -0.4661
 2490TP3     H119289   4.264   4.825   7.611  0.0730 -1.7262 -0.9908
 2490TP3     H219290   4.299   4.926   7.505 -2.8275 -1.0214 -1.3625
 2491TP3      O19291   4.740   1.407   9.576  0.9453  0.1233  0.0160
 2491TP3     H119292   4.732   1.451   9.661 -0.2153  0.6923 -0.3572
 2491TP3     H219293   4.710   1.472   9.512  0.1588 -0.8569 -0.6499
 2492TP3      O19294   4.188   4.404   2.504  0.2334  0.7455 -0.3664
 2492TP3     H119295   4.270   4.356   2.503  0.8903  1.8436 -0.1555
 2492TP3     H219296   4.148   4.380   2.588 -0.6763 -1.4022 -1.3450
 2493TP3      O19297   1.926   2.757   3.189 -0.1156 -0.1504  0.0484
 2493TP3     H119298   1.990   2.813   3.233  0.0026  1.3570 -1.9200
 2493TP3     H219299   1.884   2.709   3.260  0.6746  1.4964  1.7228
 2494TP3      O19300   1.542   0.666   1.410 -0.1178  0.5625  0.4026
 2494TP3     H119301   1.487   0.616   1.469 -0.6785 -0.3882 -0.8758
 2494TP3     H219302   1.484   0.693   1.339  0.7758  0.6668 -0.3131
 2495TP3      O19303   2.656   1.416   8.461  0.5459 -0.1483  0.2467
 2495TP3     H119304   2.657   1.512   8.463 -1.0256 -0.1024  0.3334
 2495TP3     H219305   2.730   1.392   8.405  1.5282  1.0663  0.9668
 2496TP3      O19306   2.989   4.760   8.307 -0.0686 -0.2537 -0.3026
 2496TP3     H119307   2.897   4.750   8.283  0.1392 -1.7604 -0.5985
 2496TP3     H219308   3.011   4.849   8.281 -1.6351  0.3939  0.4843
 2497TP3      O19309   1.650   4.771   9.614 -0.1971  0.1013 -0.8663
 2497TP3     H119310   1.604   4.772   9.697 -0.7631  0.1287 -1.1781
 2497TP3     H219311   1.729   4.822   9.630  0.0311 -0.4540 -0.1635
 2498TP3      O19312   0.671   3.665   0.330  0.3936 -0.2379  0.4517
 2498TP3     H119313   0.603   3.664   0.263 -0.5892  0.3152  1.4191
 2498TP3     H219314   0.658   3.583   0.378  0.6769 -0.3201  0.3903
 2499TP3      O19315   1.007   1.368   1.743 -0.2817  0.3271 -0.5168
 2499TP3     H119316   0.926   1.352   1.695  0.6895 -0.8128 -1.8777
 2499TP3     H219317   1.060   1.290   1.726  1.1907  1.1465  0.1431
 2500TP3      O19318   2.644   1.136   0.113  0.6918  1.2159 -0.1001
 2500TP3     H119319   2.553   1.154   0.090 -0.1458 -1.5209  0.6130
 2500TP3     H219320   2.660   1.189   0.191  0.2818  2.9444 -1.1420
 2501TP3      O19321   3.362   5.216   6.677 -0.1101 -0.0192 -0.7804
 2501TP3     H119322   3.323   5.264   6.605  0.5944 -0.3474 -1.3936
 2501TP3     H219323   3.382   5.130   6.640 -0.9149 -0.6340  0.1608
 2502TP3      O19324   0.679   1.122   1.455 -0.0429 -0.0166 -0.5593
 2502TP3     H119325   0.634   1.151   1.376 -1.0451 -0.8488 -0.3190
 2502TP3     H219326   0.611   1.121   1.522  0.7240  0.3521  0.2367
 2503TP3      O19327   0.874   1.839   8.907  0.8001  0.6875 -0.0479
 2503TP3     H119328   0.964   1.867   8.925  1.5294 -0.8156 -1.1344
 2503TP3     H219329   0.863   1.855   8.813  0.6158 -0.8942 -0.3201
 2504TP3      O19330   3.063   3.125   9.574 -0.1829 -0.3263 -0.1870
 2504TP3     H119331   3.006   3.172   9.513  0.8700  0.5666 -0.5172
 2504TP3     H219332   3.047   3.033   9.556 -1.1444 -0.0860 -0.6225
 2505TP3      O19333   3.339   3.041   1.236  0.1187  0.4797  0.1238
 2505TP3     H119334   3.401   3.030   1.163 -0.2258  0.5051 -0.1766
 2505TP3     H219335   3.287   3.117   1.212 -0.9927 -0.3891 -0.3433
 2506TP3      O19336   1.802   0.630   1.589 -0.2522  0.2424  0.0566
 2506TP3     H119337   1.784   0.705   1.647  0.5384  0.3175  0.2114
 2506TP3     H219338   1.722   0.621   1.537 -0.4475  1.0412  0.2047
 2507TP3      O19339   3.921   2.842   1.843  0.3778  0.1580 -0.1153
 2507TP3     H119340   3.923   2.763   1.897  0.4615  0.4109  0.2496
 2507TP3     H219341   3.906   2.914   1.904 -0.0108  0.3955 -0.4822
 2508TP3      O19342   0.696   0.578   8.047 -0.1340  0.4192  0.1756
 2508TP3     H119343   0.617   0.598   8.097 -0.7457 -3.3752  1.0716
 2508TP3     H219344   0.768   0.588   8.109  0.0642  2.8454 -0.3537
 2509TP3      O19345   3.903   3.169   0.491  0.4111 -0.3025 -0.5369
 2509TP3     H119346   3.934   3.079   0.501 -0.0676 -0.7732 -2.9134
 2509TP3     H219347   3.852   3.185   0.571 -0.1992 -2.4316 -0.4350
 2510TP3      O19348   1.109   1.600   1.299 -0.4571  0.2027 -0.0554
 2510TP3     H119349   1.102   1.505   1.308 -0.9749  0.2212 -0.2434
 2510TP3     H219350   1.053   1.635   1.368  0.9740  0.3928  1.0543
 2511TP3      O19351   1.195   4.583   2.737 -0.3284  0.3343 -0.2712
 2511TP3     H119352   1.198   4.579   2.832  0.1380 -1.2577 -0.3184
 2511TP3     H219353   1.111   4.624   2.717 -1.6570 -1.6985  0.8384
 2512TP3      O19354   2.629   4.551   9.508 -0.0620  0.0969  0.1407
 2512TP3     H119355   2.573   4.508   9.573  0.8269 -1.7113 -0.2232
 2512TP3     H219356   2.691   4.602   9.559  1.5310 -2.4076  0.8690
 2513TP3      O19357   1.768   4.778   1.233  0.0291  0.1248 -0.0543
 2513TP3     H119358   1.721   4.797   1.314 -1.8720  0.3967 -1.1597
 2513TP3     H219359   1.834   4.846   1.226  0.4751 -0.1237  1.4328
 2514TP3      O19360   1.665   1.630  10.088  0.6055 -0.5640 -0.0274
 2514TP3     H119361   1.657   1.704  10.148 -1.5299 -1.9352  1.5454
 2514TP3     H219362   1.743   1.583  10.118  0.2553 -0.5601  0.9343
 2515TP3      O19363   1.127   0.372   0.537  0.7497  0.2105 -0.1402
 2515TP3     H119364   1.087   0.458   0.524  0.4233 -0.2106 -2.3166
 2515TP3     H219365   1.055   0.310   0.530  1.2185 -0.3324 -0.2636
 2516TP3      O19366   5.005   3.592   9.078  0.3009 -0.1400 -0.3263
 2516TP3     H119367   5.064   3.571   9.005  1.3706 -1.4312  0.8533
 2516TP3     H219368   5.006   3.513   9.132 -0.6440  0.7094  0.9663
 2517TP3      O19369   3.296   4.951   7.062  0.3001 -0.8581 -0.1532
 2517TP3     H119370   3.255   5.022   7.011 -2.2871 -3.1159 -1.4813
 2517TP3     H219371   3.300   4.877   7.001 -1.8367 -3.3440  2.4230
 2518TP3      O19372   2.426   2.391   8.036  0.1864  0.3169  0.2356
 2518TP3     H119373   2.462   2.302   8.031  3.0653  1.4032 -0.5690
 2518TP3     H219374   2.491   2.445   7.992 -2.5091  2.5842 -1.2862
 2519TP3      O19375   2.235   0.283   2.891 -0.0066 -0.1438  0.1512
 2519TP3     H119376   2.179   0.221   2.937  0.9569 -0.6872  0.6300
 2519TP3     H219377   2.219   0.367   2.934 -0.7491 -0.2119  0.0094
 2520TP3      O19378   2.957   2.847   9.072 -0.0381 -0.2834  0.1454
 2520TP3     H119379   2.898   2.803   9.134 -0.1339  1.7076  1.5745
 2520TP3     H219380   3.010   2.904   9.127  1.3838 -0.0210 -1.4260
 2521TP3      O19381   4.064   0.986   0.309 -0.0576  0.0889 -0.4167
 2521TP3     H119382   4.070   0.974   0.404 -2.3013  2.8618  0.2098
 2521TP3     H219383   3.998   0.922   0.281 -0.1880 -0.0017  0.0824
 2522TP3      O19384   1.858   1.690   3.090  0.1756 -0.0418 -0.4958
 2522TP3     H119385   1.825   1.647   3.011  1.7560 -1.3624 -0.4965
 2522TP3     H219386   1.800   1.661   3.160 -0.7981  0.5571 -1.0281
 2523TP3      O19387   1.265   1.657   9.578 -0.1211  0.3712  0.1241
 2523TP3     H119388   1.312   1.576   9.560  1.7857  0.9666  2.0027
 2523TP3     H219389   1.202   1.635   9.646  1.0165  0.6179  1.2814
 2524TP3      O19390   0.499   4.497   3.379 -0.2102  0.0260  0.1636
 2524TP3     H119391   0.474   4.589   3.387  0.0989  0.1212  0.0075
 2524TP3     H219392   0.574   4.497   3.321  0.9722 -0.1366  1.6411
 2525TP3      O19393   1.739   5.049   8.501 -0.2180  0.3545  0.7584
 2525TP3     H119394   1.658   5.095   8.522 -1.0362 -1.0418  0.7993
 2525TP3     H219395   1.771   5.092   8.422 -0.4542  1.5745  1.3093
 2526TP3      O19396   2.155   0.268   8.547  0.1825 -1.0490 -0.4131
 2526TP3     H119397   2.244   0.293   8.520  0.2130 -1.3908 -0.6333
 2526TP3     H219398   2.118   0.349   8.582  0.2229 -0.6464 -1.2727
 2527TP3      O19399   4.441   3.421   7.917 -0.2564 -0.9207 -0.3564
 2527TP3     H119400   4.491   3.407   7.997 -1.8825 -0.8906  0.7174
 2527TP3     H219401   4.375   3.486   7.941 -1.9618 -2.2633 -1.1458
 2528TP3      O19402   2.300   0.720   0.528  0.3153  0.0420 -0.1548
 2528TP3     H119403   2.375   0.779   0.540  0.3598 -0.2006  0.8632
 2528TP3     H219404   2.330   0.654   0.466  0.4082  0.8268 -0.9802
 2529TP3      O19405   0.952   2.544   1.951  0.4814  0.3405 -1.0446
 2529TP3     H119406   0.991   2.629   1.973  0.2878  0.5501 -1.5057
 2529TP3     H219407   0.993   2.520   1.868  2.6399 -1.3389  0.3866
 2530TP3      O19408   4.240   5.284   3.170  0.1904 -0.1492  0.4376
 2530TP3     H119409   4.213   5.249   3.085 -0.0831 -0.6168  0.7136
 2530TP3     H219410   4.215   5.216   3.232  0.7729  0.0125  0.8461
 2531TP3      O19411   1.535   2.825   9.308  0.6392  0.4198 -0.0932
 2531TP3     H119412   1.602   2.883   9.344 -1.6621  2.0906  1.7924
 2531TP3     H219413   1.470   2.884   9.270 -0.6174 -1.0283 -0.3040
 2532TP3      O19414   1.801   0.487   0.184  0.5338  0.3704 -0.4411
 2532TP3     H119415   1.840   0.409   0.144  1.4589  0.2894  0.5553
 2532TP3     H219416   1.709   0.481   0.161  0.7992 -0.3672 -1.4121
 2533TP3      O19417   3.075   4.801   0.415  0.0569  0.3751  0.2088
 2533TP3     H119418   3.109   4.756   0.338  0.4362  2.1162 -0.6795
 2533TP3     H219419   3.145   4.792   0.480 -0.2017 -0.9688  0.3253
 2534TP3      O19420   2.259   1.962   0.155 -0.1363 -0.1544 -0.2072
 2534TP3     H119421   2.254   1.949   0.060  0.1745 -0.3129 -0.2025
 2534TP3     H219422   2.168   1.968   0.183 -0.2851 -1.4386 -0.3362
 2535TP3      O19423   0.995   3.191   8.047  0.0298  0.5792  0.2654
 2535TP3     H119424   0.929   3.142   8.096  0.9444 -2.9071 -1.6381
 2535TP3     H219425   0.959   3.198   7.958  2.2512 -1.9104 -0.9729
 2536TP3      O19426   4.638   3.189   3.535  0.2149 -0.2185  0.4385
 2536TP3     H119427   4.691   3.233   3.468 -2.3255  0.0726 -1.5288
 2536TP3     H219428   4.629   3.255   3.604  0.2662  0.6730 -0.3759
 2537TP3      O19429   3.307   4.774   2.092  0.1783  0.3402 -0.4027
 2537TP3     H119430   3.224   4.807   2.059  1.5396  2.0441 -2.3239
 2537TP3     H219431   3.362   4.851   2.103  1.4143 -0.6955  1.2217
 2538TP3      O19432   0.946   4.049   2.527 -0.2670  0.0994  0.0380
 2538TP3     H119433   1.022   4.050   2.585  0.6306 -0.3371 -1.0902
 2538TP3     H219434   0.971   3.989   2.456 -1.0578  1.1258 -1.1544
 2539TP3      O19435   0.614   1.688   2.552  0.6473 -0.3976 -0.3857
 2539TP3     H119436   0.640   1.682   2.460  0.5562  0.7177 -0.4973
 2539TP3     H219437   0.669   1.623   2.596 -1.3979 -3.1327 -1.6126
 2540TP3      O19438   0.010   2.813   1.673  0.2295 -0.0385  0.1078
 2540TP3     H119439  -0.071   2.764   1.687  1.0667 -1.3313  0.7171
 2540TP3     H219440   0.025   2.808   1.579 -0.1067 -0.2828  0.0663
 2541TP3      O19441   4.444   4.168   0.661 -0.0240 -0.3680 -0.7410
 2541TP3     H119442   4.455   4.240   0.724  0.3399 -0.7871 -0.3157
 2541TP3     H219443   4.532   4.155   0.625 -0.4175  0.5554 -2.1163
 2542TP3      O19444   0.047   1.789   8.280  0.4105 -0.4697  0.5391
 2542TP3     H119445  -0.012   1.806   8.207  2.4799  2.4062 -0.6546
 2542TP3     H219446   0.026   1.857   8.344  1.4862 -0.2537  0.6878
 2543TP3      O19447   3.356   1.195   1.073  0.0755  0.1914  0.2982
 2543TP3     H119448   3.295   1.259   1.110  0.1986 -0.2930  1.3930
 2543TP3     H219449   3.342   1.116   1.125  2.7511  0.5249  1.6972
 2544TP3      O19450   0.247   4.299   0.199  0.9913 -0.0114  0.1083
 2544TP3     H119451   0.287   4.215   0.178  0.3484  0.0155 -1.3674
 2544TP3     H219452   0.313   4.344   0.252  1.9715 -0.8535 -0.3575
 2545TP3      O19453   5.131   0.140   0.286 -0.0610  0.4197  0.1538
 2545TP3     H119454   5.219   0.103   0.289 -0.0360  0.5046  0.5376
 2545TP3     H219455   5.128   0.190   0.204 -0.3876 -1.1303 -0.8224
 2546TP3      O19456   2.931   1.835   2.098  0.4102  0.2551  0.0861
 2546TP3     H119457   2.919   1.868   2.009  0.1736 -0.6235 -0.2154
 2546TP3     H219458   2.934   1.914   2.153  0.8510  0.8203 -0.7272
 2547TP3      O19459   0.637   2.711   7.041  0.0606  0.3209 -0.4914
 2547TP3     H119460   0.709   2.689   7.099 -0.8694 -0.1867  0.5035
 2547TP3     H219461   0.647   2.804   7.023  1.6971 -0.0004 -1.4321
 2548TP3      O19462   3.284   5.220   3.050  0.5856 -0.2819 -0.1811
 2548TP3     H119463   3.350   5.263   3.104  0.2336  1.0665 -0.7734
 2548TP3     H219464   3.203   5.230   3.099  0.5229 -0.3483 -0.2711
 2549TP3      O19465   4.232   1.752   3.037 -0.2147 -0.2705 -0.1751
 2549TP3     H119466   4.164   1.817   3.021  0.6458  0.7387  0.2042
 2549TP3     H219467   4.258   1.766   3.128  1.6826  0.5103 -0.7876
 2550TP3      O19468   1.471   2.214   1.861 -0.0292 -0.2400  0.0270
 2550TP3     H119469   1.566   2.212   1.874 -0.0166 -0.8794 -0.0970
 2550TP3     H219470   1.435   2.207   1.949  0.0482 -0.8555  0.0175
 2551TP3      O19471   3.809   3.266   3.341  0.2457 -0.0758  0.0093
 2551TP3     H119472   3.770   3.197   3.287 -1.1641  0.7620 -0.0876
 2551TP3     H219473   3.855   3.321   3.279 -1.2846  0.8253 -0.3802
 2552TP3      O19474   2.122   2.129   9.676 -0.1106  0.7335 -0.6942
 2552TP3     H119475   2.034   2.143   9.643 -1.2580  2.1414  2.5168
 2552TP3     H219476   2.116   2.050   9.730  0.9904  0.0342 -1.5461
 2553TP3      O19477   3.346   2.053   2.380  0.2368 -0.4319  0.0738
 2553TP3     H119478   3.392   1.969   2.373  1.2390  0.0887  0.2012
 2553TP3     H219479   3.253   2.030   2.375  0.5075 -1.4996 -0.3496
 2554TP3      O19480   2.210   2.752   9.924 -0.5445 -0.0414  0.5900
 2554TP3     H119481   2.160   2.694   9.866 -0.3519  0.9272 -0.5936
 2554TP3     H219482   2.200   2.839   9.885  1.7329  0.2489  0.5238
 2555TP3      O19483   2.508   4.602   0.884 -0.0740  0.4285 -0.4507
 2555TP3     H119484   2.507   4.510   0.908 -0.2075  0.1770 -1.3611
 2555TP3     H219485   2.574   4.642   0.941 -1.0170  0.0673  0.9211
 2556TP3      O19486   4.427   3.675   1.916  0.3301  0.3855  0.4714
 2556TP3     H119487   4.514   3.684   1.878  0.3813 -1.0676  0.2112
 2556TP3     H219488   4.442   3.679   2.011  0.4975  1.4499  0.4193
 2557TP3      O19489   2.224   0.937   9.617  0.5841  0.1935  0.4643
 2557TP3     H119490   2.233   0.881   9.695 -0.8612  1.2022  1.4197
 2557TP3     H219491   2.248   1.024   9.647 -0.3414  0.6649 -0.1086
 2558TP3      O19492   0.483   1.478   2.385 -0.3325  0.1583  0.7212
 2558TP3     H119493   0.419   1.456   2.318  0.4912 -3.3806  0.8562
 2558TP3     H219494   0.558   1.513   2.337  0.5248 -2.9668 -0.4948
 2559TP3      O19495   2.524   0.054   8.866  0.5274 -0.2686 -0.5802
 2559TP3     H119496   2.462   0.082   8.799 -2.2117 -1.5142  1.2035
 2559TP3     H219497   2.572  -0.018   8.825 -0.6060 -0.5726 -1.4442
 2560TP3      O19498   1.079   5.031   0.221  0.1037 -0.3067 -0.3289
 2560TP3     H119499   1.051   4.962   0.281 -3.9711  1.8311  0.6019
 2560TP3     H219500   1.118   5.098   0.278 -1.8052  0.7936 -0.2282
 2561TP3      O19501   3.359   4.015   1.276 -0.4431 -0.1820  0.3787
 2561TP3     H119502   3.294   4.046   1.213 -0.1235  0.3255  0.2931
 2561TP3     H219503   3.346   4.071   1.353  0.3074  0.3592  0.1312
 2562TP3      O19504   4.035   3.207   1.503 -0.3586  0.3273 -0.2153
 2562TP3     H119505   4.065   3.151   1.575 -1.2379 -0.3384 -0.3549
 2562TP3     H219506   3.980   3.273   1.545 -0.1875  0.4478 -0.1792
 2563TP3      O19507   1.408   3.002   8.122  0.0640 -0.5288  0.0839
 2563TP3     H119508   1.418   2.907   8.117 -0.2244 -0.6068  0.9389
 2563TP3     H219509   1.374   3.018   8.210  0.1209  0.3675 -0.0531
 2564TP3      O19510   0.756   1.187   9.038  0.2565 -0.0411  0.3246
 2564TP3     H119511   0.680   1.200   8.983  2.0033  0.2010 -2.2203
 2564TP3     H219512   0.723   1.195   9.128 -2.1184  3.2411 -0.6598
 2565TP3      O19513   3.516   1.973   2.117 -0.0142 -0.1193 -0.3566
 2565TP3     H119514   3.499   2.067   2.126 -1.3667 -0.1006 -2.4122
 2565TP3     H219515   3.611   1.965   2.122  0.0542  1.1887  1.0495
 2566TP3      O19516   4.379   1.304   8.766 -0.2238  0.6044 -0.0477
 2566TP3     H119517   4.423   1.305   8.682 -0.4603 -1.7552 -0.2553
 2566TP3     H219518   4.449   1.316   8.830  0.4200 -0.6595 -0.4813
 2567TP3      O19519   3.710   3.444   1.403 -0.9472 -0.4779 -0.4072
 2567TP3     H119520   3.792   3.494   1.408 -0.8664 -0.7538  2.3239
 2567TP3     H219521   3.739   3.354   1.389 -0.8637 -0.3927 -0.7978
 2568TP3      O19522   2.377   0.661   1.992  0.0747 -0.0137  0.0198
 2568TP3     H119523   2.299   0.671   1.938 -0.1062 -1.0559  0.0543
 2568TP3     H219524   2.438   0.727   1.959 -0.8080  0.7853 -0.0286
 2569TP3      O19525   0.911   1.812   8.654 -0.5003 -0.3055 -0.3388
 2569TP3     H119526   0.959   1.880   8.607 -0.5489 -0.2131 -0.2544
 2569TP3     H219527   0.840   1.787   8.594  1.8740 -3.2454 -2.2478
 2570TP3      O19528   2.423   1.587   0.997 -0.0122  0.1070  0.0048
 2570TP3     H119529   2.371   1.649   0.946  0.4468  0.2643 -0.2782
 2570TP3     H219530   2.488   1.641   1.042  0.4445 -0.1686 -0.3118
 2571TP3      O19531   3.258   4.604   3.635  0.0877 -0.0232 -0.1395
 2571TP3     H119532   3.198   4.530   3.626 -0.8614  0.8003 -0.6943
 2571TP3     H219533   3.227   4.668   3.571 -0.2168  1.5988  1.5524
 2572TP3      O19534   2.931   3.153   7.575 -0.0258 -0.2205 -0.6874
 2572TP3     H119535   2.842   3.184   7.559 -0.5039 -0.9453  0.4053
 2572TP3     H219536   2.922   3.096   7.652  0.9547 -2.2494 -1.9908
 2573TP3      O19537   3.168   1.739   7.592 -0.0961 -0.0366  0.3634
 2573TP3     H119538   3.219   1.820   7.589 -0.8985  0.4309 -1.7355
 2573TP3     H219539   3.126   1.741   7.679 -1.9861  3.0345 -0.4536
 2574TP3      O19540   3.980   0.134   8.478  0.4859 -0.1723  0.3785
 2574TP3     H119541   3.945   0.116   8.565  2.8663 -0.1120  1.4139
 2574TP3     H219542   3.932   0.212   8.449 -0.2256 -0.0910  1.6809
 2575TP3      O19543   3.777   1.477   9.680  0.0314  0.0910 -0.4791
 2575TP3     H119544   3.722   1.498   9.605 -0.4734  1.3648  0.2171
 2575TP3     H219545   3.859   1.445   9.641 -0.6642 -0.4679 -1.5393
 2576TP3      O19546   4.193   3.603   7.581 -0.2275  0.3870 -0.6155
 2576TP3     H119547   4.267   3.661   7.569 -0.9834  2.0320  1.9387
 2576TP3     H219548   4.231   3.520   7.609  0.6763  1.0993  0.3144
 2577TP3      O19549   3.383   2.233   9.062 -0.3754  0.2431 -0.1045
 2577TP3     H119550   3.391   2.255   9.155  0.0068  0.6402 -0.2260
 2577TP3     H219551   3.429   2.150   9.053  0.9921  0.9815 -0.2192
 2578TP3      O19552   2.001   4.092   1.948 -0.0133  0.0295  0.4478
 2578TP3     H119553   2.012   4.149   1.872  0.2938 -0.4589  0.1124
 2578TP3     H219554   1.909   4.101   1.973 -0.0542  0.3858  0.1707
 2579TP3      O19555   1.352   0.586   9.861  0.1727  0.0694 -0.0786
 2579TP3     H119556   1.265   0.624   9.855  0.3641  0.4784 -0.3482
 2579TP3     H219557   1.363   0.538   9.779 -0.0178 -0.4596  0.2042
 2580TP3      O19558   4.634   4.985   0.849 -0.0179  0.3774  0.1131
 2580TP3     H119559   4.646   4.891   0.861  0.2814  0.3475 -0.3598
 2580TP3     H219560   4.723   5.019   0.840 -0.1361  0.6655  0.0301
 2581TP3      O19561   0.185   4.917   1.782 -0.6054 -0.4864 -0.5239
 2581TP3     H119562   0.091   4.910   1.771 -0.8114 -3.7506  1.8545
 2581TP3     H219563   0.219   4.831   1.758  1.5717  0.0629  0.2584
 2582TP3      O19564   2.399   3.312  10.091 -0.2905 -0.3468  0.2184
 2582TP3     H119565   2.495   3.318  10.095 -0.2553 -0.9206  0.3696
 2582TP3     H219566   2.368   3.395  10.128  0.1505  0.4004 -1.0110
 2583TP3      O19567   4.065   1.382   6.926  0.0839 -0.2997  0.0223
 2583TP3     H119568   4.161   1.380   6.923  0.1262  0.0565  0.8716
 2583TP3     H219569   4.040   1.291   6.941  0.2385 -0.5483 -1.1320
 2584TP3      O19570   0.895   1.545   8.775  0.4045 -0.3671 -0.0402
 2584TP3     H119571   0.860   1.564   8.862 -1.7919 -1.1055 -0.7187
 2584TP3     H219572   0.876   1.624   8.724 -1.7894 -1.3365 -0.8185
 2585TP3      O19573   0.033   1.095   9.243 -0.2841 -0.0724  0.4991
 2585TP3     H119574  -0.011   1.027   9.296  0.8797 -0.7728  0.5912
 2585TP3     H219575   0.079   1.046   9.175 -1.3120  0.7882 -0.8711
 2586TP3      O19576   4.195   2.799   8.647 -0.4949 -0.0153 -0.1721
 2586TP3     H119577   4.290   2.799   8.645 -0.4977 -0.8947 -0.6381
 2586TP3     H219578   4.172   2.767   8.734 -0.3546 -1.7481 -0.7465
 2587TP3      O19579   0.281   4.233   2.972 -0.6356  0.1693 -0.1898
 2587TP3     H119580   0.258   4.179   3.049  1.8013 -1.2290 -0.3373
 2587TP3     H219581   0.250   4.182   2.897  0.6412 -0.5321 -0.2735
 2588TP3      O19582   0.832   3.719   1.157 -0.3423 -0.1775 -0.5863
 2588TP3     H119583   0.811   3.687   1.069  1.2310 -0.7996 -0.7887
 2588TP3     H219584   0.784   3.661   1.216  2.0063 -2.7455 -0.9683
 2589TP3      O19585   4.393   4.546   0.268 -0.3261  0.2739  0.2569
 2589TP3     H119586   4.368   4.470   0.320  2.2240 -0.6520  0.2645
 2589TP3     H219587   4.433   4.606   0.331 -0.8808  0.9530 -0.0173
 2590TP3      O19588   3.400   3.006   8.138 -0.5197  0.3884  0.0748
 2590TP3     H119589   3.405   3.096   8.170 -0.9027  0.6460 -0.5754
 2590TP3     H219590   3.441   3.009   8.052 -0.7519 -0.0112 -0.0506
 2591TP3      O19591   5.245   5.214   7.533 -0.3417 -0.3526 -0.3194
 2591TP3     H119592   5.202   5.254   7.609  0.2894 -1.0586  0.4336
 2591TP3     H219593   5.261   5.287   7.473  1.2933  0.6533  1.2488
 2592TP3      O19594   1.516   4.704   2.751  0.7158  0.7600 -0.3465
 2592TP3     H119595   1.591   4.645   2.745  0.5274  0.5762 -0.9487
 2592TP3     H219596   1.456   4.661   2.812  1.2013  1.0318  0.3412
 2593TP3      O19597   4.912   2.466   7.814 -0.1980 -0.7049 -0.1367
 2593TP3     H119598   4.908   2.449   7.908 -0.4003 -0.1854 -0.0532
 2593TP3     H219599   4.821   2.462   7.785 -0.0289 -2.2285 -0.5597
 2594TP3      O19600   1.411   3.154   2.825  0.0738 -0.2135  0.0292
 2594TP3     H119601   1.471   3.196   2.763 -0.5813  2.1750  0.9134
 2594TP3     H219602   1.328   3.147   2.777  0.5509 -1.9713 -0.6195
 2595TP3      O19603   1.131   3.256   8.600  0.1075 -0.1725 -0.5989
 2595TP3     H119604   1.082   3.183   8.637  3.2896 -1.7242  0.8415
 2595TP3     H219605   1.105   3.331   8.654 -0.6525 -0.9279  0.1299
 2596TP3      O19606   4.564   0.718   3.301  0.0423  0.2514  0.0438
 2596TP3     H119607   4.569   0.628   3.268 -1.1139 -0.2729  1.2506
 2596TP3     H219608   4.638   0.725   3.361 -1.6326 -1.0095  2.4467
 2597TP3      O19609   2.967   3.034   1.265 -0.0530  0.2913 -0.0014
 2597TP3     H119610   3.028   3.102   1.239 -1.3458  1.2089 -0.7691
 2597TP3     H219611   2.881   3.068   1.239 -1.0037 -0.5173  1.9004
 2598TP3      O19612   4.990   0.437   9.576 -0.0784 -0.3829 -0.5092
 2598TP3     H119613   5.020   0.527   9.589 -1.1286 -0.1234  0.2100
 2598TP3     H219614   4.899   0.445   9.549  0.1316 -1.2050 -1.5279
 2599TP3      O19615   1.287   0.295   0.742  0.6955  0.4945  1.0851
 2599TP3     H119616   1.235   0.308   0.662 -0.2441  0.5779  1.6875
 2599TP3     H219617   1.355   0.362   0.738  0.0167  1.1873  0.8605
 2600TP3      O19618   4.223   1.738   0.073 -0.0263  0.2908  0.1914
 2600TP3     H119619   4.150   1.679   0.058  0.1556 -0.9023  3.2332
 2600TP3     H219620   4.185   1.826   0.070 -1.4103 -0.2661  0.7587
 2601TP3      O19621   2.024   0.841   9.409 -0.3083 -0.0943  0.4257
 2601TP3     H119622   1.981   0.834   9.495 -1.1059  0.8138  0.1158
 2601TP3     H219623   2.102   0.892   9.426 -2.2237  3.2293  0.0856
 2602TP3      O19624   3.521   2.979   8.996  0.2947  0.2442  0.3454
 2602TP3     H119625   3.548   2.942   8.912  0.4805  0.3847  0.3429
 2602TP3     H219626   3.545   3.072   8.990  2.4548 -0.1769  1.4167
 2603TP3      O19627   3.204   0.139   7.064 -0.0016 -0.8959  0.4217
 2603TP3     H119628   3.128   0.146   7.121 -0.6885  0.5525 -0.6139
 2603TP3     H219629   3.254   0.218   7.080 -0.0944 -0.5715 -0.7952
 2604TP3      O19630   1.948   1.706   1.805  0.7137  0.3745  0.1222
 2604TP3     H119631   1.902   1.725   1.723 -0.5306 -2.0237  0.1654
 2604TP3     H219632   2.040   1.720   1.785  0.5733 -1.2818 -2.1332
 2605TP3      O19633   1.718   0.451   7.211 -0.2669  0.1496 -0.1829
 2605TP3     H119634   1.658   0.404   7.154 -1.4767 -0.6237  1.6335
 2605TP3     H219635   1.676   0.536   7.226  0.3460  0.5947 -0.8822
 2606TP3      O19636   2.968   0.962   9.521  0.0230  0.2997  0.4305
 2606TP3     H119637   3.048   1.014   9.529  1.7606 -2.0038 -0.8280
 2606TP3     H219638   2.944   0.941   9.611  0.9690  0.8348  0.8204
 2607TP3      O19639   4.459   2.112   9.503 -0.0094 -0.0037 -0.1007
 2607TP3     H119640   4.528   2.059   9.542 -2.0945 -2.9262 -0.0375
 2607TP3     H219641   4.474   2.106   9.409 -0.4486 -1.1353 -0.1158
 2608TP3      O19642   2.085   3.580   8.540  0.4119 -0.0698  0.0585
 2608TP3     H119643   2.151   3.516   8.566  0.7957 -0.3862 -1.6138
 2608TP3     H219644   2.106   3.658   8.591  2.2734 -0.0677 -0.6452
 2609TP3      O19645   2.413   4.388   8.009 -0.4078 -0.1213 -0.9080
 2609TP3     H119646   2.354   4.432   8.069  0.1079  0.2804 -0.6877
 2609TP3     H219647   2.365   4.309   7.982 -0.8810 -0.0027 -0.4372
 2610TP3      O19648   3.289   3.244   2.774 -0.2107 -0.3440 -0.2189
 2610TP3     H119649   3.265   3.178   2.709 -1.3030  1.3980 -1.6933
 2610TP3     H219650   3.221   3.239   2.841  0.8304 -2.0365  0.7780
 2611TP3      O19651   3.286   4.219   7.965  0.4472  0.1532  0.2363
 2611TP3     H119652   3.303   4.143   8.020 -0.0560  0.6214  1.0683
 2611TP3     H219653   3.190   4.227   7.964  0.4853  2.6214  2.8441
 2612TP3      O19654   0.997   1.306   7.915 -0.4264  0.2707  0.5409
 2612TP3     H119655   1.053   1.384   7.907  0.3399 -0.4195 -1.2847
 2612TP3     H219656   0.960   1.294   7.828 -1.6309 -0.6239  1.1583
 2613TP3      O19657   0.324   1.454   2.169 -0.1724  0.0323  0.0305
 2613TP3     H119658   0.249   1.481   2.117  1.1016 -0.3169 -2.0778
 2613TP3     H219659   0.306   1.364   2.193 -0.4552 -0.0313 -0.4126
 2614TP3      O19660   5.005   4.732   0.164  0.0916 -0.1549  0.3455
 2614TP3     H119661   5.044   4.648   0.187  1.9201  0.3590 -0.7244
 2614TP3     H219662   5.073   4.778   0.115 -1.6978  0.9739 -1.2554
 2615TP3      O19663   4.489   0.191   8.332  0.3183  0.2979 -0.1053
 2615TP3     H119664   4.485   0.277   8.291  0.8671  0.2856 -0.1879
 2615TP3     H219665   4.398   0.171   8.353  0.2561  1.1917  0.5239
 2616TP3      O19666   1.540   5.210   8.611 -0.3983  0.2526 -0.2559
 2616TP3     H119667   1.509   5.300   8.614  0.9044  0.7406 -0.7638
 2616TP3     H219668   1.619   5.209   8.665 -0.5873 -0.6609  0.0221
 2617TP3      O19669   3.176   0.552   0.680 -0.2876 -0.2769 -0.6387
 2617TP3     H119670   3.267   0.522   0.689  0.4560  1.7622 -0.7760
 2617TP3     H219671   3.181   0.647   0.690 -2.2477  0.0190 -1.8720
 2618TP3      O19672   1.993   4.355   0.983 -0.8702  0.1683 -0.1658
 2618TP3     H119673   2.076   4.372   0.938 -0.4492 -1.4323 -0.0492
 2618TP3     H219674   1.964   4.441   1.012  0.2168  0.8905 -1.1251
 2619TP3      O19675   1.546   3.253   1.902  0.1709  0.0868  0.0307
 2619TP3     H119676   1.595   3.188   1.851  1.2664  0.5615  0.4528
 2619TP3     H219677   1.488   3.294   1.838 -1.6133 -2.2447 -0.0062
 2620TP3      O19678   2.183   3.635   1.404 -0.0553  0.0297  0.0911
 2620TP3     H119679   2.184   3.727   1.428 -0.7549  0.0733 -0.0326
 2620TP3     H219680   2.108   3.599   1.451 -0.7240 -0.1409 -1.0825
 2621TP3      O19681   3.256   4.221   1.459 -0.3876 -0.1331 -0.3122
 2621TP3     H119682   3.284   4.262   1.540 -0.7060  1.4107 -0.9516
 2621TP3     H219683   3.167   4.191   1.476 -0.3889  0.0319 -0.0356
 2622TP3      O19684   4.039   0.274   9.830 -0.4874 -0.1347  0.6485
 2622TP3     H119685   4.070   0.296   9.742  0.3896 -1.6689  0.5234
 2622TP3     H219686   3.944   0.267   9.821 -0.5686  1.2353  0.2039
 2623TP3      O19687   0.886   4.311   0.603  0.2274  0.6697 -0.4012
 2623TP3     H119688   0.874   4.234   0.548 -0.5349  0.7708 -0.3897
 2623TP3     H219689   0.980   4.329   0.599  0.8697 -1.7644  1.6493
 2624TP3      O19690   3.908   1.173   2.554 -0.1778  0.2726 -0.2007
 2624TP3     H119691   3.813   1.173   2.541 -0.4930  2.4502  1.6057
 2624TP3     H219692   3.921   1.210   2.641  2.2882 -1.8874  0.4616
 2625TP3      O19693   1.331   4.317   0.873 -0.0656 -0.0694  0.3688
 2625TP3     H119694   1.238   4.329   0.890 -0.1867 -0.3228 -0.1013
 2625TP3     H219695   1.362   4.262   0.945 -0.6471 -1.4325 -0.3924
 2626TP3      O19696   1.401   1.490   3.055  0.1805 -0.5949  0.3682
 2626TP3     H119697   1.477   1.450   3.098  2.5639  1.6419 -1.4446
 2626TP3     H219698   1.408   1.583   3.076 -1.9643 -0.2729 -0.0953
 2627TP3      O19699   5.009   1.598   7.322 -0.6777  0.0102 -0.1416
 2627TP3     H119700   4.935   1.610   7.263 -0.7613  1.4679  0.2201
 2627TP3     H219701   5.044   1.687   7.336  2.1670 -0.7507 -1.5805
 2628TP3      O19702   4.860   1.107   9.130 -0.1213 -0.2257 -0.0139
 2628TP3     H119703   4.874   1.031   9.186 -1.6492  0.3555  1.2403
 2628TP3     H219704   4.925   1.171   9.160 -0.0045 -0.4188  0.1491
 2629TP3      O19705   4.118   4.370   2.786  0.0348  0.2617  0.1781
 2629TP3     H119706   4.213   4.374   2.776  0.0955  1.2575  0.9887
 2629TP3     H219707   4.105   4.362   2.881 -0.6970  0.3822  0.0920
 2630TP3      O19708   0.091   4.913   2.720  0.1033 -0.3498 -0.1395
 2630TP3     H119709   0.164   4.917   2.782 -2.2409  1.2829  2.7580
 2630TP3     H219710   0.035   4.843   2.754 -0.6013 -0.3545 -1.2598
 2631TP3      O19711   4.771   2.526   9.094  0.1422  0.8770 -0.5355
 2631TP3     H119712   4.762   2.560   9.005 -0.4123 -0.3994 -0.9887
 2631TP3     H219713   4.683   2.494   9.116 -0.2610  2.9621  1.2577
 2632TP3      O19714   3.049   4.060   2.595 -0.1429 -0.3302  0.1412
 2632TP3     H119715   3.099   4.139   2.613  0.5922 -0.7547  0.0104
 2632TP3     H219716   3.013   4.034   2.680  0.8736 -0.7004  0.4606
 2633TP3      O19717   0.772   4.119   0.217 -0.0425 -0.0814  0.0346
 2633TP3     H119718   0.697   4.060   0.213  0.7945 -1.1244 -1.5487
 2633TP3     H219719   0.837   4.073   0.269  0.1444  0.0152 -0.1100
 2634TP3      O19720   0.810   1.326   7.445  0.4220  0.1006  0.2110
 2634TP3     H119721   0.848   1.327   7.357 -1.6104 -1.7785 -0.7942
 2634TP3     H219722   0.722   1.363   7.433 -0.4618 -1.5689  1.0691
 2635TP3      O19723   2.320   0.931   9.249  0.4435 -0.2343  0.1991
 2635TP3     H119724   2.333   0.848   9.294 -1.1153 -0.1771  0.8097
 2635TP3     H219725   2.366   0.995   9.303  0.5529 -0.5033  0.4280
 2636TP3      O19726   3.932   0.600   0.980 -0.8936  0.2126  0.8418
 2636TP3     H119727   4.020   0.581   1.012  0.8885  0.0785 -3.5162
 2636TP3     H219728   3.875   0.546   1.035  1.7077 -0.0035  3.5637
 2637TP3      O19729   1.301   4.077   8.264  0.4543 -0.5556 -0.4296
 2637TP3     H119730   1.309   4.171   8.283  0.8703 -0.0969 -2.5330
 2637TP3     H219731   1.236   4.045   8.326  0.2028  1.1538  0.2482
 2638TP3      O19732   0.316   3.272   1.490  0.1581  0.1158  0.5326
 2638TP3     H119733   0.231   3.250   1.528 -0.3496  0.8220 -0.1559
 2638TP3     H219734   0.298   3.347   1.433  1.2239  0.2049  0.2884
 2639TP3      O19735   5.228   3.115   1.007  0.1219  0.5999  0.4436
 2639TP3     H119736   5.161   3.047   1.007  0.3915  0.3043  2.0405
 2639TP3     H219737   5.281   3.096   1.084  0.9131  1.9355  0.2511
 2640TP3      O19738   3.921   4.926   9.631 -0.6740 -0.0325 -0.1852
 2640TP3     H119739   3.904   4.900   9.541 -1.8128 -4.4354  1.0898
 2640TP3     H219740   4.013   4.905   9.645 -0.6405  0.1373 -0.1429
 2641TP3      O19741   2.192   3.440   1.657 -0.1042 -0.5275  0.4501
 2641TP3     H119742   2.191   3.535   1.672 -0.3130 -0.3442 -0.5788
 2641TP3     H219743   2.100   3.415   1.657 -0.0484 -0.7256  0.7270
 2642TP3      O19744   4.596   1.768   8.657  0.6571  0.2988  0.0854
 2642TP3     H119745   4.593   1.863   8.672 -0.7419  0.0450  1.6777
 2642TP3     H219746   4.677   1.740   8.700  1.2599  0.7934 -0.6890
 2643TP3      O19747   0.355   3.418   9.272 -0.2584  0.3371  0.3231
 2643TP3     H119748   0.384   3.443   9.360 -0.3614 -0.8021  0.6964
 2643TP3     H219749   0.377   3.493   9.218 -1.1254  1.4932  1.5049
 2644TP3      O19750   2.365   0.295   9.241  0.7630 -0.2506  0.1484
 2644TP3     H119751   2.318   0.271   9.161  0.6641 -1.7108  0.6184
 2644TP3     H219752   2.453   0.260   9.228  0.9887  0.2232  0.3521
 2645TP3      O19753   4.158   2.228  10.104 -0.0186  0.5093 -0.4506
 2645TP3     H119754   4.075   2.270  10.081 -1.3362 -0.7353  1.7000
 2645TP3     H219755   4.132   2.146  10.146  2.3711 -0.5510 -0.8912
 2646TP3      O19756   0.574   0.817   9.568 -0.0532  0.5367  0.7912
 2646TP3     H119757   0.612   0.795   9.652  0.9572 -0.8673  0.0024
 2646TP3     H219758   0.627   0.890   9.536  0.3288  0.2810  0.8427
 2647TP3      O19759   4.840   0.950   1.870 -0.2702 -0.4958  0.0894
 2647TP3     H119760   4.802   0.991   1.792 -0.3242 -0.1710  0.2850
 2647TP3     H219761   4.819   0.857   1.860 -0.2489 -0.4633 -0.2990
 2648TP3      O19762   0.006   3.694   6.598  0.3954  0.1945 -0.4959
 2648TP3     H119763   0.003   3.657   6.687  4.2865  0.0478 -0.2580
 2648TP3     H219764  -0.044   3.775   6.604 -0.8718 -0.6458  1.3255
 2649TP3      O19765   3.974   1.214   1.044  0.1200  0.0089 -0.1038
 2649TP3     H119766   3.906   1.176   1.100  1.4831  0.5648  2.0434
 2649TP3     H219767   3.952   1.183   0.956 -1.6041 -1.6854  0.8370
 2650TP3      O19768   4.674   4.711   0.925 -0.4349  0.7428  0.1634
 2650TP3     H119769   4.692   4.619   0.907  0.5740  1.2532 -1.7299
 2650TP3     H219770   4.695   4.723   1.017  1.0801 -0.5688  0.0298
 2651TP3      O19771   0.798   3.708   7.910  0.6146  0.2797 -0.2582
 2651TP3     H119772   0.851   3.748   7.841 -0.9100  1.4297 -0.8188
 2651TP3     H219773   0.843   3.732   7.991  0.9810  1.2109 -0.7200
 2652TP3      O19774   3.172   5.013   1.314 -0.5716  0.1162  0.1480
 2652TP3     H119775   3.248   5.067   1.338  0.5604  0.0226 -2.8250
 2652TP3     H219776   3.202   4.923   1.327  0.1775  0.0525 -1.7449
 2653TP3      O19777   3.895   4.452   9.376  0.3209 -0.5308 -0.2976
 2653TP3     H119778   3.967   4.418   9.323  0.9211  0.2383  0.0047
 2653TP3     H219779   3.935   4.520   9.430 -0.7923  0.5475 -0.7765
 2654TP3      O19780   1.031   1.347   1.248  0.7316  0.3430  0.1983
 2654TP3     H119781   0.997   1.271   1.294  0.2398  0.1923 -0.4066
 2654TP3     H219782   1.063   1.313   1.165 -0.0768  0.8879 -0.3455
 2655TP3      O19783   1.549   1.929   8.232 -0.1993  0.1937  0.8148
 2655TP3     H119784   1.566   1.844   8.191 -0.6741 -0.0709  1.1606
 2655TP3     H219785   1.589   1.993   8.173 -1.6077 -0.1022 -0.5033
 2656TP3      O19786   0.282   4.908   0.790 -0.2085  0.0643 -0.8155
 2656TP3     H119787   0.276   4.969   0.863  2.1930 -0.4768 -0.0829
 2656TP3     H219788   0.374   4.911   0.763 -0.8303 -0.4484 -3.2304
 2657TP3      O19789   0.824   3.782   0.636  0.1683 -0.0635  0.6287
 2657TP3     H119790   0.793   3.872   0.633  0.8645  0.2132  1.3371
 2657TP3     H219791   0.843   3.761   0.544 -1.5456 -0.0730  0.2383
 2658TP3      O19792   0.578   4.303   3.009 -0.1030  0.7613 -0.0855
 2658TP3     H119793   0.488   4.275   3.030 -0.1834  1.1395  0.0853
 2658TP3     H219794   0.579   4.396   3.030  0.4259  0.6895  0.2148
 2659TP3      O19795   2.539   3.535   9.174  0.6810  0.2530 -0.3432
 2659TP3     H119796   2.603   3.465   9.162  0.7416  0.6563 -2.9092
 2659TP3     H219797   2.566   3.603   9.113 -0.5913  1.6364  0.5669
 2660TP3      O19798   0.156   4.568   8.975 -0.2201  0.0468  0.7601
 2660TP3     H119799   0.139   4.474   8.981 -2.8965  0.5200  2.2948
 2660TP3     H219800   0.174   4.583   8.882  1.6109 -2.0937  0.6580
 2661TP3      O19801   2.504   3.011   0.669 -0.5622  0.3988 -0.7069
 2661TP3     H119802   2.499   2.957   0.590 -2.8407  0.2722 -0.5322
 2661TP3     H219803   2.424   3.064   0.668 -0.3676  0.8185  1.2067
 2662TP3      O19804   1.307   2.683   8.031 -0.1048  0.4286  0.2753
 2662TP3     H119805   1.259   2.746   8.084  0.0680  0.1375  0.7886
 2662TP3     H219806   1.399   2.711   8.039 -0.2439  1.5334 -1.4398
 2663TP3      O19807   4.753   4.169   2.145 -1.0804 -0.2851 -0.0675
 2663TP3     H119808   4.817   4.238   2.132 -1.2646  0.0818  0.8768
 2663TP3     H219809   4.668   4.213   2.143 -1.2985 -0.7261 -1.0370
 2664TP3      O19810   0.959   1.309   9.166 -0.1248 -0.2098  0.5729
 2664TP3     H119811   0.909   1.359   9.231 -0.7020 -0.5866  0.4228
 2664TP3     H219812   0.893   1.260   9.118  0.0657  1.5469 -1.6263
 2665TP3      O19813   5.225   0.875   3.006  0.0681 -0.1012  0.2411
 2665TP3     H119814   5.311   0.833   3.018  0.1275 -0.1231 -0.2216
 2665TP3     H219815   5.166   0.802   2.986  0.1817  0.0342 -0.6175
 2666TP3      O19816   2.889   4.084   8.755 -0.2605  0.0418 -0.0603
 2666TP3     H119817   2.818   4.083   8.690  0.3312 -1.1934 -0.7145
 2666TP3     H219818   2.850   4.046   8.833  0.0898 -2.2563 -0.9260
 2667TP3      O19819   1.346   0.559   0.014 -0.2646 -0.0514 -0.5093
 2667TP3     H119820   1.252   0.566   0.031 -0.6770 -1.9130 -1.6557
 2667TP3     H219821   1.356   0.587  -0.077  0.1909 -0.4469 -0.5855
 2668TP3      O19822   2.186   2.438   0.300  0.0485  0.2673 -0.0892
 2668TP3     H119823   2.216   2.470   0.215  2.6074 -0.7603  0.3522
 2668TP3     H219824   2.131   2.509   0.334 -0.5831  0.9244 -2.3378
 2669TP3      O19825   3.695   0.115   0.201  0.1005 -0.5325 -0.2722
 2669TP3     H119826   3.771   0.172   0.210  0.6682 -1.2890 -0.2036
 2669TP3     H219827   3.709   0.046   0.266 -0.3556 -1.0031 -0.6679
 2670TP3      O19828   3.858   1.428   9.967  0.3690 -0.6005  0.3548
 2670TP3     H119829   3.797   1.427  10.041  0.4437 -3.0201  0.4503
 2670TP3     H219830   3.802   1.439   9.890  0.3043  2.1515  0.6726
 2671TP3      O19831   2.447   3.334   2.817 -0.2770 -0.0503  0.0263
 2671TP3     H119832   2.486   3.352   2.902  1.2794  0.2299 -0.7061
 2671TP3     H219833   2.355   3.313   2.836 -0.0065  0.1907  1.7309
 2672TP3      O19834   1.506   2.999   6.820  0.3276  0.0756 -0.5308
 2672TP3     H119835   1.533   3.083   6.782  0.6253 -0.6224 -1.9620
 2672TP3     H219836   1.585   2.945   6.815  0.9149  0.4362  2.7845
 2673TP3      O19837   5.058   2.251   9.955 -0.4485 -0.0770  0.2992
 2673TP3     H119838   5.063   2.220   9.865  0.5903  0.3955  0.1817
 2673TP3     H219839   4.965   2.243   9.978 -0.7425 -0.0988 -0.8455
 2674TP3      O19840   4.351   3.297   3.931  0.5666  0.5639 -0.5400
 2674TP3     H119841   4.314   3.362   3.872  0.1296 -0.5394 -1.5157
 2674TP3     H219842   4.324   3.213   3.894  1.5631 -0.1918  0.3933
 2675TP3      O19843   4.277   1.797   9.766 -0.2505  0.2506 -0.1063
 2675TP3     H119844   4.185   1.778   9.749 -0.6407 -1.5992  3.3364
 2675TP3     H219845   4.323   1.717   9.740  0.1668  0.4486  0.0056
 2676TP3      O19846   2.655   4.953   8.486  0.1498 -0.1569 -0.6196
 2676TP3     H119847   2.610   4.988   8.563 -2.9068 -0.2478 -2.2021
 2676TP3     H219848   2.667   4.861   8.506 -0.1972 -0.0898 -0.0523
 2677TP3      O19849   2.646   5.236   9.201 -0.8349 -0.9512 -0.5907
 2677TP3     H119850   2.554   5.265   9.202 -0.9687 -1.3711 -0.4183
 2677TP3     H219851   2.641   5.141   9.210 -0.3166 -0.8015  2.4539
 2678TP3      O19852   4.341   1.195   6.941 -0.3089 -0.5435  0.2470
 2678TP3     H119853   4.395   1.155   6.873  0.0222 -1.2088  0.8840
 2678TP3     H219854   4.351   1.289   6.928  1.5078 -0.6293  0.7251
 2679TP3      O19855   3.288   2.787   7.683 -0.4818 -0.2528  0.3468
 2679TP3     H119856   3.202   2.774   7.644 -0.4804  0.0098  0.2511
 2679TP3     H219857   3.270   2.807   7.775 -0.4522 -1.5197  0.6476
 2680TP3      O19858   2.406   2.164   8.709  0.0670 -0.0247 -0.0308
 2680TP3     H119859   2.339   2.175   8.640 -0.1033 -2.7426 -0.4276
 2680TP3     H219860   2.464   2.096   8.674  1.5590  0.4612  1.4196
 2681TP3      O19861   1.501   2.213   0.905 -0.2822 -1.0266 -0.5213
 2681TP3     H119862   1.417   2.216   0.860 -1.1695 -1.5312  1.0392
 2681TP3     H219863   1.531   2.303   0.906 -0.9435 -0.7966 -0.8558
 2682TP3      O19864   2.062   4.244   8.304  0.4582  0.5360 -0.0404
 2682TP3     H119865   2.030   4.330   8.331  0.3040  0.7117 -0.7781
 2682TP3     H219866   2.029   4.184   8.371 -1.1132  0.7630 -0.5906
 2683TP3      O19867   2.096   2.224   6.638  0.1749 -0.3731  0.1499
 2683TP3     H119868   2.096   2.162   6.711  1.9289  1.1672  1.5694
 2683TP3     H219869   2.024   2.284   6.658  2.6839  2.1224  2.6871
 2684TP3      O19870   3.559   0.381   9.967  0.2670 -0.2923  0.1645
 2684TP3     H119871   3.550   0.384  10.062 -0.7821 -1.4277  0.1145
 2684TP3     H219872   3.470   0.391   9.934  0.3174 -2.0715 -0.6265
 2685TP3      O19873   2.341   4.173   1.808 -0.0040  0.1413  0.5535
 2685TP3     H119874   2.307   4.114   1.740  0.2562 -0.3534  0.8466
 2685TP3     H219875   2.309   4.260   1.782  0.4138  0.0240 -0.4173
 2686TP3      O19876   0.025   0.168   7.404 -0.1863 -0.1561 -0.4740
 2686TP3     H119877   0.098   0.127   7.357  1.5688  2.2498  0.0255
 2686TP3     H219878   0.058   0.253   7.432 -3.2327  1.1180 -0.3326
 2687TP3      O19879   3.851   1.463   8.876  0.0406 -0.0693 -0.4594
 2687TP3     H119880   3.810   1.504   8.953  1.2842  1.9316 -0.8006
 2687TP3     H219881   3.944   1.463   8.896  0.2893 -0.4333 -1.5650
 2688TP3      O19882   2.209   1.068   2.170  0.0155  0.7612  0.1021
 2688TP3     H119883   2.274   1.113   2.223  0.5649  0.4551 -0.2947
 2688TP3     H219884   2.175   0.999   2.227  0.0358  0.9260  0.3140
 2689TP3      O19885   3.146   0.680   7.865  0.2937 -0.0169 -0.0688
 2689TP3     H119886   3.129   0.653   7.955  0.0414  1.8453  0.4723
 2689TP3     H219887   3.156   0.775   7.869 -1.0764  0.3006 -2.1981
 2690TP3      O19888   0.147   5.165   6.961  0.2286 -0.6148  1.0200
 2690TP3     H119889   0.225   5.218   6.976  0.7280 -1.1881  0.5204
 2690TP3     H219890   0.158   5.089   7.019  1.0728 -1.7142 -0.4744
 2691TP3      O19891   0.002   5.173   9.102  0.2341 -0.2889 -0.1585
 2691TP3     H119892   0.023   5.266   9.102  2.4236 -0.7319  0.4300
 2691TP3     H219893   0.041   5.140   9.021 -0.2329 -0.7561 -0.1980
 2692TP3      O19894   0.140   2.483   7.686 -0.0630  0.2583  0.2318
 2692TP3     H119895   0.141   2.407   7.743 -0.6713  0.3482  0.3650
 2692TP3     H219896   0.048   2.498   7.667  0.0386  1.0227  0.2938
 2693TP3      O19897   1.283   2.915   2.232 -0.1591 -0.7557  0.2931
 2693TP3     H119898   1.253   2.995   2.187 -1.8224  0.2535  2.9420
 2693TP3     H219899   1.217   2.849   2.209 -1.9930  0.2061  2.3579
 2694TP3      O19900   3.945   3.844   6.462 -0.0184  0.4496 -0.0916
 2694TP3     H119901   3.859   3.808   6.484 -1.1532  1.5681 -2.4042
 2694TP3     H219902   4.006   3.774   6.486 -1.2733  0.3167  3.3380
 2695TP3      O19903   3.398   0.196   0.821 -0.5891  0.1070  0.4966
 2695TP3     H119904   3.393   0.129   0.753 -1.2688  0.4566  0.1907
 2695TP3     H219905   3.308   0.226   0.832 -0.2316  1.3460  0.2420
 2696TP3      O19906   0.254   2.964   9.061 -0.2877 -0.0359  0.0571
 2696TP3     H119907   0.178   2.919   9.099 -0.4775  0.6966  0.5728
 2696TP3     H219908   0.329   2.920   9.100 -0.3839 -1.8158 -1.6571
 2697TP3      O19909   0.289   5.116   1.637  0.4298  0.2506  0.5507
 2697TP3     H119910   0.216   5.145   1.582  0.9753 -0.9316 -0.8374
 2697TP3     H219911   0.252   5.047   1.692 -0.0296  1.1979  1.4667
 2698TP3      O19912   2.000   0.610  10.022  0.2757 -0.1625  0.0709
 2698TP3     H119913   1.945   0.679   9.985  0.9826  1.4046  1.7765
 2698TP3     H219914   1.941   0.535  10.031 -0.6855  0.4032 -1.1997
 2699TP3      O19915   4.427   0.651   8.638 -0.2120  0.3445 -0.5812
 2699TP3     H119916   4.460   0.579   8.692 -1.7676 -1.9376 -2.4520
 2699TP3     H219917   4.342   0.673   8.677 -0.5443 -0.1093 -1.0261
 2700TP3      O19918   4.517   1.639   7.260  0.3972  0.2936  0.1071
 2700TP3     H119919   4.517   1.624   7.354 -1.8167 -0.6869  0.0293
 2700TP3     H219920   4.529   1.551   7.222  1.9727  0.7708 -0.5475
 2701TP3      O19921   3.225   1.596   2.573  0.1659  1.1661  0.4513
 2701TP3     H119922   3.217   1.638   2.487  0.6697  0.0709 -0.1662
 2701TP3     H219923   3.320   1.591   2.588  0.0968  0.8662  0.8052
 2702TP3      O19924   3.091   4.393   3.556 -0.3503 -0.0261  0.5476
 2702TP3     H119925   3.067   4.349   3.475  1.2953 -0.8881  0.4864
 2702TP3     H219926   3.096   4.323   3.621  0.7752  0.2757  0.8102
 2703TP3      O19927   0.763   2.216   9.252 -0.5230 -0.1660 -0.2683
 2703TP3     H119928   0.831   2.198   9.187 -0.6041  0.5201 -0.5555
 2703TP3     H219929   0.734   2.130   9.282 -0.9818 -0.5254 -1.6596
 2704TP3      O19930   4.443   1.559   9.204 -0.5309  0.0933  0.2325
 2704TP3     H119931   4.515   1.617   9.180 -0.3293  0.1132  0.8702
 2704TP3     H219932   4.373   1.581   9.142  0.4308 -0.8177 -1.2380
 2705TP3      O19933   4.133   0.962   8.155 -0.4164 -0.1348 -0.1630
 2705TP3     H119934   4.123   1.003   8.069 -0.1103  1.8827  0.7222
 2705TP3     H219935   4.085   0.879   8.147 -1.5986  0.6537 -1.8396
 2706TP3      O19936   1.921   0.541   2.908  0.5942  0.1802  0.0836
 2706TP3     H119937   1.898   0.483   2.981  0.7007  0.5660  0.4310
 2706TP3     H219938   1.846   0.600   2.900  0.9491  0.6951  0.4582
 2707TP3      O19939   4.327   4.332   3.178  0.0766 -0.0620  0.2784
 2707TP3     H119940   4.403   4.351   3.124 -0.4188 -1.1049 -0.8254
 2707TP3     H219941   4.351   4.365   3.265  0.7754  1.8845 -0.6039
 2708TP3      O19942   2.233   4.862   7.702  0.0755  0.2771  0.3779
 2708TP3     H119943   2.306   4.810   7.670  0.7675  1.4598 -0.0191
 2708TP3     H219944   2.163   4.847   7.637  0.6477  0.7189 -0.3547
 2709TP3      O19945   3.683   2.256   9.003  0.0261  0.2219  0.8343
 2709TP3     H119946   3.635   2.173   9.008  1.0101 -0.4319 -0.2327
 2709TP3     H219947   3.642   2.304   8.931  0.5418 -0.0584  0.3511
 2710TP3      O19948   4.106   1.417   7.685 -0.4920  0.2542  0.0078
 2710TP3     H119949   4.053   1.483   7.640  1.4212  0.7985 -1.5627
 2710TP3     H219950   4.193   1.456   7.690  0.4584 -1.7768 -0.0534
 2711TP3      O19951   0.387   1.522   0.347 -0.0003  0.6346 -0.2731
 2711TP3     H119952   0.378   1.533   0.441  0.3749 -2.2304  0.1821
 2711TP3     H219953   0.357   1.433   0.330  0.4545  0.8868 -2.8040
 2712TP3      O19954   3.373   4.856   8.448  0.3865  0.3120 -0.2490
 2712TP3     H119955   3.429   4.812   8.382  0.1251  1.2193 -1.0986
 2712TP3     H219956   3.284   4.838   8.419  0.2064 -0.8252  0.9072
 2713TP3      O19957   4.616   0.547   9.674 -0.1160  0.3791 -0.1669
 2713TP3     H119958   4.613   0.635   9.711  0.3272 -0.3048  1.5772
 2713TP3     H219959   4.564   0.554   9.593 -1.4087  1.8596  0.7273
 2714TP3      O19960   2.255   3.250   9.838 -0.3803  0.1416  0.4121
 2714TP3     H119961   2.219   3.325   9.791 -0.9723 -0.8928 -0.8492
 2714TP3     H219962   2.286   3.287   9.921  0.3457  1.9722 -0.6048
 2715TP3      O19963   4.708   4.529   7.507  0.2661 -0.6474 -0.4169
 2715TP3     H119964   4.680   4.615   7.479 -0.3165 -0.6888  0.0049
 2715TP3     H219965   4.799   4.541   7.535 -0.6585  0.5535  2.5221
 2716TP3      O19966   3.687   2.421   9.541 -0.0232 -0.6632 -0.0161
 2716TP3     H119967   3.705   2.336   9.502  0.0327 -0.6167 -0.0919
 2716TP3     H219968   3.591   2.428   9.540  0.0059 -0.0192 -1.5438
 2717TP3      O19969   4.150   1.028   8.478  0.2002  0.0393 -0.4793
 2717TP3     H119970   4.189   1.002   8.562 -2.7688 -1.8639  0.4806
 2717TP3     H219971   4.203   0.982   8.413  0.3548 -1.5120  0.6643
 2718TP3      O19972   2.906   4.513   7.884 -0.0187  0.1585  0.5265
 2718TP3     H119973   2.818   4.541   7.907 -0.1589  0.0601  0.1103
 2718TP3     H219974   2.963   4.581   7.921 -0.1731 -0.4566  1.9567
 2719TP3      O19975   4.775   1.093   1.639  0.1889  0.3039  0.1531
 2719TP3     H119976   4.696   1.094   1.585  0.4131  0.2074 -0.1748
 2719TP3     H219977   4.764   1.168   1.699  0.1228  0.6486 -0.2874
 2720TP3      O19978   0.129   1.549   9.370  0.2258 -0.1555 -0.4525
 2720TP3     H119979   0.161   1.561   9.281  1.1016 -0.3574 -0.1763
 2720TP3     H219980   0.170   1.620   9.420 -0.0864 -0.1736 -0.1598
 2721TP3      O19981   4.042   4.224   8.383  0.6523  0.1195  0.3683
 2721TP3     H119982   4.107   4.291   8.406  0.9516  0.2679 -0.8617
 2721TP3     H219983   3.974   4.271   8.335  1.0555 -0.4987 -0.8540
 2722TP3      O19984   3.909   0.167   0.485  0.3894 -0.0019 -0.1830
 2722TP3     H119985   3.896   0.221   0.407 -0.7391  1.5506  1.0163
 2722TP3     H219986   3.826   0.122   0.498  0.5232 -0.1451  0.1923
 2723TP3      O19987   2.838   3.542   7.412 -0.2841  0.1965 -0.2643
 2723TP3     H119988   2.827   3.584   7.497  0.4542 -1.0708  0.4799
 2723TP3     H219989   2.929   3.513   7.411 -0.5107 -0.5495 -1.1442
 2724TP3      O19990   5.147   1.051   8.280 -0.0367  0.3951 -0.0134
 2724TP3     H119991   5.089   0.975   8.273 -1.0782  1.1977 -0.3408
 2724TP3     H219992   5.196   1.037   8.361 -0.5324 -0.4029  0.1568
 2725TP3      O19993   0.206   2.549   8.825  0.0558 -0.4556 -0.0218
 2725TP3     H119994   0.171   2.577   8.909 -2.0432  0.1401 -1.0393
 2725TP3     H219995   0.275   2.486   8.848  0.4344  0.6417  2.1349
 2726TP3      O19996   3.100   4.987   7.324 -0.5582 -0.7078  0.1211
 2726TP3     H119997   3.166   4.922   7.350 -0.6289 -0.2315  1.5894
 2726TP3     H219998   3.098   4.982   7.229  2.1564 -0.1845 -0.0321
 2727TP3      O19999   2.606   2.451   7.617  0.1274 -0.0086  0.1240
 2727TP3     H120000   2.512   2.463   7.625 -0.1049 -0.9061 -0.9895
 2727TP3     H220001   2.622   2.365   7.658  0.4524  0.1289  0.2871
 2728TP3      O20002   2.838   2.566   1.387  0.0914 -0.3270 -0.1261
 2728TP3     H120003   2.760   2.580   1.440  0.4947 -0.7689  0.5999
 2728TP3     H220004   2.897   2.637   1.412  0.7271 -1.1805  0.8878
 2729TP3      O20005   1.915   1.590   8.858  0.3176  0.3895 -0.0413
 2729TP3     H120006   1.879   1.557   8.776 -1.2464 -2.9063  1.7647
 2729TP3     H220007   2.003   1.552   8.863  0.0538 -0.1810  0.2372
 2730TP3      O20008   2.962   5.109   6.866  0.1925 -0.5564  0.7004
 2730TP3     H120009   2.908   5.185   6.886 -0.8829 -1.2917  0.6858
 2730TP3     H220010   3.052   5.138   6.881 -0.1875  0.7640  0.4999
 2731TP3      O20011   0.622   2.636   2.813  0.0603 -0.6689 -0.1273
 2731TP3     H120012   0.678   2.558   2.814  1.2552 -0.0039 -2.9751
 2731TP3     H220013   0.682   2.708   2.793 -1.6089  0.1658 -2.7046
 2732TP3      O20014   2.422   3.846   8.731 -0.5789 -1.0672  0.1699
 2732TP3     H120015   2.418   3.832   8.826 -1.5505 -4.2030 -0.2159
 2732TP3     H220016   2.468   3.769   8.698  0.0630  0.1499 -1.9139
 2733TP3      O20017   3.019   2.044   8.627  0.0135 -0.0346  0.1039
 2733TP3     H120018   2.960   2.108   8.666 -0.3720 -0.2063 -0.1868
 2733TP3     H220019   2.981   1.959   8.650  0.1226 -0.1459 -0.1190
 2734TP3      O20020   0.337   4.678   2.227  0.2919  0.8621  0.0138
 2734TP3     H120021   0.298   4.641   2.147 -1.2960 -0.3408  1.2833
 2734TP3     H220022   0.417   4.628   2.240 -0.0882  0.1891 -0.1538
 2735TP3      O20023   5.136   1.754   1.223  0.8677  0.0190 -0.2927
 2735TP3     H120024   5.045   1.775   1.201 -0.1593 -0.2118  3.1647
 2735TP3     H220025   5.133   1.663   1.251  2.3512 -0.2214 -0.8637
 2736TP3      O20026   4.106   4.574   8.930 -0.4979  0.2474  0.6552
 2736TP3     H120027   4.162   4.501   8.959 -0.2691  0.2783  0.3018
 2736TP3     H220028   4.017   4.542   8.943 -0.4044 -0.3119 -0.0097
 2737TP3      O20029   2.820   5.140   0.177 -0.1410  0.0581 -0.0378
 2737TP3     H120030   2.793   5.126   0.267 -2.5907 -0.5323 -0.7875
 2737TP3     H220031   2.780   5.223   0.151  1.3523  0.7283 -0.3281
 2738TP3      O20032   2.177   1.764   7.157 -0.4236  0.0938  0.1028
 2738TP3     H120033   2.091   1.791   7.189 -0.4086 -1.3220  1.4636
 2738TP3     H220034   2.237   1.827   7.196 -0.6630 -0.0721  0.7483
 2739TP3      O20035   1.561   2.928   1.441 -0.0491  0.0754 -0.0120
 2739TP3     H120036   1.632   2.991   1.426  2.2088 -2.3089  0.1413
 2739TP3     H220037   1.546   2.889   1.355 -0.7521  0.1281  0.0846
 2740TP3      O20038   4.179   0.380   8.187  0.8375 -0.2837  0.1963
 2740TP3     H120039   4.213   0.427   8.263  0.9397 -1.1370  0.6806
 2740TP3     H220040   4.248   0.392   8.120  3.5729 -4.1762  1.9362
 2741TP3      O20041   3.305   0.600   0.028 -0.4805  0.3632  0.1162
 2741TP3     H120042   3.221   0.561   0.005  0.1179 -0.3586 -0.9305
 2741TP3     H220043   3.342   0.628  -0.056  1.4104 -1.5663  0.2293
 2742TP3      O20044   4.323   4.649   9.802  0.1457 -0.4221 -0.0213
 2742TP3     H120045   4.268   4.712   9.756 -0.3363 -0.0041  1.1086
 2742TP3     H220046   4.377   4.610   9.733 -0.0519  0.6998 -0.8355
 2743TP3      O20047   3.830   2.720   3.284  0.8750 -0.5014  0.0874
 2743TP3     H120048   3.741   2.687   3.279  0.4567  0.6275 -0.1078
 2743TP3     H220049   3.861   2.692   3.370  0.9733 -2.4166 -0.5237
 2744TP3      O20050   5.085   3.272   0.539  0.2020  0.4834 -0.1881
 2744TP3     H120051   5.157   3.328   0.568 -0.8356  0.9258  1.7398
 2744TP3     H220052   5.035   3.326   0.478  0.7517  0.6490 -0.4954
 2745TP3      O20053   3.415   3.998   1.967  0.0291  0.0579 -0.8079
 2745TP3     H120054   3.350   4.058   2.005 -0.6038 -2.2000  2.0249
 2745TP3     H220055   3.367   3.953   1.897 -0.2578  0.9808 -1.2293
 2746TP3      O20056   2.310   4.701   2.691 -0.0889 -0.8997  0.3757
 2746TP3     H120057   2.257   4.640   2.640 -0.1996 -0.2554 -0.3014
 2746TP3     H220058   2.287   4.683   2.782 -0.0217 -1.9434  0.1977
 2747TP3      O20059   4.892   0.895   9.307 -0.0758  0.0392  0.2460
 2747TP3     H120060   4.969   0.892   9.363  0.3697 -1.5831 -0.4132
 2747TP3     H220061   4.849   0.810   9.320 -0.6986  0.1654 -0.8239
 2748TP3      O20062   0.089   1.774   9.717 -0.0506  0.0300  0.1842
 2748TP3     H120063   0.179   1.801   9.697  0.0320 -1.5193 -1.8684
 2748TP3     H220064   0.039   1.796   9.638 -1.0933 -0.7432  0.5983
 2749TP3      O20065   1.349   0.882   7.398 -0.1792 -0.0359  0.1014
 2749TP3     H120066   1.356   0.844   7.311 -1.3631  0.3303 -0.1704
 2749TP3     H220067   1.435   0.921   7.414 -0.3201  0.9923 -1.4354
 2750TP3      O20068   1.485   4.738   9.398  0.3628  0.1803  0.6912
 2750TP3     H120069   1.450   4.649   9.408 -0.6662  0.5877  0.7997
 2750TP3     H220070   1.539   4.751   9.476  1.8574 -0.9213 -0.0931
 2751TP3      O20071   3.116   2.522   8.734  0.2304 -0.4134  0.6911
 2751TP3     H120072   3.025   2.540   8.758 -0.2386 -1.6690 -0.0573
 2751TP3     H220073   3.150   2.468   8.805  0.2350 -0.3920  0.7054
 2752TP3      O20074   2.390   0.425   6.984  0.0880 -0.1561  0.6041
 2752TP3     H120075   2.380   0.372   7.063  1.2512 -1.1457  0.1218
 2752TP3     H220076   2.482   0.454   6.986 -0.4536  1.6832  0.7385
 2753TP3      O20077   4.314   3.109   2.431 -0.0365 -0.4297 -0.4247
 2753TP3     H120078   4.320   3.197   2.393  1.0341  0.8714  2.4804
 2753TP3     H220079   4.220   3.092   2.438 -0.2652  0.6820 -0.6185
 2754TP3      O20080   4.746   3.199   8.314  0.2274 -0.5542  0.2193
 2754TP3     H120081   4.828   3.238   8.284 -0.5088  0.5386 -0.4439
 2754TP3     H220082   4.716   3.146   8.240 -0.2785  0.0515 -0.0206
 2755TP3      O20083   4.495   2.264   9.950 -0.2110 -0.2293 -0.3293
 2755TP3     H120084   4.512   2.357   9.936 -3.0570  1.2327  3.9497
 2755TP3     H220085   4.416   2.245   9.900 -0.3537 -0.0139 -0.1815
 2756TP3      O20086   1.499   0.394   0.145 -0.0740 -0.5239 -0.4975
 2756TP3     H120087   1.501   0.324   0.080  0.7676  0.4011 -1.5204
 2756TP3     H220088   1.442   0.460   0.106  0.1811 -0.0956 -0.1469
 2757TP3      O20089   1.623   3.026   8.935  0.5907 -0.0805 -0.4992
 2757TP3     H120090   1.659   2.941   8.959  1.6524  0.6686  0.7207
 2757TP3     H220091   1.697   3.074   8.896  0.5802  0.9587  0.6786
 2758TP3      O20092   0.481   0.626   8.201  0.1947 -0.0764 -0.4136
 2758TP3     H120093   0.499   0.707   8.154 -1.0091 -0.6876 -2.0261
 2758TP3     H220094   0.405   0.647   8.256  0.5736  0.1880  0.0121
 2759TP3      O20095   0.707   3.674   2.123 -0.3271 -1.0196 -0.4140
 2759TP3     H120096   0.715   3.579   2.126 -1.9979 -1.1806  0.3738
 2759TP3     H220097   0.626   3.690   2.075 -0.4114 -0.0256  0.0268
 2760TP3      O20098   4.828   2.634   0.287  0.8176 -0.1447  0.5830
 2760TP3     H120099   4.829   2.540   0.308  2.5754 -0.7671 -1.9369
 2760TP3     H220100   4.840   2.638   0.193  0.8434  2.6686  0.6265
 2761TP3      O20101   0.833   3.461   3.371 -0.5651 -0.5451  0.4120
 2761TP3     H120102   0.741   3.480   3.388  0.0871  1.6763  1.7214
 2761TP3     H220103   0.834   3.367   3.349 -2.9443 -0.9460  1.6989
 2762TP3      O20104   1.833   2.565   6.801 -0.2947 -0.0987  0.0115
 2762TP3     H120105   1.863   2.543   6.889 -1.0127 -0.7755  0.1015
 2762TP3     H220106   1.825   2.480   6.757 -0.2437  0.2137 -0.5998
 2763TP3      O20107   1.849   0.370  10.064 -0.0625 -0.0534 -0.4082
 2763TP3     H120108   1.833   0.303   9.998 -0.9538 -0.2254 -0.0205
 2763TP3     H220109   1.779   0.434  10.052 -0.4475 -0.2749  0.6145
 2764TP3      O20110   0.147   0.310   9.677 -0.2448  0.1586 -0.0455
 2764TP3     H120111   0.114   0.361   9.751  0.4699  0.9493 -0.2659
 2764TP3     H220112   0.068   0.283   9.630 -0.6998 -0.2187  0.9006
 2765TP3      O20113   3.140   2.745   9.741  0.0309 -0.0619 -0.1694
 2765TP3     H120114   3.225   2.704   9.755  1.3009  2.2879 -0.5464
 2765TP3     H220115   3.144   2.778   9.651 -1.5764 -0.5069 -0.4377
 2766TP3      O20116   3.653   1.540   1.831  0.2331 -0.8958 -0.1565
 2766TP3     H120117   3.666   1.446   1.819 -0.5326 -1.1290  0.8022
 2766TP3     H220118   3.566   1.557   1.796  1.7318  0.1759 -3.9377
 2767TP3      O20119   5.027   3.279   8.823  0.3397 -0.1873  0.5181
 2767TP3     H120120   4.978   3.314   8.749 -0.5255  1.8044  1.9114
 2767TP3     H220121   4.963   3.227   8.872  0.8730 -1.3994 -0.0504
 2768TP3      O20122   2.359   4.895   7.032 -0.5770 -0.1321  0.1595
 2768TP3     H120123   2.446   4.920   7.000 -0.7716 -0.5066 -0.6947
 2768TP3     H220124   2.337   4.815   6.984 -0.9908 -0.5877  1.0744
 2769TP3      O20125   0.893   4.393   7.363 -0.2674  0.6209 -0.4494
 2769TP3     H120126   0.976   4.350   7.384  0.4903  2.1056 -0.2891
 2769TP3     H220127   0.902   4.419   7.272 -0.1225  1.7124 -0.1351
 2770TP3      O20128   0.422   4.740   8.510  0.6604  0.3321 -0.1556
 2770TP3     H120129   0.512   4.715   8.532  1.3286  2.3681 -0.3536
 2770TP3     H220130   0.413   4.828   8.546 -0.9950  0.4762 -0.8643
 2771TP3      O20131   0.791   0.292   8.157  0.1494  0.2383  0.2327
 2771TP3     H120132   0.834   0.239   8.091 -0.9656  1.7874 -1.8349
 2771TP3     H220133   0.850   0.367   8.170 -0.3972  0.7600 -0.2489
 2772TP3      O20134   2.944   2.108   7.510  0.0097  0.1188 -0.8458
 2772TP3     H120135   2.907   2.128   7.425 -2.2752 -3.0120 -0.7526
 2772TP3     H220136   2.871   2.118   7.571  1.2223  0.8428  0.5507
 2773TP3      O20137   0.414   4.836   8.246 -0.1751  0.0760  0.4985
 2773TP3     H120138   0.407   4.929   8.263 -0.3966  0.0382  0.6093
 2773TP3     H220139   0.442   4.798   8.329 -1.6182 -0.1533  0.8959
 2774TP3      O20140   2.877   4.105   9.523 -0.2739  0.5805  0.4622
 2774TP3     H120141   2.852   4.179   9.579  0.6492  0.3731  1.1678
 2774TP3     H220142   2.954   4.068   9.566 -0.4210 -0.4737 -0.1713
 2775TP3      O20143   0.205   1.372   1.767  0.2287 -0.2817  0.0895
 2775TP3     H120144   0.245   1.359   1.682  0.9255 -0.2316  0.4080
 2775TP3     H220145   0.234   1.297   1.819  1.3072  0.6396  0.8384
 2776TP3      O20146   3.274   1.497   7.275  0.0862 -0.9840  0.3668
 2776TP3     H120147   3.184   1.514   7.305  0.8472  0.1371  2.1393
 2776TP3     H220148   3.301   1.577   7.232 -0.3336 -1.9444 -1.8149
 2777TP3      O20149   4.553   2.201   2.342  0.6009  0.0646  0.3457
 2777TP3     H120150   4.502   2.264   2.290  1.0230  1.9479  2.0838
 2777TP3     H220151   4.564   2.126   2.284  0.5131  1.7810 -2.0465
 2778TP3      O20152   1.207   4.363   8.725 -0.4964  0.5021 -0.0742
 2778TP3     H120153   1.126   4.396   8.685 -0.5556  0.8245  0.3010
 2778TP3     H220154   1.222   4.279   8.682  0.9293  2.0112 -2.7655
 2779TP3      O20155   3.759   0.360   2.388 -0.2831  0.2839  0.0528
 2779TP3     H120156   3.703   0.401   2.321 -1.5238 -0.8165  0.3704
 2779TP3     H220157   3.760   0.423   2.459 -2.5506 -0.3318  0.7209
 2780TP3      O20158   4.503   3.360   8.314  0.1618  0.0833 -0.5529
 2780TP3     H120159   4.580   3.304   8.322  0.7937  0.6581 -2.1444
 2780TP3     H220160   4.432   3.310   8.354  1.2647 -0.6117  0.6208
 2781TP3      O20161   0.967   0.196   7.530 -0.3374 -0.2151 -0.6928
 2781TP3     H120162   0.878   0.176   7.558 -0.1775 -0.2021 -0.1653
 2781TP3     H220163   0.984   0.283   7.567 -0.1963 -0.1021 -1.0158
 2782TP3      O20164   3.459   2.249   2.157  0.2873 -0.0667 -0.4174
 2782TP3     H120165   3.463   2.306   2.235  1.2552  0.7506 -1.0306
 2782TP3     H220166   3.508   2.297   2.090  0.6314 -1.3705 -1.1406
 2783TP3      O20167   1.933   1.617   8.360  0.0622  0.1352  0.1247
 2783TP3     H120168   2.019   1.580   8.338 -0.6738 -1.8802  0.4203
 2783TP3     H220169   1.939   1.709   8.332  2.8789  0.5651  1.6947
 2784TP3      O20170   3.434   0.443   0.674 -0.5737 -0.2193 -0.5569
 2784TP3     H120171   3.455   0.373   0.736 -1.6248  0.2825  0.3931
 2784TP3     H220172   3.513   0.451   0.620  1.1691  0.6591  1.9768
 2785TP3      O20173   2.626   4.948   9.270 -0.4916  0.6209 -0.1238
 2785TP3     H120174   2.675   4.968   9.349 -0.6688  3.8434 -0.6819
 2785TP3     H220175   2.563   4.882   9.297 -0.1822  1.2084  2.3020
 2786TP3      O20176   3.484   3.912   8.938 -0.0234  0.4601 -0.2528
 2786TP3     H120177   3.416   3.965   8.896  0.5720  0.2857 -1.4892
 2786TP3     H220178   3.437   3.837   8.974 -0.6236  0.8836 -0.1300
 2787TP3      O20179   1.736   2.215   9.208  0.0827 -0.0981  0.0539
 2787TP3     H120180   1.807   2.151   9.205  0.8591  0.7731 -0.9177
 2787TP3     H220181   1.657   2.163   9.221  1.0864 -0.9247  4.3645
 2788TP3      O20182   0.221   0.629   1.542 -0.0094 -0.1731 -0.5460
 2788TP3     H120183   0.262   0.709   1.509 -0.0299 -0.3657 -1.0417
 2788TP3     H220184   0.182   0.588   1.465  0.9034 -1.2005 -0.5039
 2789TP3      O20185   4.380   4.351   2.776 -0.0331 -0.0416 -0.2825
 2789TP3     H120186   4.405   4.442   2.791 -0.1474 -0.0738  0.1230
 2789TP3     H220187   4.459   4.301   2.797 -0.3417 -0.1268  0.7819
 2790TP3      O20188   4.284   2.640   8.374 -0.0463 -0.5226  0.0028
 2790TP3     H120189   4.291   2.643   8.469  0.9415 -0.6094 -0.0566
 2790TP3     H220190   4.221   2.709   8.352  1.7634  1.4016  0.5543
 2791TP3      O20191   1.845   4.952   9.682 -0.1618 -0.6529  0.8124
 2791TP3     H120192   1.829   4.954   9.776  0.5910 -0.4334  0.9429
 2791TP3     H220193   1.940   4.941   9.674 -0.0644  0.5344  0.0866
 2792TP3      O20194   4.743   1.237   2.776  0.6153  0.0826 -0.1039
 2792TP3     H120195   4.701   1.317   2.806  1.6933  0.8841 -0.6780
 2792TP3     H220196   4.796   1.207   2.850 -0.9935 -0.9988  0.6662
 2793TP3      O20197   3.970   1.786   2.663 -0.0803 -0.4912  0.6271
 2793TP3     H120198   4.018   1.858   2.620  0.3692 -1.4439 -0.5328
 2793TP3     H220199   3.878   1.809   2.651  0.0469  0.6414  1.6087
 2794TP3      O20200   2.441   3.603   7.848  0.2036 -0.1559 -0.2077
 2794TP3     H120201   2.504   3.543   7.809 -0.5852 -0.1455 -1.5835
 2794TP3     H220202   2.389   3.549   7.907  0.0307 -0.6695 -0.8132
 2795TP3      O20203   2.536   0.614   9.068  0.0302  0.1090 -0.0708
 2795TP3     H120204   2.565   0.703   9.048 -0.0115  0.1630  0.1080
 2795TP3     H220205   2.605   0.579   9.125 -0.5262  0.4332  0.8266
 2796TP3      O20206   4.251   0.209   0.127 -0.2568  0.3393 -0.1633
 2796TP3     H120207   4.212   0.128   0.093  0.1017  0.5243 -1.0333
 2796TP3     H220208   4.183   0.275   0.117  0.6886  1.0013 -3.0621
 2797TP3      O20209   4.306   1.410   0.441 -0.0441 -0.3626  0.1248
 2797TP3     H120210   4.223   1.411   0.489  0.2140 -1.4621  0.6094
 2797TP3     H220211   4.280   1.414   0.349 -0.6561 -1.2136  0.2568
 2798TP3      O20212   0.938   2.136   8.159  0.1212 -0.0279  0.2460
 2798TP3     H120213   0.947   2.230   8.144 -0.3395  0.4830  2.7779
 2798TP3     H220214   1.002   2.117   8.228 -0.6151 -1.3220  0.5970
 2799TP3      O20215   2.544   1.124   7.758 -0.9430 -0.5300 -0.2351
 2799TP3     H120216   2.583   1.037   7.763 -2.4561 -1.2256 -0.0115
 2799TP3     H220217   2.577   1.160   7.676  1.6431 -0.3001  0.8203
 2800TP3      O20218   1.302   3.391   7.946 -0.0313  0.5657 -0.7302
 2800TP3     H120219   1.286   3.297   7.952 -0.4784  0.5779 -1.5947
 2800TP3     H220220   1.245   3.429   8.013  0.8794  0.1664  0.3100
 2801TP3      O20221   4.307   4.894   0.247 -0.7392  0.3953 -0.1332
 2801TP3     H120222   4.386   4.862   0.291  0.0078  0.4590 -1.3964
 2801TP3     H220223   4.318   4.989   0.243 -0.2390  0.3002 -1.4712
 2802TP3      O20224   3.779   1.979   2.112 -0.2748  0.4585 -0.0585
 2802TP3     H120225   3.794   1.887   2.092  2.2984  0.7746  0.1570
 2802TP3     H220226   3.816   1.991   2.199  0.2209  1.8777 -0.4451
 2803TP3      O20227   0.536   1.173   1.679 -0.5032 -0.1259 -0.0668
 2803TP3     H120228   0.570   1.207   1.762 -0.3933 -0.6753  0.1240
 2803TP3     H220229   0.479   1.242   1.646 -0.6805  0.0351  0.5527
 2804TP3      O20230   2.473   2.343   7.285  0.6818 -0.1603  0.2332
 2804TP3     H120231   2.486   2.283   7.211 -0.5564  0.4638 -0.5213
 2804TP3     H220232   2.436   2.288   7.354 -0.3470 -0.3025 -0.4189
 2805TP3      O20233   1.267   0.390   9.636  0.1942 -0.0943 -0.3198
 2805TP3     H120234   1.250   0.380   9.543  0.7361 -2.0860 -0.2511
 2805TP3     H220235   1.181   0.388   9.677 -0.0016  0.0624 -0.7207
 2806TP3      O20236   5.155   4.799   0.656 -0.1989 -0.4432  0.3689
 2806TP3     H120237   5.181   4.715   0.692  0.4136 -0.2192  0.4604
 2806TP3     H220238   5.121   4.779   0.569 -0.4284 -0.8253  0.5430
 2807TP3      O20239   2.743   4.180   7.973  0.2642 -0.6350 -0.7243
 2807TP3     H120240   2.702   4.206   8.056  3.0211 -0.9904  0.8922
 2807TP3     H220241   2.728   4.086   7.967 -0.6423 -0.4768 -1.0868
 2808TP3      O20242   3.933   4.137   1.528 -0.5689 -0.1586 -0.1732
 2808TP3     H120243   3.947   4.227   1.556 -0.5149 -0.1748 -0.1489
 2808TP3     H220244   3.943   4.085   1.607 -1.1531 -0.1338 -0.0759
 2809TP3      O20245   5.106   3.315   7.348 -0.1446 -0.1157  0.2756
 2809TP3     H120246   5.134   3.271   7.268 -1.3111 -1.3561  0.5142
 2809TP3     H220247   5.166   3.389   7.357  0.2444 -0.1619 -1.5338
 2810TP3      O20248   1.559   1.941   1.486 -0.1514 -0.2003  0.2884
 2810TP3     H120249   1.474   1.899   1.480 -0.1304 -0.0205 -1.7645
 2810TP3     H220250   1.546   2.029   1.450  0.8705 -0.1384  0.0357
 2811TP3      O20251   4.827   4.278   9.948 -0.3234  0.2112  0.7948
 2811TP3     H120252   4.858   4.342  10.012  3.6089 -1.6812  1.0664
 2811TP3     H220253   4.881   4.293   9.871  0.0027 -2.0810  0.5180
 2812TP3      O20254   4.967   1.324   0.942 -0.2603 -0.3613  0.0661
 2812TP3     H120255   4.952   1.234   0.914 -0.6576 -0.4030  0.4126
 2812TP3     H220256   5.048   1.321   0.992 -0.1686 -0.4898 -0.0897
 2813TP3      O20257   0.776   5.287   7.752 -0.5636 -0.0037  0.4608
 2813TP3     H120258   0.757   5.200   7.717  1.5509  0.1415 -1.2946
 2813TP3     H220259   0.723   5.346   7.699  0.7904  0.0100 -0.9616
 2814TP3      O20260   3.363   1.648   8.805 -0.5284 -0.3695 -0.3358
 2814TP3     H120261   3.272   1.645   8.834 -1.0305 -0.0960 -1.8072
 2814TP3     H220262   3.413   1.661   8.886 -1.6385 -2.2133  0.7245
 2815TP3      O20263   2.695   1.593   8.746  0.0289  0.1856  0.1568
 2815TP3     H120264   2.629   1.621   8.682 -2.2658  0.2673  2.3898
 2815TP3     H220265   2.704   1.499   8.732  1.6046  0.5717 -1.9635
 2816TP3      O20266   1.605   1.902   2.127  0.1889 -0.3937  0.8634
 2816TP3     H120267   1.688   1.946   2.111  1.2151 -2.4959  0.0321
 2816TP3     H220268   1.580   1.929   2.215  1.4195  0.7598  0.8909
 2817TP3      O20269   1.391   4.749   0.795 -0.2471 -0.2923 -0.2387
 2817TP3     H120270   1.466   4.777   0.847 -1.4670  0.5873  1.1582
 2817TP3     H220271   1.344   4.831   0.777 -0.9639 -0.8450 -0.9299
 2818TP3      O20272   4.376   3.768   1.267  0.4399  0.0798  0.3879
 2818TP3     H120273   4.471   3.773   1.253  0.5100 -0.0479  0.8028
 2818TP3     H220274   4.338   3.790   1.182  0.7748  2.8521  0.8532
 2819TP3      O20275   3.450   3.533   7.092 -0.3923 -0.8060  0.8308
 2819TP3     H120276   3.362   3.510   7.122 -0.7450  1.0710  1.3763
 2819TP3     H220277   3.456   3.627   7.107 -0.2097  0.2089 -4.0581
 2820TP3      O20278   4.023   0.311   0.840 -0.1757 -0.5619 -0.4117
 2820TP3     H120279   4.045   0.396   0.878 -0.6473 -0.7347  0.2603
 2820TP3     H220280   4.083   0.302   0.765  1.3622 -0.5868  0.7715
 2821TP3      O20281   2.223   5.111   0.589  0.0074 -0.2985  0.1299
 2821TP3     H120282   2.145   5.095   0.536 -0.8728  1.5690  0.7836
 2821TP3     H220283   2.269   5.027   0.589 -0.2321 -0.5537 -3.0831
 2822TP3      O20284   3.712   2.776   2.701  0.0883  0.1966  0.3549
 2822TP3     H120285   3.751   2.723   2.771  0.2665 -0.0742  0.0537
 2822TP3     H220286   3.618   2.763   2.711  0.0269  1.2225  1.3821
 2823TP3      O20287   1.028   1.490   0.720 -0.2971  0.3333  0.2398
 2823TP3     H120288   0.992   1.447   0.643 -0.7822  0.6312  0.2985
 2823TP3     H220289   0.957   1.544   0.753 -0.0044  0.4197  0.7388
 2824TP3      O20290   1.692   1.052   8.129 -0.2034  0.1970 -0.1355
 2824TP3     H120291   1.628   1.013   8.070  0.9556 -1.2714 -0.4778
 2824TP3     H220292   1.762   1.084   8.072  0.9564 -1.2865  0.3690
 2825TP3      O20293   3.598   0.862   1.885 -0.1835  0.2548  0.5093
 2825TP3     H120294   3.511   0.824   1.896  0.3014 -1.2418 -0.4224
 2825TP3     H220295   3.629   0.877   1.974 -0.5530 -1.2539  0.9276
 2826TP3      O20296   4.688   1.371   1.006  0.3755  0.0642 -0.0306
 2826TP3     H120297   4.783   1.371   1.001  0.3844  0.3115  0.1516
 2826TP3     H220298   4.660   1.324   0.927  0.6226  0.7230 -0.5169
 2827TP3      O20299   4.589   2.666   0.698 -0.3638  0.1237 -0.0783
 2827TP3     H120300   4.556   2.598   0.638 -1.2369  0.6344 -0.1995
 2827TP3     H220301   4.510   2.707   0.732 -0.0473 -1.7679  3.3788
 2828TP3      O20302   4.226   3.929   7.516  0.2295  0.0912 -0.3179
 2828TP3     H120303   4.263   3.841   7.511  0.0001  0.0674 -2.2848
 2828TP3     H220304   4.295   3.986   7.483  0.6179  0.7872  1.5308
 2829TP3      O20305   2.585   0.871   1.437  0.1225 -0.3390 -0.3807
 2829TP3     H120306   2.642   0.922   1.380 -1.1202  1.0743 -0.4267
 2829TP3     H220307   2.549   0.802   1.380 -1.1039  1.0581 -1.3665
 2830TP3      O20308   3.150   2.789  10.016 -0.2157 -0.6365 -0.4520
 2830TP3     H120309   3.116   2.742   9.939  0.7245 -0.2731 -1.1147
 2830TP3     H220310   3.116   2.878  10.006 -0.7237 -0.7816 -0.0304
 2831TP3      O20311   4.564   3.371   3.729 -0.2733  0.3600 -0.1490
 2831TP3     H120312   4.568   3.346   3.821  0.6383 -0.2273 -0.3482
 2831TP3     H220313   4.473   3.400   3.717 -0.6457 -0.4093  0.7054
 2832TP3      O20314   0.514   3.352   2.472  0.1025 -0.6079  0.0768
 2832TP3     H120315   0.520   3.343   2.567 -0.8456 -0.0142  0.2058
 2832TP3     H220316   0.588   3.302   2.439 -0.4782 -2.1788  1.0493
 2833TP3      O20317   3.683   3.162   2.091 -0.1431 -0.1754 -0.0702
 2833TP3     H120318   3.624   3.230   2.058  0.3493 -0.2287 -1.1077
 2833TP3     H220319   3.710   3.193   2.177 -0.4679  0.6026 -0.2389
 2834TP3      O20320   4.070   0.472   7.710 -0.5421  0.4241 -0.3433
 2834TP3     H120321   4.118   0.484   7.628  3.3414  0.1866  1.6388
 2834TP3     H220322   3.980   0.498   7.690  0.0838 -0.0719 -4.7079
 2835TP3      O20323   0.499   1.800   1.188 -0.1320 -0.2761  0.6830
 2835TP3     H120324   0.497   1.712   1.225  3.1004  0.1028  2.0950
 2835TP3     H220325   0.500   1.858   1.264 -1.5066  1.0051 -0.2148
 2836TP3      O20326   2.587   4.998   6.909  0.6025  0.0026  0.0082
 2836TP3     H120327   2.633   5.081   6.916 -0.4135  0.4748  1.6600
 2836TP3     H220328   2.528   5.009   6.835 -1.4829  1.8209  1.8217
 2837TP3      O20329   3.850   1.814   8.772 -0.4558 -0.6534  0.3161
 2837TP3     H120330   3.799   1.780   8.846  1.2688 -0.4006  1.6865
 2837TP3     H220331   3.921   1.751   8.760  1.5467  1.2327  1.4997
 2838TP3      O20332   1.185   0.409   1.016  0.4548 -0.0274  0.0688
 2838TP3     H120333   1.228   0.393   0.932  0.2098  0.9768 -0.2693
 2838TP3     H220334   1.149   0.497   1.007  1.3081  0.5211  1.5854
 2839TP3      O20335   0.628   2.593   8.464 -0.3261  0.5737 -0.0081
 2839TP3     H120336   0.556   2.656   8.450 -0.3159  0.1373 -2.3057
 2839TP3     H220337   0.597   2.539   8.537 -2.0189  0.8410 -0.4846
 2840TP3      O20338   0.176   4.041   2.788 -0.0067  0.3588 -0.0323
 2840TP3     H120339   0.200   3.990   2.711  2.5768  1.0475  0.2146
 2840TP3     H220340   0.110   4.103   2.757  1.4431  1.0602 -1.9092
 2841TP3      O20341   5.036   3.820  10.041  0.5879 -0.0206  0.0047
 2841TP3     H120342   5.053   3.807  10.134 -1.5980  1.3196  0.6543
 2841TP3     H220343   4.943   3.840  10.036  0.5278 -0.5495 -2.5497
 2842TP3      O20344   3.210   2.510   7.925  0.4331  0.5846  0.8203
 2842TP3     H120345   3.161   2.429   7.937  0.6009  0.4754  0.7725
 2842TP3     H220346   3.223   2.543   8.014  2.4389 -0.6765  1.0466
 2843TP3      O20347   2.017   3.326   7.690 -0.1283 -0.5593  0.0041
 2843TP3     H120348   1.989   3.273   7.615  0.6584 -0.4166 -0.4005
 2843TP3     H220349   1.936   3.368   7.721 -0.2382  0.6989 -1.8119
 2844TP3      O20350   0.137   4.019   1.289 -0.5744 -0.0686  0.0178
 2844TP3     H120351   0.160   4.094   1.344  1.0250 -1.1053  0.8428
 2844TP3     H220352   0.150   4.049   1.199  1.6242  0.1923  0.3803
 2845TP3      O20353   4.915   4.955   7.660 -0.4973 -0.3615 -0.0800
 2845TP3     H120354   4.908   4.911   7.745 -1.4664  2.3993  1.3954
 2845TP3     H220355   4.824   4.967   7.632 -0.2862  0.9251 -0.2634
 2846TP3      O20356   3.151   0.844   9.853  0.0750 -0.1317  0.2414
 2846TP3     H120357   3.092   0.873   9.923 -0.1744 -0.4708  0.1785
 2846TP3     H220358   3.148   0.914   9.788 -0.3512 -0.1935  0.1891
 2847TP3      O20359   2.606   0.734   8.538  0.8442 -0.1835  0.5995
 2847TP3     H120360   2.564   0.728   8.624  0.0830  1.7551  0.4096
 2847TP3     H220361   2.534   0.723   8.476  0.8524  1.3959  0.2617
 2848TP3      O20362   0.562   1.390   7.916  0.0910  0.0175  0.0293
 2848TP3     H120363   0.648   1.358   7.943 -0.0353  0.1467  0.6053
 2848TP3     H220364   0.543   1.344   7.835  0.2979 -0.6989  0.3835
 2849TP3      O20365   1.648   0.412   1.012  0.5106 -0.1741  0.3492
 2849TP3     H120366   1.737   0.446   1.022  0.1573  1.4013 -1.2430
 2849TP3     H220367   1.632   0.363   1.092  2.8875 -0.7111  0.5791
 2850TP3      O20368   2.084   0.847   1.584  0.5213 -0.0162 -0.5962
 2850TP3     H120369   2.096   0.934   1.546  2.4725 -0.1132 -0.3528
 2850TP3     H220370   2.065   0.790   1.509 -0.1746  0.5214 -0.8321
 2851TP3      O20371   1.574   4.588   0.067  0.0329 -0.3472  0.6252
 2851TP3     H120372   1.534   4.660   0.019  0.4893 -1.2779 -1.2179
 2851TP3     H220373   1.554   4.607   0.159 -2.8748  0.3015 -0.0276
 2852TP3      O20374   3.098   0.418   3.186 -0.1048 -0.2075 -0.7422
 2852TP3     H120375   3.106   0.513   3.180  0.5032 -0.3468 -2.6287
 2852TP3     H220376   3.020   0.398   3.134 -1.9567 -0.5498  1.9735
 2853TP3      O20377   3.578   2.553   2.224 -0.4957 -0.4607  0.3209
 2853TP3     H120378   3.522   2.630   2.223 -0.2848 -0.2843  1.1926
 2853TP3     H220379   3.563   2.511   2.139 -0.5987  0.5391 -0.1683
 2854TP3      O20380   3.297   0.373   9.913 -0.1591  0.2331 -0.0393
 2854TP3     H120381   3.290   0.333   9.827 -0.6619 -1.7271  0.8605
 2854TP3     H220382   3.220   0.429   9.920 -0.9281 -0.7687 -0.2954
 2855TP3      O20383   0.117   4.675   9.577 -0.3872  0.2811 -0.1902
 2855TP3     H120384   0.210   4.698   9.580 -0.8922  2.5733  0.3504
 2855TP3     H220385   0.087   4.688   9.667 -1.5783  1.4754 -0.7203
 2856TP3      O20386   0.078   0.961   9.694 -0.2910  0.1573 -0.9790
 2856TP3     H120387   0.166   0.993   9.674  0.5684 -1.1783  0.3947
 2856TP3     H220388   0.034   1.036   9.735  0.8848  0.3168  0.0715
 2857TP3      O20389   0.814   0.201   0.077  0.8847 -0.3391 -0.0968
 2857TP3     H120390   0.884   0.138   0.059  0.5033 -0.6716 -0.4290
 2857TP3     H220391   0.850   0.286   0.051  0.9398 -0.5933 -0.8768
 2858TP3      O20392   2.475   4.729   9.321  0.0741  0.2120 -0.0314
 2858TP3     H120393   2.523   4.690   9.394  2.0896  0.6676 -1.0328
 2858TP3     H220394   2.481   4.664   9.251 -1.2876  0.0553 -0.0375
 2859TP3      O20395   4.806   3.160   8.900  0.0999  0.1453 -0.0635
 2859TP3     H120396   4.775   3.094   8.962 -0.2364  1.2063  0.9197
 2859TP3     H220397   4.728   3.210   8.876  0.0114 -0.9105 -2.2193
 2860TP3      O20398   4.481   1.057   9.124 -0.3998 -0.3324  0.0740
 2860TP3     H120399   4.550   1.112   9.087 -0.9604 -0.6537 -1.5009
 2860TP3     H220400   4.410   1.118   9.143 -0.0867 -0.1578  0.7269
 2861TP3      O20401   0.726   3.747   9.048 -0.3283  0.1752  0.3448
 2861TP3     H120402   0.724   3.824   8.991 -0.2757 -1.0003 -1.3254
 2861TP3     H220403   0.764   3.778   9.129  0.4583  1.7389 -0.5812
 2862TP3      O20404   3.963   1.361   1.764 -0.0756 -0.5342 -0.1081
 2862TP3     H120405   3.875   1.340   1.733 -1.2760  3.9241 -0.3995
 2862TP3     H220406   3.950   1.387   1.855  0.8025  0.6322 -0.2954
 2863TP3      O20407   4.291   2.930   1.153 -0.3302 -0.4714 -0.8541
 2863TP3     H120408   4.206   2.904   1.189 -0.7410 -0.2044 -1.6004
 2863TP3     H220409   4.304   3.019   1.186  0.0791 -0.8272 -0.0279
 2864TP3      O20410   0.535   5.108   1.174  0.2623  0.2729 -0.4330
 2864TP3     H120411   0.555   5.054   1.098  1.8263 -0.3536  0.3800
 2864TP3     H220412   0.498   5.188   1.137 -0.4006 -0.6095 -1.7498
 2865TP3      O20413   2.553   2.649   8.902  0.0333  0.2619 -0.1856
 2865TP3     H120414   2.516   2.695   8.826 -1.1575  0.6328  0.5825
 2865TP3     H220415   2.562   2.717   8.968  1.1913 -0.0323 -0.0192
 2866TP3      O20416   2.863   3.654   6.911  0.6306  0.9423  0.8801
 2866TP3     H120417   2.813   3.579   6.877  0.8809  1.8020 -1.6563
 2866TP3     H220418   2.805   3.695   6.975 -0.8491  0.4192 -0.0709
 2867TP3      O20419   3.126   0.050   6.498 -0.3544  0.0798 -0.2040
 2867TP3     H120420   3.109   0.136   6.536  1.1436 -0.8900  3.1113
 2867TP3     H220421   3.042   0.004   6.503 -1.0149  1.1093 -1.4301
 2868TP3      O20422   3.030   5.232   3.174  0.2833  0.0667 -0.0929
 2868TP3     H120423   2.992   5.151   3.208  0.5677 -0.1695 -0.3290
 2868TP3     H220424   2.956   5.291   3.163 -0.0736 -0.5403 -0.9761
 2869TP3      O20425   0.503   0.586   8.903  0.9043  0.0235 -0.5723
 2869TP3     H120426   0.477   0.494   8.912  0.1069  0.1492 -1.3773
 2869TP3     H220427   0.494   0.604   8.809  0.2270  1.1565 -0.3038
 2870TP3      O20428   2.116   1.955   1.290  0.6257  0.2418  0.5387
 2870TP3     H120429   2.117   2.039   1.244  0.8409  0.4553  0.9304
 2870TP3     H220430   2.208   1.930   1.297  0.4841 -0.9539 -1.2310
 2871TP3      O20431   3.973   4.490   7.609  0.3636  0.2429  0.1725
 2871TP3     H120432   4.001   4.435   7.682 -0.5152  0.5259  0.7507
 2871TP3     H220433   3.909   4.550   7.648  0.8636  1.2817 -0.5599
 2872TP3      O20434   4.897   5.210   1.612 -0.0803  0.0712  0.2749
 2872TP3     H120435   4.885   5.204   1.517 -0.6051  2.4688  0.1314
 2872TP3     H220436   4.968   5.149   1.631 -0.8699 -1.4855 -1.4245
 2873TP3      O20437   2.764   0.553   9.212  0.3137 -0.4105 -0.7586
 2873TP3     H120438   2.840   0.604   9.239 -0.6049  0.0095  1.2086
 2873TP3     H220439   2.797   0.464   9.202  0.4532 -1.2499  4.3977
 2874TP3      O20440   2.768   4.166   1.040  0.5749  0.1277 -0.5642
 2874TP3     H120441   2.725   4.211   1.113  0.5331  1.0934 -1.1693
 2874TP3     H220442   2.797   4.083   1.077 -2.1801 -0.7816 -0.2407
 2875TP3      O20443   3.130   4.529   8.192 -0.2712  0.0607  0.0579
 2875TP3     H120444   3.104   4.610   8.236  2.1788  1.5685 -1.0129
 2875TP3     H220445   3.048   4.489   8.164 -1.5878  1.9950  0.9147
 2876TP3      O20446   0.138   5.186  10.023  0.1071 -0.2066 -0.3345
 2876TP3     H120447   0.180   5.106   9.992  1.9668  0.3760  0.5028
 2876TP3     H220448   0.078   5.157  10.091 -1.8336 -1.1862 -2.3603
 2877TP3      O20449   0.829   3.520   2.466  0.3193  0.9606 -0.3519
 2877TP3     H120450   0.904   3.466   2.440  1.4013  1.9407  0.6231
 2877TP3     H220451   0.865   3.608   2.475 -1.3387  1.7987 -1.5211
 2878TP3      O20452   0.734   2.980   9.736 -0.0127 -0.6755  0.3456
 2878TP3     H120453   0.697   2.957   9.651  0.9380 -1.4447  0.1208
 2878TP3     H220454   0.823   2.947   9.733  0.5550  0.7016  1.0535
 2879TP3      O20455   0.539   4.555   1.886  0.1455 -0.2958 -0.1497
 2879TP3     H120456   0.524   4.462   1.904 -0.3745 -0.7294 -2.4490
 2879TP3     H220457   0.598   4.584   1.956  0.3057 -2.3430  0.6325
 2880TP3      O20458   4.274   1.142   2.724 -0.8424 -0.3636  0.1623
 2880TP3     H120459   4.274   1.152   2.819 -1.8100 -0.1782  0.1624
 2880TP3     H220460   4.254   1.230   2.692  0.2692 -0.2489 -0.2528
 2881TP3      O20461   4.568   4.358   3.054  0.5343 -0.1063 -0.4040
 2881TP3     H120462   4.614   4.316   2.981 -0.0841 -1.4027 -0.0609
 2881TP3     H220463   4.620   4.337   3.131  0.0623 -0.5198 -0.1895
 2882TP3      O20464   2.292   4.469   8.613 -0.0910 -0.2574 -0.6184
 2882TP3     H120465   2.202   4.459   8.645 -0.3095 -0.2622 -1.2362
 2882TP3     H220466   2.328   4.380   8.613 -0.4096 -0.3849 -1.3278
 2883TP3      O20467   2.763   4.990   0.558  0.1196 -0.0925 -0.0922
 2883TP3     H120468   2.782   4.946   0.641  0.6950  2.0440  0.9663
 2883TP3     H220469   2.743   5.080   0.582  0.7033  0.6970 -2.3174
 2884TP3      O20470   1.139   3.928   8.430  0.3193  0.0795 -0.1392
 2884TP3     H120471   1.092   3.852   8.395  0.5220 -1.1726  2.1340
 2884TP3     H220472   1.075   3.974   8.484 -0.1995  2.4029 -2.5253
 2885TP3      O20473   5.254   1.623   7.103  1.1907  0.2312  0.1543
 2885TP3     H120474   5.187   1.602   7.168 -0.6343  3.4893 -0.4663
 2885TP3     H220475   5.308   1.689   7.145  1.3635  0.7425 -0.8340
 2886TP3      O20476   1.283   0.497   7.181 -0.2326  0.0519 -0.2130
 2886TP3     H120477   1.351   0.430   7.187  0.7807  1.0704  0.1285
 2886TP3     H220478   1.285   0.525   7.089  0.5503  0.7947  0.0139
 2887TP3      O20479   1.793   0.580   7.698  0.3219 -0.1126 -0.0064
 2887TP3     H120480   1.698   0.568   7.694  0.6136 -3.7391  0.4252
 2887TP3     H220481   1.807   0.670   7.669 -3.1508  0.2551 -1.0344
 2888TP3      O20482   2.209   1.886   7.480  0.1391  0.3406  0.1378
 2888TP3     H120483   2.135   1.870   7.421 -0.1576 -2.6211  1.1781
 2888TP3     H220484   2.283   1.903   7.422 -0.5765 -0.4080 -1.0267
 2889TP3      O20485   2.108   1.193   0.857  0.6157 -0.1409  0.4775
 2889TP3     H120486   2.181   1.224   0.910  0.3629 -0.2849  0.9144
 2889TP3     H220487   2.128   1.223   0.768  0.2069  1.5862  0.9322
 2890TP3      O20488   4.143   5.063   3.297  0.3848 -0.5169 -0.8878
 2890TP3     H120489   4.165   5.022   3.213  0.6295 -1.5050 -0.3507
 2890TP3     H220490   4.079   5.004   3.337  0.5458 -0.2394 -0.2091
 2891TP3      O20491   1.764   3.527   2.757 -0.2186  0.0776  0.4007
 2891TP3     H120492   1.761   3.491   2.846 -3.4347 -0.5254  0.1567
 2891TP3     H220493   1.805   3.457   2.705  0.0778 -0.2878  1.1051
 2892TP3      O20494   1.337   5.014   3.116 -0.1019 -0.3960 -0.0438
 2892TP3     H120495   1.267   4.957   3.085 -0.5584  0.1278  0.0024
 2892TP3     H220496   1.357   4.983   3.204 -0.4029 -0.4369  0.0109
 2893TP3      O20497   0.816   2.672   1.661 -0.4425  0.0444  0.5754
 2893TP3     H120498   0.898   2.645   1.618 -0.8201  1.0815 -0.8890
 2893TP3     H220499   0.752   2.606   1.635 -0.1537 -0.6399  1.5342
 2894TP3      O20500   4.495   3.002   9.806  0.2931 -0.0710 -0.5644
 2894TP3     H120501   4.438   3.079   9.811  1.8166  1.1130 -0.9011
 2894TP3     H220502   4.475   2.963   9.721 -1.5589 -0.9576  0.2201
 2895TP3      O20503   4.604   4.828   7.080 -0.4355  0.5335 -0.3813
 2895TP3     H120504   4.562   4.914   7.082 -0.9677  0.2971 -0.9219
 2895TP3     H220505   4.634   4.818   6.990  1.4344  0.9771  0.1475
 2896TP3      O20506   0.525   4.973   6.505 -0.3531  0.8752  0.0044
 2896TP3     H120507   0.432   4.958   6.522 -0.2184  2.0770  2.1295
 2896TP3     H220508   0.534   5.068   6.502  1.0161  0.8459  1.5098
 2897TP3      O20509   3.244   3.447   8.432 -0.6473 -0.8118 -0.1850
 2897TP3     H120510   3.256   3.496   8.514 -0.9906 -0.7418 -0.1740
 2897TP3     H220511   3.183   3.501   8.381  0.0113 -0.5639 -0.7299
 2898TP3      O20512   1.166   2.784   9.829  0.5309 -0.2260 -0.4230
 2898TP3     H120513   1.130   2.761   9.743 -2.0066  0.6038  0.3284
 2898TP3     H220514   1.161   2.703   9.879 -0.9315 -0.0040 -0.1629
 2899TP3      O20515   3.485   2.000   1.828 -0.0900  0.1138 -0.5243
 2899TP3     H120516   3.429   1.929   1.797  0.6636 -1.5045  1.5611
 2899TP3     H220517   3.469   2.004   1.922  0.4552  2.2332 -0.4681
 2900TP3      O20518   2.634   1.662   9.385 -0.4440 -0.3339 -0.0039
 2900TP3     H120519   2.560   1.676   9.444  0.3017 -0.0108  0.8652
 2900TP3     H220520   2.669   1.577   9.410 -0.0512 -0.1418  0.1005
 2901TP3      O20521   3.192   3.046   2.597 -0.6396 -1.1236 -0.1616
 2901TP3     H120522   3.177   2.978   2.663 -0.5276 -0.8002  0.2028
 2901TP3     H220523   3.117   3.040   2.539 -0.0174 -2.4012 -0.8703
 2902TP3      O20524   1.676   4.857   2.410  0.0428  0.5489  0.1207
 2902TP3     H120525   1.624   4.830   2.334  0.2198  1.4113 -0.3166
 2902TP3     H220526   1.752   4.799   2.407  0.3207  0.9331 -0.6981
 2903TP3      O20527   1.315   2.585   8.854 -0.1241 -0.1301  0.3898
 2903TP3     H120528   1.350   2.503   8.889 -1.1454 -0.8963 -0.3071
 2903TP3     H220529   1.287   2.634   8.931 -0.2161 -0.7832  0.7844
 2904TP3      O20530   4.319   4.228   9.659 -0.0696 -0.1133 -0.0388
 2904TP3     H120531   4.301   4.161   9.725 -1.0890 -0.4020 -0.6042
 2904TP3     H220532   4.284   4.193   9.578  0.3248  0.6544 -0.5589
 2905TP3      O20533   2.587   3.641   1.400 -0.5201  0.1678 -0.6052
 2905TP3     H120534   2.622   3.724   1.432 -1.3623  1.0471 -1.8730
 2905TP3     H220535   2.545   3.663   1.317 -0.4461 -1.6000 -1.1573
 2906TP3      O20536   2.451   5.141   3.044  0.6723  0.3424  0.5132
 2906TP3     H120537   2.455   5.161   2.950  0.7675 -0.6916  0.2774
 2906TP3     H220538   2.454   5.045   3.048  0.4579  0.3654  1.5686
 2907TP3      O20539   1.595   2.205   1.344 -0.0327  0.1056 -0.6933
 2907TP3     H120540   1.690   2.199   1.350  0.1342  0.9606 -2.1146
 2907TP3     H220541   1.573   2.285   1.392 -0.1911 -0.7441  0.7087
 2908TP3      O20542   1.532   3.912   6.928  0.4495 -0.2182 -0.0994
 2908TP3     H120543   1.531   3.873   6.841 -0.8004  0.7201 -0.5345
 2908TP3     H220544   1.565   3.842   6.985  0.2701 -1.1997 -1.1628
 2909TP3      O20545   4.579   4.677   2.423 -0.3952  0.3072 -0.1755
 2909TP3     H120546   4.546   4.758   2.461 -0.2841 -0.3043  1.2837
 2909TP3     H220547   4.502   4.634   2.387 -0.5492  0.7384 -0.3771
 2910TP3      O20548   4.511   4.428   7.702 -0.0451  0.4463 -0.1390
 2910TP3     H120549   4.423   4.466   7.697 -0.1625  0.1104 -0.7642
 2910TP3     H220550   4.554   4.457   7.622 -0.9246 -2.5798 -1.8947
 2911TP3      O20551   0.324   2.658   0.306  0.6153 -0.0090 -0.0543
 2911TP3     H120552   0.260   2.728   0.293  0.7505 -0.2172 -2.0423
 2911TP3     H220553   0.373   2.654   0.224  2.1640 -0.8929  0.8608
 2912TP3      O20554   0.303   3.421   0.737 -0.1764  0.0918  0.0451
 2912TP3     H120555   0.387   3.376   0.723 -0.6069 -0.7980  0.2650
 2912TP3     H220556   0.237   3.354   0.721 -0.8542  0.7938 -0.1392
 2913TP3      O20557   0.477   3.241   0.210  0.6633  0.1024 -0.0428
 2913TP3     H120558   0.527   3.240   0.128  0.3118 -0.0587 -0.2600
 2913TP3     H220559   0.405   3.180   0.194 -1.3378  2.4947 -0.8179
 2914TP3      O20560   2.174   4.789   1.171 -0.0664  0.2250 -0.6168
 2914TP3     H120561   2.210   4.869   1.210  1.1572 -1.3076  1.6549
 2914TP3     H220562   2.214   4.784   1.085  2.2173  0.5620  0.3631
 2915TP3      O20563   3.921   1.082   1.510 -0.1178  0.6098  0.0541
 2915TP3     H120564   3.897   1.022   1.440 -0.9623  0.1119  0.7470
 2915TP3     H220565   4.015   1.095   1.499  0.2327 -1.3841  0.2839
 2916TP3      O20566   1.627   1.247   0.747  0.4799  0.1610  0.2149
 2916TP3     H120567   1.712   1.270   0.783 -0.2329  2.1515  0.7491
 2916TP3     H220568   1.638   1.157   0.716  1.6069 -1.2089  3.9931
 2917TP3      O20569   4.948   4.662   2.882 -0.4047  0.1818  0.7612
 2917TP3     H120570   4.901   4.732   2.838  1.6459  0.5008 -1.0835
 2917TP3     H220571   5.040   4.676   2.859  0.0977 -3.1214  0.2733
 2918TP3      O20572   3.048   3.686   9.489 -0.3640 -0.5914 -0.4539
 2918TP3     H120573   3.075   3.655   9.403  1.5164 -0.9914  0.2311
 2918TP3     H220574   3.081   3.775   9.495  2.0975 -1.5071  0.8690
 2919TP3      O20575   3.551   0.074   9.990 -0.0516 -0.4034  0.2431
 2919TP3     H120576   3.551   0.162  10.029  0.0427 -0.1830 -0.2454
 2919TP3     H220577   3.533   0.015  10.064 -1.0428  0.0889  0.4155
 2920TP3      O20578   1.587   4.833   9.867  0.6010 -0.3534  0.3253
 2920TP3     H120579   1.671   4.811   9.909  0.5902 -1.0296 -0.0023
 2920TP3     H220580   1.532   4.863   9.940  0.7779 -0.9457  0.7147
 2921TP3      O20581   5.115   3.015   8.083  0.1822 -0.1166 -0.1509
 2921TP3     H120582   5.117   2.954   8.009  1.7364  0.4289 -0.6115
 2921TP3     H220583   5.024   3.014   8.112 -1.0360  1.2210 -3.4000
 2922TP3      O20584   1.799   3.584   8.139  0.1672  0.4644 -0.2313
 2922TP3     H120585   1.756   3.669   8.129 -0.7568  0.2910  1.7320
 2922TP3     H220586   1.740   3.534   8.195  1.3882 -0.9604 -0.1465
 2923TP3      O20587   0.105   2.270   7.864  0.2530 -0.1408  0.2562
 2923TP3     H120588   0.040   2.324   7.910  0.1416 -0.4615  0.4725
 2923TP3     H220589   0.064   2.184   7.855  0.7442 -0.4178  0.6190
 2924TP3      O20590   4.394   1.034   1.205  0.2173  0.1072 -0.2953
 2924TP3     H120591   4.346   1.035   1.121  0.2650  0.7116 -0.3183
 2924TP3     H220592   4.358   0.958   1.251 -0.3691  0.2233 -0.5451
 2925TP3      O20593   5.245   1.004   8.513 -0.0516 -0.1731  0.1071
 2925TP3     H120594   5.260   1.061   8.589 -1.2794 -1.1206  1.1164
 2925TP3     H220595   5.210   0.923   8.551 -0.8322 -0.6222 -1.4923
 2926TP3      O20596   3.530   0.952   9.639 -0.7582  0.0660  0.1266
 2926TP3     H120597   3.482   0.885   9.591 -0.6088  0.1971 -0.2092
 2926TP3     H220598   3.499   0.943   9.729 -1.0897 -0.1389 -0.0035
 2927TP3      O20599   4.127   3.848   0.551  0.0175  0.3407  0.0337
 2927TP3     H120600   4.154   3.779   0.612 -1.4618  1.1717  1.7470
 2927TP3     H220601   4.177   3.831   0.471  1.2542 -1.4451  1.1098
 2928TP3      O20602   2.628   2.531   1.218  0.0941  0.5239  0.2013
 2928TP3     H120603   2.632   2.582   1.137  1.3257  0.8387  0.4296
 2928TP3     H220604   2.710   2.553   1.263  0.9067 -2.0564  0.0913
 2929TP3      O20605   1.037   3.375   1.165 -0.3343  0.5126  0.4781
 2929TP3     H120606   0.990   3.315   1.223 -3.0199  2.3548  0.4111
 2929TP3     H220607   0.972   3.401   1.100  1.0592  2.4965 -0.2180
 2930TP3      O20608   0.201   1.571   8.361 -0.4697 -0.3163  0.7252
 2930TP3     H120609   0.140   1.644   8.363 -2.1924 -1.6877  1.8458
 2930TP3     H220610   0.172   1.518   8.287  1.0822  0.3375 -0.3946
 2931TP3      O20611   2.171   5.278   1.865  0.2083 -0.3491 -0.1606
 2931TP3     H120612   2.189   5.347   1.930 -0.7958 -2.1533  2.1846
 2931TP3     H220613   2.257   5.261   1.825  0.8181  1.0295  0.4798
 2932TP3      O20614   4.601   0.346   0.493 -0.3332 -0.0727  0.0346
 2932TP3     H120615   4.634   0.256   0.483 -1.0052 -0.1750 -1.5938
 2932TP3     H220616   4.679   0.399   0.504  0.2717 -0.5770 -1.5438
 2933TP3      O20617   3.666   4.697   1.482 -0.4334 -0.2611  0.1312
 2933TP3     H120618   3.723   4.759   1.438 -0.4189 -1.0293 -0.9589
 2933TP3     H220619   3.584   4.744   1.495 -0.7972 -0.3396 -1.6737
 2934TP3      O20620   3.313   5.094   0.984 -0.1195  0.0148 -0.4737
 2934TP3     H120621   3.260   5.083   0.905 -0.3671  1.3852 -0.5194
 2934TP3     H220622   3.265   5.157   1.036 -0.0134 -0.9679  0.8535
 2935TP3      O20623   0.980   2.334   2.188 -0.1385  0.2861 -0.2351
 2935TP3     H120624   1.019   2.247   2.176  2.3526  1.1650  0.7954
 2935TP3     H220625   1.029   2.391   2.129  0.0069  1.4092  0.9146
 2936TP3      O20626   1.144   5.014   8.358 -0.3339 -0.3418  0.0712
 2936TP3     H120627   1.133   5.025   8.263 -0.8732  0.0493  0.1772
 2936TP3     H220628   1.239   5.017   8.371 -0.3213  1.6479 -0.2241
 2937TP3      O20629   4.128   0.448   8.999  0.6383 -0.0454  0.0362
 2937TP3     H120630   4.107   0.489   9.082  0.5755 -1.2354  0.6297
 2937TP3     H220631   4.139   0.355   9.020  0.1852 -0.4428 -1.3515
 2938TP3      O20632   1.311   1.815   2.459  0.0070 -0.1682  0.5532
 2938TP3     H120633   1.303   1.799   2.365  0.8647 -1.8927  0.7224
 2938TP3     H220634   1.228   1.782   2.495 -0.2266  0.2814  0.4365
 2939TP3      O20635   2.225   2.380   0.585 -0.1813  0.7784 -0.2270
 2939TP3     H120636   2.263   2.381   0.497 -0.1292  2.5119 -0.2322
 2939TP3     H220637   2.236   2.470   0.616 -1.2941  0.4929  1.0815
 2940TP3      O20638   0.000   5.157   2.205 -0.2053  0.3884 -0.4752
 2940TP3     H120639   0.023   5.134   2.296  1.0300  2.0722 -0.3158
 2940TP3     H220640  -0.091   5.129   2.196  0.7275 -3.4485  0.0139
 2941TP3      O20641   1.527   2.855   7.738  0.1415  0.7000  0.2159
 2941TP3     H120642   1.601   2.909   7.765  0.4672 -0.3737  1.5944
 2941TP3     H220643   1.475   2.912   7.682  1.8163  1.5923 -0.4956
 2942TP3      O20644   2.160   4.727   1.798 -0.1704 -0.3167  0.5547
 2942TP3     H120645   2.143   4.787   1.871  1.5385  2.0271 -0.8146
 2942TP3     H220646   2.195   4.649   1.839  3.0754  1.8214  2.2705
 2943TP3      O20647   1.531   1.550   2.563  0.7289  0.6881  0.2848
 2943TP3     H120648   1.581   1.628   2.589  0.4461 -0.0457  3.4437
 2943TP3     H220649   1.448   1.558   2.612 -1.5156  0.8426 -3.2278
 2944TP3      O20650   4.162   0.711   2.730  0.0300  0.0292 -0.0269
 2944TP3     H120651   4.154   0.778   2.662  1.5230  0.2876  0.0249
 2944TP3     H220652   4.107   0.743   2.801 -2.1557 -0.6017 -1.3475
 2945TP3      O20653   1.980   2.264   0.209 -0.1382 -0.0248 -0.0005
 2945TP3     H120654   1.908   2.325   0.188  1.1327  1.7247  0.4444
 2945TP3     H220655   2.028   2.308   0.280  1.4098 -1.1151 -0.3275
 2946TP3      O20656   1.038   2.687   2.772 -0.2474 -0.3714 -0.9161
 2946TP3     H120657   1.072   2.770   2.806 -0.4342 -0.2104 -1.1212
 2946TP3     H220658   1.081   2.620   2.826  1.1603 -0.2284 -1.8181
 2947TP3      O20659   2.463   2.939   1.161 -0.1184 -0.2767  0.0624
 2947TP3     H120660   2.534   2.994   1.195 -0.1691 -0.4874  0.5248
 2947TP3     H220661   2.462   2.864   1.220 -0.8796 -0.1632  0.2080
 2948TP3      O20662   1.204   4.636   6.427  0.5729 -0.8107 -0.3077
 2948TP3     H120663   1.244   4.713   6.468  1.2601  0.5590 -3.3364
 2948TP3     H220664   1.115   4.634   6.461  1.1759  0.0267  1.4357
 2949TP3      O20665   4.859   2.810   7.920  0.1216 -0.3506  0.4515
 2949TP3     H120666   4.915   2.754   7.973 -2.8406 -2.0090  2.1323
 2949TP3     H220667   4.791   2.751   7.886 -0.7895  1.5426 -1.2746
 2950TP3      O20668   3.679   4.966   9.487  0.2243 -0.7181 -0.2855
 2950TP3     H120669   3.628   4.919   9.421  0.2810 -0.2098 -0.7074
 2950TP3     H220670   3.764   4.981   9.445  0.1543 -0.1152 -0.2262
 2951TP3      O20671   0.886   0.689   2.234  0.8386 -0.0318  0.1965
 2951TP3     H120672   0.959   0.638   2.269  1.9446  0.2116 -1.6171
 2951TP3     H220673   0.871   0.653   2.147 -0.6686  0.5010  0.2020
 2952TP3      O20674   2.652   5.032   2.143 -0.5447  0.0177 -0.1590
 2952TP3     H120675   2.679   5.078   2.064 -1.0775 -2.2320 -1.7371
 2952TP3     H220676   2.568   5.072   2.166 -0.4839  0.5510 -0.8320
 2953TP3      O20677   0.234   1.917   2.685 -0.0169 -0.4819 -0.1774
 2953TP3     H120678   0.245   2.004   2.723 -0.6263  0.7529 -2.6079
 2953TP3     H220679   0.293   1.861   2.736 -0.4017  1.1020  2.1416
 2954TP3      O20680   2.473   5.136   1.502  0.2683  0.3791 -0.0091
 2954TP3     H120681   2.418   5.073   1.455  0.5799  0.3271 -0.3051
 2954TP3     H220682   2.555   5.089   1.518  0.6236  0.8145 -0.5197
 2955TP3      O20683   2.459   0.383   0.899 -0.2426  0.3563  1.0275
 2955TP3     H120684   2.439   0.291   0.882  1.1940  0.0452  0.8868
 2955TP3     H220685   2.552   0.384   0.923 -0.5263  1.6294  2.2304
 2956TP3      O20686   4.360   3.348   2.330 -0.2570  0.4779  0.1024
 2956TP3     H120687   4.304   3.390   2.265  1.0228  0.4336 -1.0825
 2956TP3     H220688   4.389   3.421   2.386  1.5466  1.1969 -1.6356
 2957TP3      O20689   0.770   1.081   2.137 -0.4583  0.2103  0.1427
 2957TP3     H120690   0.861   1.052   2.143 -0.4774  0.3364  1.5168
 2957TP3     H220691   0.765   1.128   2.054  0.4655 -0.6563 -0.4354
 2958TP3      O20692   3.002   2.054   9.444 -0.3609 -0.0759 -0.0409
 2958TP3     H120693   2.969   2.144   9.447 -2.1285 -0.5291 -2.4128
 2958TP3     H220694   3.026   2.040   9.352 -0.0852 -1.9977  0.2812
 2959TP3      O20695   1.792   0.128   0.225 -0.4572 -1.1261 -0.2254
 2959TP3     H120696   1.752   0.138   0.311  0.8774  0.3395  0.2489
 2959TP3     H220697   1.724   0.159   0.164  0.2697  2.6017  0.6459
 2960TP3      O20698   3.324   4.908   2.972  0.0849  0.1058 -1.0395
 2960TP3     H120699   3.237   4.881   3.000  0.3651 -0.1726 -0.4100
 2960TP3     H220700   3.327   5.002   2.987  0.0923  0.0213 -0.4965
 2961TP3      O20701   0.885   3.825   9.257  0.2700  0.4816  0.0230
 2961TP3     H120702   0.904   3.744   9.304 -0.1756  0.3261 -0.0582
 2961TP3     H220703   0.958   3.883   9.278 -0.7515  1.0394  2.3035
 2962TP3      O20704   2.440   0.731   8.282  0.0279 -0.0678  0.6023
 2962TP3     H120705   2.348   0.734   8.307  0.1432  0.6759  0.9544
 2962TP3     H220706   2.438   0.713   8.187 -0.4655 -0.2697  0.6456
 2963TP3      O20707   2.539   4.860   7.812 -0.0769  0.0349 -0.3921
 2963TP3     H120708   2.590   4.925   7.762  2.9214 -0.1634  2.1302
 2963TP3     H220709   2.522   4.790   7.749  1.5871  0.7675 -1.7329
 2964TP3      O20710   0.409   4.104   7.378 -0.1815 -0.7515 -0.1559
 2964TP3     H120711   0.457   4.137   7.454 -0.8426  1.4586 -0.6029
 2964TP3     H220712   0.476   4.095   7.310  0.3844 -2.5807  0.5915
 2965TP3      O20713   1.808   4.265   1.709  0.1345 -0.0166  0.2353
 2965TP3     H120714   1.714   4.264   1.688 -0.3583  1.9415  1.9302
 2965TP3     H220715   1.851   4.244   1.626 -1.7764  0.1150 -0.8625
 2966TP3      O20716   1.289   4.461   8.280 -0.4545 -0.2155 -0.8599
 2966TP3     H120717   1.353   4.404   8.322 -3.1301 -1.8824  1.3468
 2966TP3     H220718   1.323   4.550   8.294  0.4944 -0.9171  1.9308
 2967TP3      O20719   3.625   4.457   2.419 -0.2081 -0.5962  0.1371
 2967TP3     H120720   3.553   4.441   2.358  1.2867 -0.0174 -1.8832
 2967TP3     H220721   3.595   4.528   2.476 -1.2856 -0.5091 -0.5324
 2968TP3      O20722   4.731   0.308   9.673 -0.2074  0.3587 -0.1037
 2968TP3     H120723   4.690   0.391   9.648 -0.3215  0.0767 -0.8596
 2968TP3     H220724   4.716   0.302   9.768  0.3381  1.4970  0.0691
 2969TP3      O20725   2.939   2.401   2.297 -0.2892  0.0671  0.0340
 2969TP3     H120726   2.867   2.462   2.310 -0.6543 -0.3759  0.1258
 2969TP3     H220727   3.018   2.455   2.303 -0.4433  0.1576  2.7758
 2970TP3      O20728   1.654   1.245   1.758  0.2151  0.3987 -0.1173
 2970TP3     H120729   1.627   1.252   1.850  0.6096 -0.5331  0.0727
 2970TP3     H220730   1.742   1.210   1.761  0.2233  0.3401 -0.8637
 2971TP3      O20731   1.914   4.288   7.561 -0.3751  0.5819 -0.5551
 2971TP3     H120732   1.965   4.368   7.552  0.2251  0.2091 -0.5194
 2971TP3     H220733   1.840   4.313   7.617  0.8009  0.6752  1.0313
 2972TP3      O20734   4.358   4.459   0.685  0.8671  0.2422  0.1709
 2972TP3     H120735   4.302   4.525   0.644  0.7983 -0.9527 -1.7927
 2972TP3     H220736   4.447   4.490   0.668  0.8388  0.6068  0.6507
 2973TP3      O20737   2.871   0.524   7.461  0.0080 -0.8351  0.2367
 2973TP3     H120738   2.837   0.503   7.374  0.1718 -0.3488  0.0520
 2973TP3     H220739   2.864   0.442   7.510  0.9378 -1.4241 -0.5629
 2974TP3      O20740   0.681   2.413   2.057  0.4164 -1.0468 -0.2562
 2974TP3     H120741   0.635   2.361   1.990  0.8359  0.0289 -1.4165
 2974TP3     H220742   0.660   2.504   2.035  1.2757 -0.6410  0.5583
 2975TP3      O20743   4.542   3.579   8.168 -0.0378  0.3192 -0.5089
 2975TP3     H120744   4.506   3.511   8.224  0.1582  1.2658  0.8263
 2975TP3     H220745   4.613   3.537   8.121 -0.7273 -0.7058 -0.6590
 2976TP3      O20746   4.977   2.190   7.743  0.1299  0.2572  0.2125
 2976TP3     H120747   5.070   2.185   7.725  0.1926  1.0893  0.2502
 2976TP3     H220748   4.959   2.284   7.750 -0.9737  0.1781 -1.1958
 2977TP3      O20749   3.479   1.698   0.459  0.1113 -1.1040 -0.3199
 2977TP3     H120750   3.566   1.737   0.470  0.6572 -2.2263 -0.4336
 2977TP3     H220751   3.468   1.642   0.536 -1.3433  0.4605  0.6638
 2978TP3      O20752   3.838   2.012   1.039  0.0921 -0.3187 -0.0216
 2978TP3     H120753   3.897   2.047   0.971 -0.6475  1.4518  0.1948
 2978TP3     H220754   3.853   2.069   1.115  0.7255 -2.1105  1.2725
 2979TP3      O20755   2.666   1.733   9.853 -0.2659  0.1114  0.2559
 2979TP3     H120756   2.581   1.729   9.898 -1.6119 -0.3975 -2.1094
 2979TP3     H220757   2.689   1.641   9.840  0.7136  0.2502  0.9186
 2980TP3      O20758   5.250   1.542   8.619 -0.5262 -0.1235  0.6086
 2980TP3     H120759   5.313   1.612   8.638  0.1237 -0.9697  1.7212
 2980TP3     H220760   5.256   1.530   8.524  1.1102 -0.2585  0.6897
 2981TP3      O20761   2.437   4.527   1.828  0.4709  0.0233  0.4366
 2981TP3     H120762   2.452   4.442   1.867 -0.5668 -0.0886  0.6124
 2981TP3     H220763   2.362   4.563   1.875  1.4099  1.4089  0.9551
 2982TP3      O20764   0.705   1.368   6.769  0.1279 -0.2413  0.2763
 2982TP3     H120765   0.722   1.376   6.675 -1.0021 -1.4344 -0.0633
 2982TP3     H220766   0.753   1.289   6.795 -0.4409 -0.5259  0.4679
 2983TP3      O20767   0.752   2.875   1.468  0.2324  0.5919  0.5380
 2983TP3     H120768   0.749   2.803   1.530  1.7359 -0.1374 -0.1642
 2983TP3     H220769   0.808   2.941   1.509  1.3367  0.0544 -0.0341
 2984TP3      O20770   2.645   0.584   0.568  0.4931 -0.2330  0.2275
 2984TP3     H120771   2.628   0.492   0.550  1.0855 -0.7617  2.1413
 2984TP3     H220772   2.575   0.610   0.628  0.6351  0.4007  0.1210
 2985TP3      O20773   1.161   2.153   8.335  0.0651  0.1457 -0.3893
 2985TP3     H120774   1.210   2.081   8.295 -1.1272 -0.5697 -0.5881
 2985TP3     H220775   1.211   2.231   8.312  1.8031 -0.6509  0.4439
 2986TP3      O20776   4.203   2.099   9.634 -0.2686  0.4156 -0.2786
 2986TP3     H120777   4.205   2.133   9.723 -0.7494 -0.8515  0.2381
 2986TP3     H220778   4.292   2.110   9.602 -0.2808  1.6194  0.0610
 2987TP3      O20779   0.647   1.490   0.226  0.1276 -0.1281  0.2640
 2987TP3     H120780   0.580   1.541   0.270 -0.9418 -1.1556 -0.1139
 2987TP3     H220781   0.608   1.466   0.142  1.3776  0.1395 -0.4204
 2988TP3      O20782   3.526   0.380   8.985  0.2408  0.1793 -0.1288
 2988TP3     H120783   3.596   0.333   9.031  1.3933  0.6472 -1.3478
 2988TP3     H220784   3.449   0.325   8.997  0.7917 -0.3403  1.2700
 2989TP3      O20785   1.180   4.055   2.296 -0.1401  0.1965  0.0462
 2989TP3     H120786   1.202   4.062   2.204  1.2529  3.5600  0.5084
 2989TP3     H220787   1.199   4.141   2.333 -2.5982 -0.3573  3.1018
 2990TP3      O20788   3.543   3.852   0.387  0.6681  0.5201  0.0069
 2990TP3     H120789   3.487   3.862   0.309  1.6201 -1.6244 -1.0377
 2990TP3     H220790   3.486   3.878   0.460 -1.1420  0.0574 -1.1651
 2991TP3      O20791   4.285   4.769   6.904  0.2962 -0.3418 -0.0309
 2991TP3     H120792   4.353   4.799   6.843  2.3047 -0.8879  1.8141
 2991TP3     H220793   4.267   4.845   6.959  0.2030 -0.5119  0.1731
 2992TP3      O20794   5.139   0.650   9.539 -0.4393  0.1360  0.8103
 2992TP3     H120795   5.211   0.605   9.583 -0.1198  0.3725  0.5367
 2992TP3     H220796   5.181   0.697   9.467 -0.8408  0.4379  0.7703
 2993TP3      O20797   2.956   1.208  10.038 -0.4166  0.7090 -0.0701
 2993TP3     H120798   2.889   1.190   9.972  0.4086 -0.0932 -0.7045
 2993TP3     H220799   2.972   1.302  10.030 -0.4304  0.6458 -0.9082
 2994TP3      O20800   0.847   2.808   1.194 -0.4865  0.0344 -0.2879
 2994TP3     H120801   0.792   2.751   1.141  0.3125  0.2781 -1.4150
 2994TP3     H220802   0.798   2.819   1.276 -0.6083 -2.3504  0.0366
 2995TP3      O20803   2.968   1.170   8.580 -0.1204  0.9059 -0.2219
 2995TP3     H120804   2.946   1.205   8.494 -2.0091  2.0983  0.6678
 2995TP3     H220805   3.063   1.159   8.578  0.1873  3.1355 -1.6676
 2996TP3      O20806   2.513   0.949   9.468  0.8814 -0.1167  0.1542
 2996TP3     H120807   2.532   0.861   9.437  1.0010 -0.9435  2.4112
 2996TP3     H220808   2.470   0.936   9.552  1.5870  1.9912  0.9042
 2997TP3      O20809   4.717   1.314   2.464 -0.6479 -0.3488 -0.3597
 2997TP3     H120810   4.793   1.287   2.412 -0.0793  4.2393 -2.4242
 2997TP3     H220811   4.749   1.318   2.554  0.2597 -2.3842 -0.5520
 2998TP3      O20812   2.666   3.550   1.082 -0.0059 -0.3605 -0.3785
 2998TP3     H120813   2.657   3.636   1.042  1.1277 -0.4091 -0.7746
 2998TP3     H220814   2.586   3.538   1.132 -0.0009  1.0925  0.0072
 2999TP3      O20815   2.453   0.126   0.844  0.3103 -0.4832  0.4437
 2999TP3     H120816   2.478   0.040   0.877  1.2225 -0.5822 -0.4402
 2999TP3     H220817   2.431   0.111   0.752 -2.6733 -0.3083  1.0184
 3000TP3      O20818   3.470   4.667   3.813 -0.1374 -0.0478 -0.3839
 3000TP3     H120819   3.419   4.748   3.816 -2.2207 -1.3181 -0.3441
 3000TP3     H220820   3.418   4.607   3.759  1.2093 -1.4886 -0.1638
 3001TP3      O20821   2.918   5.176   9.074  0.2613  0.5103 -0.1672
 3001TP3     H120822   2.832   5.180   9.116  0.4503 -1.0075  0.4439
 3001TP3     H220823   2.972   5.127   9.136  1.8205  2.1311 -0.1668
 3002TP3      O20824   3.880   5.192   6.976  0.1620 -0.5985 -0.0190
 3002TP3     H120825   3.961   5.172   7.024  1.0848 -0.4789 -1.4681
 3002TP3     H220826   3.904   5.182   6.884 -0.8897  1.5606 -0.5906
 3003TP3      O20827   1.500   2.433   8.008  0.2657  0.3144 -0.0565
 3003TP3     H120828   1.435   2.503   8.003  1.7644  1.7064 -1.5259
 3003TP3     H220829   1.575   2.474   8.051  0.6787 -0.8392  0.3615
 3004TP3      O20830   2.669   3.442   7.827 -0.4346  0.2903  0.4088
 3004TP3     H120831   2.761   3.462   7.845  0.3336  0.2321 -2.7690
 3004TP3     H220832   2.649   3.367   7.883  1.1760  0.8014  1.7518
 3005TP3      O20833   3.097   3.925   1.587  0.0317 -0.1731 -0.2473
 3005TP3     H120834   3.055   3.939   1.672 -0.4487 -4.2863  0.3789
 3005TP3     H220835   3.034   3.957   1.523 -0.9617  0.1532  0.8630
 3006TP3      O20836   2.821   3.108   9.232 -0.4153 -0.0807  0.1363
 3006TP3     H120837   2.817   3.070   9.319 -2.5517  2.1188  1.0932
 3006TP3     H220838   2.895   3.168   9.235  0.7609 -1.4518 -0.2686
 3007TP3      O20839   2.820   4.141   2.308 -0.1034 -0.4759  0.6080
 3007TP3     H120840   2.795   4.116   2.219  2.2239  0.0442 -0.2689
 3007TP3     H220841   2.914   4.162   2.301 -0.4185  2.0321  2.6422
 3008TP3      O20842   0.968   0.687   3.031 -0.2354  0.5403 -0.3520
 3008TP3     H120843   0.908   0.761   3.018 -2.7511 -1.0766  1.1438
 3008TP3     H220844   0.980   0.683   3.126  1.6237  0.2883 -0.5651
 3009TP3      O20845   4.375   4.531   2.333 -0.4048  0.3836 -0.2694
 3009TP3     H120846   4.357   4.476   2.256  1.4910 -0.7434  0.0395
 3009TP3     H220847   4.341   4.480   2.406  1.8259 -0.7139  0.0752
 3010TP3      O20848   3.392   3.042   9.475  0.1089  0.1801  0.0217
 3010TP3     H120849   3.379   3.087   9.391  2.2286  0.4606 -0.2313
 3010TP3     H220850   3.444   3.104   9.527  0.5939 -0.8093  0.7500
 3011TP3      O20851   4.999   1.537   1.404  0.5053 -0.0662  0.5281
 3011TP3     H120852   4.929   1.550   1.340  2.5439 -0.0803 -1.8510
 3011TP3     H220853   5.005   1.443   1.416  0.5373 -0.0960  0.2651
 3012TP3      O20854   5.199   3.043   0.700  0.0966 -0.5308  0.4703
 3012TP3     H120855   5.193   3.070   0.791 -0.9451 -0.9612  0.5489
 3012TP3     H220856   5.172   3.121   0.650  0.8269 -0.2447  0.5175
 3013TP3      O20857   0.265   3.423   0.305 -0.0272 -0.8041 -0.0224
 3013TP3     H120858   0.326   3.354   0.281 -0.8916 -1.5057 -0.2419
 3013TP3     H220859   0.252   3.473   0.224 -1.3513 -1.9278 -0.5309
 3014TP3      O20860   1.484   2.875   1.965 -0.2175  0.0158 -0.3185
 3014TP3     H120861   1.472   2.786   1.932  1.0588 -0.3845  0.2343
 3014TP3     H220862   1.448   2.931   1.896  0.2396 -0.8760 -1.3072
 3015TP3      O20863   1.507   0.709   1.104  0.1126  0.5100  0.0154
 3015TP3     H120864   1.489   0.628   1.055  0.8702 -0.6920  1.6036
 3015TP3     H220865   1.424   0.755   1.106 -0.1803  0.0855 -1.4774
 3016TP3      O20866   4.441   4.962   2.009 -0.8272  0.0159  0.2022
 3016TP3     H120867   4.391   4.981   1.929 -1.6783  0.9884  0.9515
 3016TP3     H220868   4.392   4.891   2.051 -0.2693 -0.6330 -0.2218
 3017TP3      O20869   3.497   2.920   7.567  0.0472  0.2288  0.7476
 3017TP3     H120870   3.424   2.883   7.617  0.0830 -0.6545  0.1639
 3017TP3     H220871   3.496   2.873   7.484  1.3674  0.0887  0.7812
 3018TP3      O20872   3.257   3.970   9.714  0.4896  0.1063  0.3413
 3018TP3     H120873   3.297   4.052   9.742  1.4106 -0.6280  1.2326
 3018TP3     H220874   3.324   3.926   9.662 -0.7374  0.8371 -1.9562
 3019TP3      O20875   2.880   1.950   8.318 -0.1104  0.5749  0.3336
 3019TP3     H120876   2.937   1.920   8.247  1.0238  0.1027  1.3875
 3019TP3     H220877   2.917   1.908   8.397 -1.8240  0.4177  1.0882
 3020TP3      O20878   3.576   3.411   2.011 -0.3533 -0.0616 -0.7223
 3020TP3     H120879   3.482   3.395   2.005  0.1597 -3.0308 -4.9038
 3020TP3     H220880   3.592   3.482   1.949 -0.0134  3.1294  2.6472
 3021TP3      O20881   5.197   2.265   0.099 -0.4041 -0.4996 -0.4771
 3021TP3     H120882   5.177   2.262   0.005 -3.1151 -0.5912  0.0192
 3021TP3     H220883   5.266   2.199   0.111  1.4494  0.8846 -2.6370
 3022TP3      O20884   5.117   2.367   9.583 -0.1428 -0.2383 -0.2765
 3022TP3     H120885   5.077   2.428   9.645 -1.1637  0.2387 -1.3513
 3022TP3     H220886   5.063   2.289   9.587 -0.0793 -0.2893 -0.3914
 3023TP3      O20887   3.709   4.957   8.900  0.8008  0.1318  0.4787
 3023TP3     H120888   3.657   4.948   8.980  0.0506 -0.0073 -0.0106
 3023TP3     H220889   3.740   4.868   8.881 -1.1416 -0.3722 -0.7475
 3024TP3      O20890   4.952   2.116   0.203 -0.2768 -0.0643  0.3036
 3024TP3     H120891   5.003   2.192   0.175 -1.1563  0.3212 -0.2609
 3024TP3     H220892   4.876   2.114   0.145 -0.2435 -1.4104  0.2659
 3025TP3      O20893   2.675   1.015   3.077 -0.3330  0.0202 -0.1520
 3025TP3     H120894   2.760   0.971   3.084 -0.5393 -0.2155  1.2281
 3025TP3     H220895   2.613   0.951   3.112 -0.9636  0.5384 -0.3091
 3026TP3      O20896   3.577   2.955   3.384 -0.2211 -0.3844  0.6647
 3026TP3     H120897   3.664   2.914   3.379  0.2899  0.7276  0.1586
 3026TP3     H220898   3.518   2.891   3.343  0.8599  0.1505 -1.9289
 3027TP3      O20899   2.671   0.888   1.157  0.3864  0.3517 -0.1592
 3027TP3     H120900   2.595   0.841   1.124 -0.1915  0.1169  1.4060
 3027TP3     H220901   2.655   0.979   1.133 -0.6385  0.3733  0.5782
 3028TP3      O20902   3.504   3.275   9.065  0.6013  0.3534  0.0622
 3028TP3     H120903   3.453   3.354   9.050 -2.1290 -1.0056  1.3528
 3028TP3     H220904   3.570   3.300   9.130 -0.1712  1.6062  0.3870
 3029TP3      O20905   3.638   1.658   6.600 -0.9169  0.7764  0.7313
 3029TP3     H120906   3.568   1.633   6.539 -0.8448 -0.8761  1.2870
 3029TP3     H220907   3.631   1.595   6.671  0.7701  0.9631  1.0864
 3030TP3      O20908   0.018   0.936   1.658 -0.1625  0.0071  0.2061
 3030TP3     H120909   0.109   0.950   1.632 -0.2854  1.1945  0.3344
 3030TP3     H220910   0.023   0.920   1.752 -0.1737  1.5393  0.5011
 3031TP3      O20911   4.375   1.503   7.699 -0.1323  0.3349 -0.3627
 3031TP3     H120912   4.445   1.525   7.637  0.2131  3.3350  0.8828
 3031TP3     H220913   4.421   1.477   7.778 -0.5726 -3.6689 -1.2211
 3032TP3      O20914   4.657   0.078   0.452  0.5915  0.6213 -0.0697
 3032TP3     H120915   4.724   0.066   0.384  0.6339  0.1798  0.0473
 3032TP3     H220916   4.661  -0.002   0.504 -1.7623 -0.5784 -1.5596
 3033TP3      O20917   1.192   1.006   8.778 -0.1829  0.1080 -0.3496
 3033TP3     H120918   1.105   1.001   8.737 -0.8743 -2.2068  1.1803
 3033TP3     H220919   1.246   1.053   8.715 -1.6994 -1.4150 -2.9467
 3034TP3      O20920   0.946   2.705   9.132  0.0673  0.2836  0.5891
 3034TP3     H120921   0.900   2.768   9.077  1.5899  0.8265 -0.1259
 3034TP3     H220922   0.935   2.737   9.221  1.3190  1.9532  0.1895
 3035TP3      O20923   0.789   2.953   7.122  0.1829 -0.1722  0.7030
 3035TP3     H120924   0.823   3.006   7.050 -1.4453  0.2384  0.2010
 3035TP3     H220925   0.867   2.911   7.159  0.9883 -1.5212 -2.1661
 3036TP3      O20926   0.885   3.198   1.310  0.2018  0.1810 -0.0623
 3036TP3     H120927   0.962   3.152   1.344 -0.2543  0.7528  1.8621
 3036TP3     H220928   0.812   3.141   1.332 -0.1507  0.7762  0.3397
 3037TP3      O20929   1.843   2.154   8.587 -0.0599  0.7084 -0.3661
 3037TP3     H120930   1.856   2.061   8.606  0.9477  0.7068 -1.0017
 3037TP3     H220931   1.821   2.157   8.494 -0.7215  1.0655 -0.2067
 3038TP3      O20932   2.467   3.570   9.723  0.1693  0.4444 -0.1370
 3038TP3     H120933   2.437   3.574   9.632 -0.1009 -1.9587 -0.2272
 3038TP3     H220934   2.502   3.481   9.732 -0.9715  0.1801  2.4444
 3039TP3      O20935   1.244   2.940   3.109  0.4281 -0.1610  0.5746
 3039TP3     H120936   1.288   2.988   3.179  0.4411 -0.0306  0.4776
 3039TP3     H220937   1.151   2.951   3.128  0.4386 -1.0507  1.1953
 3040TP3      O20938   4.089   1.572   9.358  0.0498 -0.2096  0.5374
 3040TP3     H120939   4.035   1.632   9.307 -0.0658 -1.1428 -0.4835
 3040TP3     H220940   4.081   1.488   9.313 -0.3986 -1.2030  2.3338
 3041TP3      O20941   3.823   4.554   3.508  0.0790 -0.4673  0.2827
 3041TP3     H120942   3.781   4.487   3.562  1.2999 -0.7871  0.8686
 3041TP3     H220943   3.840   4.510   3.425 -0.0002 -0.5772  0.3233
 3042TP3      O20944   2.334   3.942   9.804 -0.0765  0.7076  0.1192
 3042TP3     H120945   2.401   3.933   9.737 -1.3610  0.2580 -1.1366
 3042TP3     H220946   2.264   3.992   9.762 -1.3165 -0.4003  0.7852
 3043TP3      O20947   0.785   0.628   1.946 -0.3092 -0.1187  0.2154
 3043TP3     H120948   0.827   0.546   1.919  0.3396 -0.2811  1.6160
 3043TP3     H220949   0.695   0.619   1.917  0.3669 -0.1624 -2.0353
 3044TP3      O20950   5.213   4.584   9.401 -0.5683  0.5116 -0.1438
 3044TP3     H120951   5.289   4.603   9.456 -0.1689 -0.5813 -0.2906
 3044TP3     H220952   5.247   4.586   9.311 -0.8628  0.6893 -0.2529
 3045TP3      O20953   2.164   1.076   0.454 -0.2114 -0.2597 -0.0027
 3045TP3     H120954   2.134   1.150   0.506  1.0695  0.3150 -0.0451
 3045TP3     H220955   2.208   1.019   0.517  1.5985  0.5761 -0.4561
 3046TP3      O20956   1.809   2.854   0.672  0.1245 -0.3401  0.4655
 3046TP3     H120957   1.745   2.797   0.629 -0.6795  0.7356  0.1852
 3046TP3     H220958   1.841   2.803   0.746 -0.3360 -1.2747  0.0342
 3047TP3      O20959   4.505   1.249   8.534 -0.0535 -0.2884 -0.5590
 3047TP3     H120960   4.488   1.161   8.501  0.0496 -0.7691  0.5946
 3047TP3     H220961   4.593   1.244   8.572 -0.6076 -0.1188  0.8242
 3048TP3      O20962   3.143   4.323   8.445  0.3642  0.0641 -0.0243
 3048TP3     H120963   3.066   4.328   8.388  0.8900 -0.0183 -0.7723
 3048TP3     H220964   3.151   4.410   8.484 -0.5344 -0.1442  0.6499
 3049TP3      O20965   2.899   3.578   8.746 -0.2071 -0.5977 -0.1141
 3049TP3     H120966   2.903   3.536   8.661 -1.5691 -1.1933  0.0957
 3049TP3     H220967   2.858   3.513   8.804 -1.4312  0.6064  0.4403
 3050TP3      O20968   1.153   2.036   3.157  0.2802 -0.3972 -0.1466
 3050TP3     H120969   1.230   2.026   3.099 -0.7090  0.8294 -1.7455
 3050TP3     H220970   1.129   1.946   3.179  0.5375 -0.9504 -1.9138
 3051TP3      O20971   4.205   3.868   9.730 -0.0706  0.1703 -0.1934
 3051TP3     H120972   4.231   3.916   9.809 -1.5974 -0.7871  0.9691
 3051TP3     H220973   4.119   3.904   9.708 -1.1002 -1.7477  0.5167
 3052TP3      O20974   0.395   0.083   0.395  0.3669 -0.2561  0.0503
 3052TP3     H120975   0.483   0.088   0.358  1.6588  1.3389  2.9719
 3052TP3     H220976   0.408   0.040   0.480 -1.5937  0.4147  0.7394
 3053TP3      O20977   5.092   4.582   1.961 -0.2040 -0.6296 -0.3631
 3053TP3     H120978   5.084   4.677   1.972  1.0196 -0.7756  2.4558
 3053TP3     H220979   5.185   4.564   1.973 -0.5127 -2.2747 -0.2186
 3054TP3      O20980   1.803   1.882   1.370  0.3373  0.8997 -0.0801
 3054TP3     H120981   1.876   1.855   1.426  0.1173  0.7715  0.1491
 3054TP3     H220982   1.725   1.870   1.425 -0.1430 -1.4915 -1.1710
 3055TP3      O20983   2.693   4.918   8.999 -0.0656  0.1366 -0.0550
 3055TP3     H120984   2.606   4.933   8.962 -0.8549 -0.7886  1.3075
 3055TP3     H220985   2.681   4.929   9.093  1.3791  0.3113  0.1346
 3056TP3      O20986   0.382   4.201   9.086 -0.8363  0.4948 -0.1971
 3056TP3     H120987   0.331   4.164   9.157 -1.2417  0.1666 -0.6569
 3056TP3     H220988   0.467   4.223   9.126 -0.6035 -0.8670  0.0904
 3057TP3      O20989   4.631   0.312   2.080 -0.0861  0.3300  0.1704
 3057TP3     H120990   4.558   0.371   2.095 -0.3879 -0.1673  0.7084
 3057TP3     H220991   4.615   0.238   2.139  1.0029  0.3492  0.5118
 3058TP3      O20992   4.131   2.340   7.534  0.9769 -0.6547 -0.8209
 3058TP3     H120993   4.161   2.260   7.489  1.1916 -0.2245 -1.4580
 3058TP3     H220994   4.074   2.383   7.470 -0.0704 -0.8617 -0.0619
 3059TP3      O20995   2.368   0.685   7.974  0.6565  0.6053  0.4083
 3059TP3     H120996   2.456   0.673   7.939  0.2136  1.3441 -1.0555
 3059TP3     H220997   2.344   0.599   8.010  2.2439  0.6000  1.5546
 3060TP3      O20998   3.776   5.135  10.116  0.0784  0.0893  0.1429
 3060TP3     H120999   3.681   5.127  10.113 -0.0297  1.3811 -0.5943
 3060TP3     H221000   3.809   5.046  10.107 -1.0529 -0.3095 -0.0876
 3061TP3      O21001   2.647   3.824   0.997  0.0615 -0.0437 -0.2451
 3061TP3     H121002   2.585   3.896   0.984  1.2657  0.8074 -1.4733
 3061TP3     H221003   2.692   3.845   1.078  0.9014  0.9809 -0.9631
 3062TP3      O21004   0.904   2.452   9.388 -0.0000 -0.3281 -0.3178
 3062TP3     H121005   0.847   2.403   9.330 -0.3838 -0.1661 -0.0824
 3062TP3     H221006   0.896   2.543   9.360 -0.0171 -0.2782 -0.1567
 3063TP3      O21007   1.066   3.297   0.804 -0.1252 -0.0671  0.3347
 3063TP3     H121008   1.023   3.236   0.864  0.0112  0.2946  0.8054
 3063TP3     H221009   0.995   3.329   0.748 -0.5482  0.7303  1.2756
 3064TP3      O21010   3.012   2.119   1.426  0.0609 -0.1572  0.3904
 3064TP3     H121011   3.096   2.163   1.413 -1.4660  2.8237 -0.3038
 3064TP3     H221012   2.953   2.161   1.364 -2.2047 -1.4511  1.5227
 3065TP3      O21013   0.976   2.299   9.901  0.3025 -0.3869  0.1922
 3065TP3     H121014   1.014   2.244   9.969 -0.6546 -1.1680  0.1140
 3065TP3     H221015   0.981   2.245   9.822 -2.1461 -1.0879  0.4327
 3066TP3      O21016   3.969   0.105   0.999  0.1703  0.0183  0.5052
 3066TP3     H121017   3.996   0.190   0.965  0.8923  1.4466  4.1185
 3066TP3     H221018   3.879   0.094   0.968  0.8848  0.8735 -2.0692
 3067TP3      O21019   1.714   1.913   9.224  0.1017 -0.5278  0.2265
 3067TP3     H121020   1.690   1.843   9.162 -1.0622  0.4891 -0.5134
 3067TP3     H221021   1.638   1.920   9.282  0.2065  0.1276  0.2850
 3068TP3      O21022   2.487   4.664   8.885 -0.1973  0.0391 -0.8406
 3068TP3     H121023   2.468   4.603   8.956  0.3851 -0.7925 -1.3811
 3068TP3     H221024   2.401   4.693   8.856 -0.4846 -0.4487 -0.5003
 3069TP3      O21025   4.293   2.433   8.606 -0.0892 -0.2722 -0.5907
 3069TP3     H121026   4.226   2.437   8.674 -1.2955 -0.0438 -1.7300
 3069TP3     H221027   4.375   2.449   8.651 -0.7538 -0.9708  0.9275
 3070TP3      O21028   0.010   4.082   2.539 -0.7327  0.0158  0.0355
 3070TP3     H121029   0.026   3.988   2.527  1.5648 -0.1192  3.0008
 3070TP3     H221030  -0.003   4.116   2.450 -1.6105 -3.0590 -1.1350
 3071TP3      O21031   3.351   0.112   7.981 -0.3497  0.4892 -0.2302
 3071TP3     H121032   3.405   0.041   8.014 -0.6701 -0.0511 -0.8295
 3071TP3     H221033   3.398   0.145   7.904 -0.3863  0.6734 -0.1751
 3072TP3      O21034   1.924   2.609   7.246 -0.3002 -0.3467  0.1330
 3072TP3     H121035   1.863   2.681   7.228 -0.1330 -0.3776 -0.6028
 3072TP3     H221036   1.961   2.587   7.160 -1.7557 -2.5704 -0.0262
 3073TP3      O21037   0.297   5.038   7.324 -0.4365  0.1626 -0.6414
 3073TP3     H121038   0.260   5.008   7.241  0.6941 -2.6706 -0.2649
 3073TP3     H221039   0.375   4.983   7.336  1.8183  3.2813  0.3629
 3074TP3      O21040   4.639   5.172   8.608  0.1583 -0.1399  0.0769
 3074TP3     H121041   4.680   5.087   8.623 -1.1866 -1.1462 -1.5944
 3074TP3     H221042   4.663   5.195   8.519  0.5842  1.3211  0.5349
 3075TP3      O21043   2.344   0.112   9.988 -0.4077  0.1866  0.6456
 3075TP3     H121044   2.292   0.184   9.952  0.5869 -0.0079 -1.3616
 3075TP3     H221045   2.382   0.069   9.911 -0.4408 -2.0969  1.8097
 3076TP3      O21046   0.546   3.069   7.024 -0.3037 -0.0425 -0.0721
 3076TP3     H121047   0.606   3.053   7.097  0.4034 -2.8730 -1.1694
 3076TP3     H221048   0.560   3.161   7.002  0.0553  0.6987  2.7698
 3077TP3      O21049   5.163   0.171   1.604  0.1706  0.1100 -0.2089
 3077TP3     H121050   5.137   0.257   1.636 -0.8886  0.1741 -1.1980
 3077TP3     H221051   5.190   0.123   1.683 -0.8317  0.7884  0.5659
 3078TP3      O21052   4.678   3.900   3.194 -0.2460  0.1691  0.4629
 3078TP3     H121053   4.755   3.856   3.229  1.3529  1.8948 -0.6833
 3078TP3     H221054   4.666   3.977   3.249 -0.6668  0.3339  0.1530
 3079TP3      O21055   1.108   1.887  10.011 -0.2162  0.0835  0.0769
 3079TP3     H121056   1.120   1.828  10.085 -0.2340  0.4912  0.4113
 3079TP3     H221057   1.025   1.860   9.972  0.4774 -1.0368 -0.6513
 3080TP3      O21058   2.743   3.180   1.151  0.1944 -0.1857  0.3349
 3080TP3     H121059   2.776   3.269   1.158 -0.5166  0.0396  0.9334
 3080TP3     H221060   2.738   3.163   1.057  0.4139  0.3703  0.2202
 3081TP3      O21061   2.075   1.974   0.547  0.3136  0.2194 -0.0878
 3081TP3     H121062   2.015   2.047   0.565  0.0254 -0.0219 -0.0504
 3081TP3     H221063   2.132   2.007   0.478  0.3983  0.5954  0.1530
 3082TP3      O21064   4.398   3.265   9.813  0.2164 -0.6974 -0.2767
 3082TP3     H121065   4.322   3.305   9.772  0.7726 -0.1938 -0.8402
 3082TP3     H221066   4.457   3.338   9.832  2.5268 -1.3620 -3.9349
 3083TP3      O21067   4.767   3.736   0.004  0.5926 -0.0095  0.4300
 3083TP3     H121068   4.723   3.790   0.071  2.1809 -0.1525  1.6403
 3083TP3     H221069   4.698   3.678  -0.028 -0.4001  0.5886  1.3789
 3084TP3      O21070   3.928   4.517   1.131  0.3125  0.1617  0.2102
 3084TP3     H121071   3.890   4.430   1.128  0.5630 -0.0273  1.6734
 3084TP3     H221072   3.859   4.575   1.099  0.4934 -0.6402 -1.7723
 3085TP3      O21073   4.157   2.306   1.370 -0.0874  0.0377 -0.0473
 3085TP3     H121074   4.236   2.358   1.354  0.2900 -0.3028  0.6978
 3085TP3     H221075   4.179   2.249   1.443 -0.8278 -0.4915 -0.2223
 3086TP3      O21076   1.936   0.941   8.506  0.2466  0.0232  0.1009
 3086TP3     H121077   1.915   1.009   8.569  2.3875  0.1933  0.7020
 3086TP3     H221078   2.032   0.937   8.506  0.2240 -3.1166  0.2608
 3087TP3      O21079   2.050   0.253   9.661  0.0144 -0.0168 -0.0210
 3087TP3     H121080   1.990   0.180   9.656 -1.3255  0.7010  3.1885
 3087TP3     H221081   1.995   0.331   9.651  1.0779  0.6272 -1.2071
 3088TP3      O21082   3.843   2.874   1.076 -0.3553  0.9315  0.2169
 3088TP3     H121083   3.765   2.876   1.132 -0.2189 -0.4269  0.4984
 3088TP3     H221084   3.900   2.810   1.118 -0.1352  0.0841 -1.3293
 3089TP3      O21085   2.690   5.262   0.643 -0.1316 -0.1404 -0.3710
 3089TP3     H121086   2.620   5.265   0.578 -0.9387 -0.2098  0.4833
 3089TP3     H221087   2.721   5.353   0.648  0.1323 -0.1847 -1.0463
 3090TP3      O21088   0.021   3.434   2.627 -0.3943  0.7924 -0.2394
 3090TP3     H121089   0.092   3.455   2.566  0.9382  1.5483  1.5019
 3090TP3     H221090   0.063   3.431   2.713 -2.1824 -0.4742  0.6405
 3091TP3      O21091   1.107   1.360   2.011  0.0486 -0.1735  0.0346
 3091TP3     H121092   1.092   1.265   2.009  0.4943 -0.2451 -0.2382
 3091TP3     H221093   1.073   1.391   1.926  0.4296 -0.1776 -0.1219
 3092TP3      O21094   2.107   2.997  10.080  0.8526  0.3431 -0.3455
 3092TP3     H121095   2.124   2.977   9.988  2.4800 -1.5111  0.2868
 3092TP3     H221096   2.047   2.928  10.108  1.2506  0.2196  0.2269
 3093TP3      O21097   0.005   3.276   8.880  0.5440 -0.2531  0.0065
 3093TP3     H121098   0.036   3.249   8.794  0.1618 -0.9522  0.0747
 3093TP3     H221099  -0.089   3.288   8.869  0.7417  1.4013 -0.0885
 3094TP3      O21100   0.642   2.300   2.710 -0.5027 -0.4213 -0.1956
 3094TP3     H121101   0.712   2.335   2.766 -0.7063 -0.6766  0.2260
 3094TP3     H221102   0.598   2.236   2.765  0.1070 -1.6334 -1.0845
 3095TP3      O21103   2.275   1.074   1.903 -0.1365  0.1101  0.3636
 3095TP3     H121104   2.244   1.063   1.993 -1.7753 -0.7356 -0.2512
 3095TP3     H221105   2.289   0.984   1.872  2.7220  0.4316  0.4707
 3096TP3      O21106   4.133   3.374   2.987  0.0629  0.5219  0.0254
 3096TP3     H121107   4.085   3.439   3.040 -1.7243 -0.0597 -0.7936
 3096TP3     H221108   4.224   3.382   3.016 -0.2930  2.5920  0.7541
 3097TP3      O21109   3.474   3.483   6.821 -0.0034 -0.0935  0.4165
 3097TP3     H121110   3.381   3.480   6.797  0.4641  0.9798 -1.8581
 3097TP3     H221111   3.474   3.485   6.917 -2.2553 -1.3008  0.5099
 3098TP3      O21112   2.838   1.603   2.854  0.4244 -0.1676 -0.1440
 3098TP3     H121113   2.920   1.647   2.831  0.0180  1.3462  1.1151
 3098TP3     H221114   2.801   1.656   2.925 -3.1046  0.9334 -2.5235
 3099TP3      O21115   1.790   4.873   7.870 -0.0285 -0.1602  0.2303
 3099TP3     H121116   1.752   4.888   7.784 -2.7865  0.3116  1.4256
 3099TP3     H221117   1.721   4.829   7.920  1.4988 -0.5041  2.2144
 3100TP3      O21118   4.731   4.191   9.676 -0.3483 -0.4938  0.1008
 3100TP3     H121119   4.753   4.250   9.604 -1.6552 -1.1183 -0.8408
 3100TP3     H221120   4.699   4.112   9.633 -0.6166 -1.1029  1.3728
 3101TP3      O21121   3.095   1.172   0.819  0.5152  0.0100  0.0232
 3101TP3     H121122   3.037   1.131   0.883 -0.4547  1.4468  0.1086
 3101TP3     H221123   3.178   1.125   0.828 -0.2878 -1.3258  0.7043
 3102TP3      O21124   5.123   1.655   9.101  0.1024  0.2783 -0.2224
 3102TP3     H121125   5.171   1.736   9.087  0.9775 -0.5303 -2.4025
 3102TP3     H221126   5.176   1.588   9.057 -1.8541 -1.0447 -0.6877
 3103TP3      O21127   0.173   2.863   7.613 -0.1222 -0.3793 -0.4692
 3103TP3     H121128   0.082   2.844   7.591  0.1808 -0.4809 -1.7053
 3103TP3     H221129   0.196   2.798   7.679 -1.1792  0.1708  0.4839
 3104TP3      O21130   4.084   4.573   9.948 -0.3085  0.2307 -0.6242
 3104TP3     H121131   4.090   4.518   9.869  0.4863 -0.4869 -0.0900
 3104TP3     H221132   4.145   4.645   9.931  0.2439 -0.1912 -0.4741
 3105TP3      O21133   1.489   4.132   6.678  0.1889 -0.7366 -0.4091
 3105TP3     H121134   1.536   4.145   6.760  1.5540 -1.6765 -1.0041
 3105TP3     H221135   1.460   4.040   6.680 -1.2807 -0.2995 -0.2512
 3106TP3      O21136   0.459   4.713   0.114  0.1524 -0.1081  0.0776
 3106TP3     H121137   0.516   4.786   0.139  0.4058 -0.5962  0.9492
 3106TP3     H221138   0.518   4.638   0.107 -0.2949 -0.4952  0.4174
 3107TP3      O21139   1.379   2.941   2.535 -0.0327  0.4714 -0.4136
 3107TP3     H121140   1.337   2.988   2.607  0.6744  0.8169 -0.2122
 3107TP3     H221141   1.337   2.976   2.456 -1.5684 -0.6751 -0.1472
 3108TP3      O21142   3.393   2.685  10.002 -0.2241  0.5779  0.2705
 3108TP3     H121143   3.308   2.726  10.017 -0.7732 -0.2796 -0.4244
 3108TP3     H221144   3.383   2.637   9.920  0.4401 -0.8014  0.9663
 3109TP3      O21145   0.528   5.037   8.398  0.1280 -0.2206  0.6641
 3109TP3     H121146   0.608   5.082   8.371 -1.0411  1.3738 -0.3498
 3109TP3     H221147   0.457   5.090   8.361 -1.3904 -2.2197  0.5272
 3110TP3      O21148   2.746   3.981   3.490  0.0833  0.0599  0.0067
 3110TP3     H121149   2.716   4.050   3.431 -0.6161 -0.0307  0.2497
 3110TP3     H221150   2.790   4.028   3.561 -0.0588  0.2324 -0.0180
 3111TP3      O21151   1.608   3.173   2.227  0.5390 -0.4612  0.3806
 3111TP3     H121152   1.597   3.134   2.314 -0.5945  0.0413  0.4837
 3111TP3     H221153   1.626   3.099   2.170 -0.9649 -1.0906  0.6767
 3112TP3      O21154   4.579   3.908   9.249 -0.1051  0.3245 -0.1695
 3112TP3     H121155   4.655   3.946   9.205  2.0920 -1.8867  1.4699
 3112TP3     H221156   4.554   3.833   9.195  1.5892 -1.4309  1.3484
 3113TP3      O21157   4.091   0.100   7.897  0.1634  0.2258  0.0125
 3113TP3     H121158   4.002   0.134   7.887 -0.1849 -1.0753 -1.9631
 3113TP3     H221159   4.146   0.166   7.856  0.1279  1.0258  1.2205
 3114TP3      O21160   1.084   2.807   8.567  0.6574  0.5040 -0.0290
 3114TP3     H121161   1.042   2.865   8.630  0.0242  0.9104 -0.8135
 3114TP3     H221162   1.016   2.743   8.545  1.2000 -0.2582  0.4653
 3115TP3      O21163   4.547   0.620   2.081 -0.6677  0.2182  0.0228
 3115TP3     H121164   4.452   0.623   2.092 -0.6812  1.4738 -0.3007
 3115TP3     H221165   4.582   0.637   2.169 -0.7048 -1.5543  0.4251
 3116TP3      O21166   0.813   0.183   9.153  0.7068  0.5580  0.5880
 3116TP3     H121167   0.776   0.173   9.241 -0.4086 -0.5758  0.0317
 3116TP3     H221168   0.856   0.268   9.154 -0.4703  1.1731  1.8176
 3117TP3      O21169   2.235   2.727   8.546  0.0979  0.7974 -0.4293
 3117TP3     H121170   2.192   2.677   8.616  0.0141  1.2208 -0.1782
 3117TP3     H221171   2.304   2.669   8.515  0.7064  0.9454  0.6020
 3118TP3      O21172   1.101   4.051   0.893  0.1423  0.0828 -0.0081
 3118TP3     H121173   1.138   4.085   0.812 -0.1039  0.6151  0.0990
 3118TP3     H221174   1.007   4.054   0.880  0.1120 -1.4964 -0.3719
 3119TP3      O21175   4.063   4.981   1.204 -0.0797  0.2226  0.1013
 3119TP3     H121176   4.158   4.980   1.203 -0.0833 -0.9216 -0.3080
 3119TP3     H221177   4.040   5.073   1.195  0.9808  0.4731 -0.1595
 3120TP3      O21178   0.582   4.156   1.147  0.0603  0.3482 -0.3615
 3120TP3     H121179   0.628   4.156   1.230  1.0214 -1.3146 -0.8462
 3120TP3     H221180   0.598   4.069   1.110 -1.7508  0.4333 -1.5202
 3121TP3      O21181   5.077   4.830   0.397  0.2883 -0.3112 -0.3802
 3121TP3     H121182   5.075   4.792   0.309 -1.2609  0.0762 -0.5519
 3121TP3     H221183   4.985   4.850   0.416  0.7208  0.5694  0.9140
 3122TP3      O21184   0.288   4.333   3.258 -0.0146  0.0405  0.1500
 3122TP3     H121185   0.351   4.388   3.304 -0.3191  0.0682  0.5463
 3122TP3     H221186   0.274   4.377   3.174 -0.6823  0.8870  0.6885
 3123TP3      O21187   2.173   1.963   8.377  0.1421  0.4484 -0.3804
 3123TP3     H121188   2.090   1.925   8.349  0.9044 -1.6170  0.0103
 3123TP3     H221189   2.169   1.961   8.472  1.1174 -0.8503 -0.3449
 3124TP3      O21190   4.098   1.003   7.855 -0.0853 -0.1843 -0.4811
 3124TP3     H121191   4.132   0.920   7.822 -0.2575 -0.6728  0.5125
 3124TP3     H221192   4.050   1.041   7.781 -0.8943 -1.4711 -0.6532
 3125TP3      O21193   2.637   3.700   2.248  0.1250 -0.0826  0.6725
 3125TP3     H121194   2.682   3.719   2.330  0.8122 -2.5538  0.9439
 3125TP3     H221195   2.544   3.708   2.269  0.3073 -0.3757  1.6302
 3126TP3      O21196   0.801   3.353   1.766  0.0788  0.3304 -0.1888
 3126TP3     H121197   0.770   3.322   1.681  2.4701 -0.3125 -0.8821
 3126TP3     H221198   0.886   3.394   1.748  0.4161  0.6394  1.8259
 3127TP3      O21199   2.142   1.040   7.055 -0.9955 -0.2188  0.6715
 3127TP3     H121200   2.094   1.073   7.131 -0.9479 -0.9643  1.0345
 3127TP3     H221201   2.196   1.114   7.027 -0.6953 -0.0605  1.6370
 3128TP3      O21202   4.826   4.533   1.169 -0.5970 -0.6119 -0.2528
 3128TP3     H121203   4.784   4.475   1.106 -0.7678 -0.0964 -0.6126
 3128TP3     H221204   4.795   4.502   1.254 -0.1112 -1.5172 -0.3834
 3129TP3      O21205   0.278   0.161   0.806  0.7460 -0.0284 -0.3631
 3129TP3     H121206   0.196   0.194   0.770  0.6231  1.4449  1.1194
 3129TP3     H221207   0.341   0.170   0.735 -0.0358  0.3008 -1.0321
 3130TP3      O21208   2.171   1.948   8.640  0.1402  0.2490  0.0285
 3130TP3     H121209   2.163   2.041   8.658 -2.0797  0.1599 -0.1134
 3130TP3     H221210   2.113   1.907   8.705  1.1293 -1.0424  0.1308
 3131TP3      O21211   3.191   0.592   9.717 -0.0100 -0.1007  0.2494
 3131TP3     H121212   3.115   0.594   9.658  0.3733 -0.1913 -0.2570
 3131TP3     H221213   3.175   0.663   9.779 -0.9704 -0.7295  0.7368
 3132TP3      O21214   3.369   1.320   7.476  0.4922  0.1248 -0.3766
 3132TP3     H121215   3.321   1.376   7.416 -0.3737  0.5558  0.6863
 3132TP3     H221216   3.380   1.238   7.429  1.8285  1.1385 -1.9979
 3133TP3      O21217   3.076   4.966   2.652  0.6475 -0.3737  0.2188
 3133TP3     H121218   3.046   4.890   2.602 -0.5189 -0.8850  1.6377
 3133TP3     H221219   3.089   4.933   2.741  2.4754  0.5548  0.3431
 3134TP3      O21220   0.505   1.809   1.913 -0.3477  0.3762  0.0162
 3134TP3     H121221   0.423   1.760   1.921  0.5090 -0.9461  1.2517
 3134TP3     H221222   0.490   1.889   1.963 -0.9356  0.2167  0.1025
 3135TP3      O21223   1.422   2.168   8.024 -0.0848  0.3259  0.0833
 3135TP3     H121224   1.422   2.262   8.045  2.1863  0.4185 -0.0669
 3135TP3     H221225   1.496   2.133   8.073 -1.2753 -1.5610  0.6471
 3136TP3      O21226   0.875   1.288   0.942  0.2225  0.0490  1.2087
 3136TP3     H121227   0.925   1.357   0.897 -1.0307  0.0654 -0.2363
 3136TP3     H221228   0.786   1.297   0.907 -0.0342 -2.1357  1.1796
 3137TP3      O21229   4.816   0.342   1.387  0.7913 -0.2055 -0.4739
 3137TP3     H121230   4.721   0.351   1.385  0.6731  0.2763  2.8316
 3137TP3     H221231   4.848   0.419   1.340 -0.4216 -0.1192 -1.2052
 3138TP3      O21232   0.053   2.484   2.183 -0.2689  0.1343  0.5440
 3138TP3     H121233   0.041   2.525   2.097 -1.1727 -1.6596 -0.2325
 3138TP3     H221234   0.123   2.420   2.169 -1.1088 -0.8769  0.8564
 3139TP3      O21235   1.194   0.147   7.289  0.7348 -0.4119  0.0660
 3139TP3     H121236   1.287   0.172   7.294  1.0384 -1.4335 -0.2347
 3139TP3     H221237   1.166   0.140   7.380  0.6747  0.8508  0.1623
 3140TP3      O21238   2.581   1.923   0.021  0.6992  0.1659  0.1793
 3140TP3     H121239   2.548   1.838  -0.008  0.5918  0.4267 -0.4867
 3140TP3     H221240   2.535   1.941   0.103 -0.7507  0.4711 -0.6695
 3141TP3      O21241   5.180   1.154   2.452 -0.3634 -0.0267  0.6213
 3141TP3     H121242   5.164   1.072   2.405 -0.9180 -0.5266  1.6339
 3141TP3     H221243   5.149   1.136   2.541 -0.5713  1.3195  0.8366
 3142TP3      O21244   0.709   0.354   9.567  0.2290  0.3260  0.0601
 3142TP3     H121245   0.748   0.299   9.498 -1.1401  0.7457 -1.0938
 3142TP3     H221246   0.697   0.294   9.641  3.3247  0.2488  0.6630
 3143TP3      O21247   0.902   1.208   7.663 -0.1917  0.1947  0.4462
 3143TP3     H121248   0.879   1.249   7.580  0.3729  0.7001  0.5311
 3143TP3     H221249   0.829   1.148   7.682 -0.7973  0.8107  0.0840
 3144TP3      O21250   4.245   3.733   8.318 -0.3081 -0.0320 -0.1778
 3144TP3     H121251   4.263   3.803   8.256 -0.5741 -0.3926 -0.6653
 3144TP3     H221252   4.298   3.755   8.395  1.9653 -0.8518 -1.3976
 3145TP3      O21253   0.938   1.719   0.856 -0.5399 -0.4954  0.0111
 3145TP3     H121254   1.009   1.702   0.917  0.9398  1.3827 -1.0669
 3145TP3     H221255   0.868   1.756   0.909 -0.4713 -1.7148  0.9851
 3146TP3      O21256   3.422   4.990   0.590 -0.6708  0.0120 -0.0493
 3146TP3     H121257   3.357   4.937   0.636 -0.7221  0.3406  0.2664
 3146TP3     H221258   3.493   4.930   0.569 -0.1150  0.0906  1.4963
 3147TP3      O21259   0.222   2.965   9.351 -0.2585 -0.2021  0.4023
 3147TP3     H121260   0.154   2.901   9.334 -0.1075 -1.1109  2.8187
 3147TP3     H221261   0.190   3.046   9.311 -1.8164 -1.0698 -0.1811
 3148TP3      O21262   4.767   4.945   8.437 -0.2022 -0.2473  0.0487
 3148TP3     H121263   4.792   4.939   8.345 -0.6203 -0.7517 -0.0321
 3148TP3     H221264   4.673   4.927   8.438 -0.7665  2.3210  0.2725
 3149TP3      O21265   3.067   3.289   0.190  0.7169 -0.1073 -0.4626
 3149TP3     H121266   2.989   3.257   0.237  0.3746 -2.0217 -2.2231
 3149TP3     H221267   3.112   3.345   0.254 -0.5557 -1.3147  1.5879
 3150TP3      O21268   1.886   0.048   9.618  0.3204 -0.2875  0.1838
 3150TP3     H121269   1.954  -0.015   9.594  0.4045 -0.0184 -0.2723
 3150TP3     H221270   1.804   0.004   9.595  0.4022  0.0166 -0.7264
 3151TP3      O21271   4.584   1.831   0.871 -0.5199 -0.4885  0.5824
 3151TP3     H121272   4.533   1.753   0.851  0.3471 -2.0099  3.7241
 3151TP3     H221273   4.673   1.809   0.844 -0.4212 -0.2657  0.7228
 3152TP3      O21274   1.904   1.051   8.757  0.3283 -0.3305  0.6732
 3152TP3     H121275   1.926   1.011   8.841  1.0632  0.9965  1.1527
 3152TP3     H221276   1.818   1.091   8.770 -0.1695 -1.2868  0.3582
 3153TP3      O21277   1.455   1.090   9.527  0.4780 -0.3121  0.0961
 3153TP3     H121278   1.436   1.035   9.451  0.4833 -0.0527 -0.0991
 3153TP3     H221279   1.543   1.124   9.510  0.2881  0.1349 -0.0265
 3154TP3      O21280   2.521   3.498   7.471 -0.0394  0.4376 -0.2988
 3154TP3     H121281   2.485   3.577   7.512  0.2811  0.2047  0.4524
 3154TP3     H221282   2.591   3.529   7.415 -0.0960  0.7160 -0.2157
 3155TP3      O21283   0.818   1.603   9.031 -0.0496  0.2138  0.5491
 3155TP3     H121284   0.840   1.686   8.991  0.6250 -0.2254 -0.0200
 3155TP3     H221285   0.855   1.608   9.119 -1.6988  1.2525  1.2208
 3156TP3      O21286   4.296   2.270   8.359 -0.2658 -0.4477 -0.2950
 3156TP3     H121287   4.234   2.197   8.358 -0.6453 -0.1359 -0.0171
 3156TP3     H221288   4.271   2.322   8.435 -1.3286  1.0735 -1.5933
 3157TP3      O21289   4.645   1.683   9.525 -0.1639 -0.0124  0.0701
 3157TP3     H121290   4.611   1.760   9.570 -0.3847 -0.0542 -0.0236
 3157TP3     H221291   4.708   1.719   9.461  1.8316 -0.0837  1.8681
 3158TP3      O21292   1.864   0.743   7.162 -0.2410 -0.1932  0.2684
 3158TP3     H121293   1.857   0.837   7.147  0.2595 -0.0290  1.0072
 3158TP3     H221294   1.791   0.721   7.219 -0.1978 -0.2095  0.3170
 3159TP3      O21295   1.931   2.593   8.812 -0.1184 -0.8576  0.2516
 3159TP3     H121296   1.932   2.501   8.836  1.0248 -1.0067 -0.2833
 3159TP3     H221297   2.016   2.626   8.840 -0.9064  0.3158  1.3960
 3160TP3      O21298   4.469   3.585   0.560 -0.3893  0.4112 -0.5463
 3160TP3     H121299   4.524   3.580   0.482 -0.7525  0.7939 -0.8349
 3160TP3     H221300   4.514   3.532   0.625  0.0129  0.2381 -0.9613
 3161TP3      O21301   0.289   3.028   9.935  0.0565  0.0144 -0.0009
 3161TP3     H121302   0.273   2.934   9.941 -0.2353  0.0123 -0.7840
 3161TP3     H221303   0.219   3.061   9.880  0.1297  0.7048  0.3113
 3162TP3      O21304   1.869   1.476   1.578  0.4721 -0.1178  0.3136
 3162TP3     H121305   1.921   1.494   1.657 -0.2208 -0.0288  0.7545
 3162TP3     H221306   1.797   1.421   1.609 -0.7102  1.2438  0.0511
 3163TP3      O21307   0.647   1.145   2.942 -0.0690 -0.2430  0.5819
 3163TP3     H121308   0.588   1.183   2.877 -0.3957 -1.9566 -0.1754
 3163TP3     H221309   0.717   1.210   2.951  0.1897 -0.0796 -1.7915
 3164TP3      O21310   5.225   3.768   9.757  0.2636  0.0696  0.3423
 3164TP3     H121311   5.271   3.852   9.751  1.1682 -0.3832  0.6955
 3164TP3     H221312   5.150   3.785   9.813 -0.6036  1.0681 -1.0446
 3165TP3      O21313   2.040   0.700   7.964  0.0049 -0.1701  0.2303
 3165TP3     H121314   2.048   0.605   7.954  1.2327 -0.0977  0.3056
 3165TP3     H221315   2.117   0.724   8.016  0.5686  1.0545 -1.1054
 3166TP3      O21316   1.285   4.528   1.364 -0.3580  0.2088 -0.0777
 3166TP3     H121317   1.225   4.593   1.398 -0.8761 -0.0358 -0.5040
 3166TP3     H221318   1.332   4.572   1.293 -3.1131 -0.7641 -2.7380
 3167TP3      O21319   1.250   4.078   9.068  0.4107  0.2044 -0.4042
 3167TP3     H121320   1.306   4.007   9.035  2.2428  1.2761  0.2685
 3167TP3     H221321   1.273   4.086   9.160 -0.2206  1.2829 -0.3249
 3168TP3      O21322   1.907   4.862   7.076  0.7099 -0.0302 -0.6373
 3168TP3     H121323   1.938   4.820   6.995 -1.8157 -0.3473 -1.5503
 3168TP3     H221324   1.908   4.956   7.057 -0.1704 -0.1200 -1.2027
 3169TP3      O21325   0.615   1.725   0.475  0.4341 -0.0301 -0.2443
 3169TP3     H121326   0.585   1.768   0.555  2.4225 -0.0812  0.5880
 3169TP3     H221327   0.535   1.711   0.424 -1.0565 -1.0159  2.2038
 3170TP3      O21328   1.256   5.127   0.399  0.0583  0.0093  0.5403
 3170TP3     H121329   1.197   5.089   0.464 -2.3072  0.6120 -1.1057
 3170TP3     H221330   1.289   5.207   0.441 -1.9166  0.7221  0.8571
 3171TP3      O21331   0.990   3.363   7.358  0.6272  0.4553 -0.0660
 3171TP3     H121332   1.012   3.270   7.356  1.5998  0.6835 -0.0112
 3171TP3     H221333   1.014   3.392   7.446 -1.2844  0.3937  0.5404
 3172TP3      O21334   2.792   1.385   1.002 -0.2829  0.5318  0.0080
 3172TP3     H121335   2.872   1.334   0.990  1.9056  3.3659  1.2804
 3172TP3     H221336   2.790   1.443   0.926 -1.5730  0.0307 -0.3690
 3173TP3      O21337   3.423   4.459   1.277 -0.4320 -0.1613 -0.0282
 3173TP3     H121338   3.330   4.435   1.282 -0.9667  1.3753 -1.6609
 3173TP3     H221339   3.460   4.399   1.212 -0.4489 -0.2115  0.0074
 3174TP3      O21340   5.280   1.533   8.908 -0.4622 -0.0249 -0.3942
 3174TP3     H121341   5.337   1.460   8.881  0.7167  0.8304 -0.2973
 3174TP3     H221342   5.250   1.571   8.825  1.6928  1.4651 -0.5945
 3175TP3      O21343   0.369   0.982   9.682  0.4293  0.6813 -0.4746
 3175TP3     H121344   0.389   1.045   9.612  0.4705  1.8274  0.5462
 3175TP3     H221345   0.444   0.921   9.681  2.2096  2.7099  0.8025
 3176TP3      O21346   3.283   4.410   2.856 -0.4164  0.3510 -0.2336
 3176TP3     H121347   3.294   4.423   2.951 -2.3289 -2.1444  0.4279
 3176TP3     H221348   3.286   4.498   2.820 -2.3522  1.6787  2.4864
 3177TP3      O21349   3.368   4.200   9.750  0.6411  0.8542  0.3635
 3177TP3     H121350   3.325   4.262   9.692 -0.0620 -0.4423 -0.5594
 3177TP3     H221351   3.457   4.193   9.717 -0.0013 -0.5747 -1.2314
 3178TP3      O21352   0.214   2.135   2.894  0.0947  0.6618 -0.4754
 3178TP3     H121353   0.139   2.194   2.885  0.2072  0.8480 -0.2014
 3178TP3     H221354   0.177   2.054   2.928 -0.5183 -0.4378 -3.4657
 3179TP3      O21355   0.054   2.309   3.863 -0.4891 -0.3612  0.2247
 3179TP3     H121356   0.143   2.330   3.835  0.8455 -3.0938  1.9206
 3179TP3     H221357   0.033   2.375   3.929  0.3193  0.2730 -0.1392
 3180TP3      O21358   0.564   2.413   9.170  0.2847  0.5023  0.3022
 3180TP3     H121359   0.644   2.430   9.119 -0.2599 -0.8075 -1.0929
 3180TP3     H221360   0.581   2.329   9.213 -0.5085 -0.0488 -0.4262
 3181TP3      O21361   0.519   0.007   9.596 -0.2318 -0.5168  0.3388
 3181TP3     H121362   0.516  -0.087   9.613  1.6488 -0.7786 -0.5128
 3181TP3     H221363   0.520   0.014   9.500  3.8268  0.0537  0.2605
 3182TP3      O21364   5.008   2.261   0.468 -0.2687  0.1197 -0.0971
 3182TP3     H121365   4.958   2.212   0.403 -4.1265  2.2930  0.9329
 3182TP3     H221366   4.946   2.277   0.539  2.5770  1.2981  2.3569
 3183TP3      O21367   0.642   4.487   0.064  0.0730  0.4114 -0.3498
 3183TP3     H121368   0.721   4.509   0.016  0.8906 -1.4817  0.0260
 3183TP3     H221369   0.620   4.398   0.035 -0.8677  0.2034  0.8895
 3184TP3      O21370   0.595   2.225   6.915  0.2965 -0.0923 -0.2555
 3184TP3     H121371   0.587   2.320   6.902  1.2322  0.0159 -0.1064
 3184TP3     H221372   0.640   2.194   6.836  1.2657 -0.1959  0.3170
 3185TP3      O21373   3.764   4.976   8.620 -0.0850  0.0150 -0.2912
 3185TP3     H121374   3.858   4.989   8.614 -0.0344 -0.7663 -1.7571
 3185TP3     H221375   3.746   4.969   8.713  1.1993  0.8767  0.0404
 3186TP3      O21376   3.322   1.517   9.309 -0.2813  0.3864 -0.7444
 3186TP3     H121377   3.233   1.549   9.290 -1.0295 -0.8324  0.5260
 3186TP3     H221378   3.335   1.537   9.401 -0.4128 -2.0086 -0.1455
 3187TP3      O21379   1.224   0.233   8.306 -0.0932 -0.1401  0.3141
 3187TP3     H121380   1.239   0.139   8.298  0.7233 -0.0223  0.4114
 3187TP3     H221381   1.186   0.244   8.394 -0.9505 -0.4618 -0.0090
 3188TP3      O21382   0.496   2.824   9.758 -1.4119 -0.3460 -0.2344
 3188TP3     H121383   0.463   2.854   9.673  0.2956  0.5161 -0.6456
 3188TP3     H221384   0.584   2.863   9.764 -1.0822 -1.2733  1.4555
 3189TP3      O21385   3.893   0.790   0.253 -0.3271 -0.0288  0.3907
 3189TP3     H121386   3.882   0.787   0.158  0.5370 -1.5760  0.2952
 3189TP3     H221387   3.850   0.710   0.284  1.4715 -0.8123  1.0109
 3190TP3      O21388   0.969   0.076   9.891  0.2088 -0.2362  0.3461
 3190TP3     H121389   1.008   0.120   9.967  1.2603 -0.8376  0.1792
 3190TP3     H221390   0.964  -0.016   9.916  1.6203 -0.6315 -0.6935
 3191TP3      O21391   3.662   3.774   7.321  0.0290 -0.2181  0.2035
 3191TP3     H121392   3.618   3.802   7.241  1.2752  0.9116 -0.1134
 3191TP3     H221393   3.621   3.690   7.342 -1.7507  0.4245 -0.4649
 3192TP3      O21394   3.561   2.197   0.732  0.0200 -0.3815  0.1477
 3192TP3     H121395   3.519   2.277   0.764  0.2489 -0.7229  1.3669
 3192TP3     H221396   3.653   2.209   0.754  0.4013 -0.1605 -1.4214
 3193TP3      O21397   3.382   5.179   1.407 -0.1887  0.5192  0.5138
 3193TP3     H121398   3.413   5.242   1.342 -1.6526  1.4274  0.6548
 3193TP3     H221399   3.327   5.231   1.466 -2.2511 -1.0450  0.0661
 3194TP3      O21400   4.706   0.714   8.563  0.0431  0.4805 -0.1854
 3194TP3     H121401   4.613   0.695   8.578 -0.5298  1.3207 -2.4044
 3194TP3     H221402   4.743   0.630   8.538 -0.6056  0.5108 -1.3420
 3195TP3      O21403   0.954   3.716   1.931 -0.0372  0.6067  0.1886
 3195TP3     H121404   0.865   3.716   1.966 -1.0871 -2.6666 -2.0222
 3195TP3     H221405   0.951   3.781   1.861 -0.7036  0.5032  0.1103
 3196TP3      O21406   5.251   0.252   3.169  0.6960 -0.3183  0.2680
 3196TP3     H121407   5.283   0.337   3.139  0.9073 -0.6468 -0.4664
 3196TP3     H221408   5.232   0.265   3.262 -1.8732  1.2985 -0.3996
 3197TP3      O21409   1.884   1.111   1.001  0.3472  0.3777 -0.0912
 3197TP3     H121410   1.854   1.166   1.074  3.4298  2.0351  0.1232
 3197TP3     H221411   1.959   1.159   0.965  2.0034 -2.7439 -1.1969
 3198TP3      O21412   2.902   5.267   7.379 -0.1742  0.6891 -0.6265
 3198TP3     H121413   2.863   5.190   7.419 -0.6167  1.5609  0.7174
 3198TP3     H221414   2.878   5.262   7.287  3.1495 -2.8289 -1.5357
 3199TP3      O21415   0.491   3.138   8.927  0.0810  0.0413  0.2062
 3199TP3     H121416   0.507   3.088   8.847 -0.4028 -0.1589  0.2323
 3199TP3     H221417   0.396   3.147   8.931  0.1616  0.9032  0.2404
 3200TP3      O21418   4.003   1.537   2.012  0.3363  0.2547  0.0353
 3200TP3     H121419   4.036   1.595   2.081  0.1677 -0.7149  0.9660
 3200TP3     H221420   4.081   1.492   1.980  0.2693 -0.1480  0.4248
 3201TP3      O21421   3.292   4.687   2.809  0.3148  0.0442 -0.0257
 3201TP3     H121422   3.316   4.773   2.842  2.4025 -1.1322  1.8124
 3201TP3     H221423   3.198   4.680   2.828  0.4282  1.3411  1.1996
 3202TP3      O21424   3.543   1.446   2.292 -0.1181  0.1576  0.0042
 3202TP3     H121425   3.607   1.457   2.362 -1.2474  1.8169  0.8181
 3202TP3     H221426   3.554   1.355   2.265  1.0564 -0.2318  1.6073
 3203TP3      O21427   1.959   0.865   2.025 -0.0201 -0.2776 -0.4179
 3203TP3     H121428   2.036   0.850   2.079  0.7043 -0.0134 -1.3395
 3203TP3     H221429   1.929   0.953   2.049  1.5645  0.7364 -1.8876
 3204TP3      O21430   4.219   2.964   2.923 -0.0692  0.0250  0.2500
 3204TP3     H121431   4.225   2.895   2.989 -2.1338  0.1537  0.6352
 3204TP3     H221432   4.212   2.917   2.840  2.2024 -0.1397  0.0892
 3205TP3      O21433   2.861   1.852   1.051 -0.3121 -0.0364 -0.1679
 3205TP3     H121434   2.917   1.783   1.015  0.1405 -0.2311  0.8848
 3205TP3     H221435   2.912   1.932   1.041 -0.2924 -0.0500 -0.1764
 3206TP3      O21436   1.932   3.929   1.217 -0.0755  0.3688  0.0485
 3206TP3     H121437   1.889   3.969   1.141  0.2553  1.3179  0.3555
 3206TP3     H221438   1.934   3.836   1.196 -2.0411  0.3074 -0.1001
 3207TP3      O21439   4.998   4.640   8.193  0.0410  0.6260  0.3022
 3207TP3     H121440   4.996   4.575   8.123 -2.1331  1.4528 -0.5102
 3207TP3     H221441   4.929   4.612   8.253  1.2009  0.4924  1.6213
 3208TP3      O21442   0.840   0.144   3.193 -0.3505 -0.0589  0.5745
 3208TP3     H121443   0.863   0.113   3.105  0.1950 -3.8817  1.8894
 3208TP3     H221444   0.745   0.158   3.190 -0.2466  0.5323 -0.7446
 3209TP3      O21445   2.847   2.147   0.686  0.0958  0.5547  0.0890
 3209TP3     H121446   2.791   2.221   0.661  0.4430  1.3207  1.4761
 3209TP3     H221447   2.918   2.149   0.622 -0.2412  1.0065 -0.2898
 3210TP3      O21448   0.124   4.296   9.005 -0.4264  0.0958 -0.2103
 3210TP3     H121449   0.084   4.291   9.092 -2.1568 -0.6985 -1.0159
 3210TP3     H221450   0.215   4.270   9.019 -0.1902  1.6700  1.6355
 3211TP3      O21451   4.081   2.767   7.912 -0.4466  0.2424  0.4021
 3211TP3     H121452   4.124   2.685   7.889  2.1148  1.7697 -0.6919
 3211TP3     H221453   4.068   2.811   7.828  1.0103  2.1872  1.1202
 3212TP3      O21454   5.218   0.089   0.575 -0.1919  0.6750  0.3215
 3212TP3     H121455   5.283   0.074   0.507  0.4255 -1.0896  1.2416
 3212TP3     H221456   5.254   0.159   0.629  1.1360 -0.4902  1.0039
 3213TP3      O21457   2.862   4.774   3.125 -0.5602 -0.1842 -0.4459
 3213TP3     H121458   2.892   4.698   3.175  0.7067  0.3312 -0.3873
 3213TP3     H221459   2.801   4.819   3.185  0.7294  0.2780  0.5814
 3214TP3      O21460   2.675   3.036   8.261  0.3173  0.5134 -0.6613
 3214TP3     H121461   2.737   2.975   8.301 -0.0252  0.1240 -0.7224
 3214TP3     H221462   2.642   2.989   8.184 -0.8116  0.3220 -0.0721
 3215TP3      O21463   0.450   4.221   7.624  0.5545  0.5464  0.0430
 3215TP3     H121464   0.537   4.256   7.604 -0.0763  0.8261 -2.6222
 3215TP3     H221465   0.393   4.298   7.628 -0.0086  0.2215 -1.0795
 3216TP3      O21466   0.424   1.438   8.450 -0.4308  0.0050  0.4077
 3216TP3     H121467   0.337   1.465   8.418 -0.0934 -0.5532 -1.0717
 3216TP3     H221468   0.460   1.386   8.378  2.2664  2.5030 -0.2454
 3217TP3      O21469   0.150   1.216   2.483 -0.4631 -0.3485  0.3170
 3217TP3     H121470   0.061   1.182   2.471 -0.3827  0.1104 -1.9837
 3217TP3     H221471   0.189   1.157   2.547 -1.7714 -1.8425 -0.1871
 3218TP3      O21472   2.980   2.658   7.788 -0.0944  0.4247  0.1376
 3218TP3     H121473   3.022   2.648   7.702  0.9151  0.9883  0.5405
 3218TP3     H221474   2.930   2.578   7.799  0.5867 -0.1204 -0.5434
 3219TP3      O21475   4.009   0.697   1.449 -0.0582  0.5194  0.0785
 3219TP3     H121476   3.945   0.629   1.426 -0.7118  1.0764  0.2308
 3219TP3     H221477   3.986   0.771   1.394  0.7019  0.5986 -0.1355
 3220TP3      O21478   4.485   2.967   2.263  0.1807 -0.1452  0.5151
 3220TP3     H121479   4.557   3.000   2.317  0.2951  2.1424 -0.8758
 3220TP3     H221480   4.413   3.028   2.280  0.4909  1.2358 -2.4277
 3221TP3      O21481   1.379   2.373   1.635  0.4457 -0.1545  0.3693
 3221TP3     H121482   1.429   2.327   1.703  1.6084 -1.2488 -1.1522
 3221TP3     H221483   1.445   2.402   1.573 -0.5851  0.9313 -0.2526
 3222TP3      O21484   0.109   3.887   9.131  0.2398  0.0910 -0.1704
 3222TP3     H121485   0.112   3.799   9.168 -1.1124  0.2334  0.3424
 3222TP3     H221486   0.061   3.938   9.195 -0.9849  0.6690 -1.4926
 3223TP3      O21487   5.019   3.284   1.261  0.5005 -0.4483  0.1354
 3223TP3     H121488   4.957   3.262   1.191 -0.7550  1.8809  0.4287
 3223TP3     H221489   4.965   3.294   1.339  1.0564  2.1636  0.2876
 3224TP3      O21490   0.211   1.093   8.486 -0.5624 -0.0251 -0.0984
 3224TP3     H121491   0.117   1.080   8.475 -0.5288 -0.3312 -0.0300
 3224TP3     H221492   0.229   1.063   8.575 -0.2385 -0.8774 -0.4417
 3225TP3      O21493   0.306   1.699   1.503 -0.1228 -0.5352  0.9415
 3225TP3     H121494   0.263   1.725   1.584 -1.4183  0.1323  0.0673
 3225TP3     H221495   0.331   1.608   1.516  1.9627  0.2257  3.0125
 3226TP3      O21496   3.400   2.102   8.498 -0.1207  0.2808 -0.6772
 3226TP3     H121497   3.410   2.018   8.455 -3.1996 -1.0506  0.8756
 3226TP3     H221498   3.418   2.083   8.591 -1.3193  1.1996 -0.2407
 3227TP3      O21499   4.705   0.047   7.487  0.1496  0.4997 -0.4322
 3227TP3     H121500   4.716  -0.015   7.559  0.9228 -0.6175 -1.4850
 3227TP3     H221501   4.779   0.106   7.495  0.7270 -0.1617 -0.8228
 3228TP3      O21502   2.020   1.850   8.841 -0.2059  0.0389  0.6614
 3228TP3     H121503   2.100   1.828   8.888 -0.0816  0.8616  0.8442
 3228TP3     H221504   1.979   1.765   8.823  2.3620 -0.7573 -2.4623
 3229TP3      O21505   3.962   4.770   1.917  0.2646 -0.6246 -0.1683
 3229TP3     H121506   3.894   4.717   1.958  0.3276 -0.6175 -0.0528
 3229TP3     H221507   3.928   4.859   1.918  0.8502 -0.3914  1.1548
 3230TP3      O21508   0.584   3.936   0.735 -0.2366 -0.0543  0.7055
 3230TP3     H121509   0.610   3.963   0.647  0.2816 -0.2912  0.7807
 3230TP3     H221510   0.557   3.844   0.724 -1.2105  0.2407  0.5976
 3231TP3      O21511   2.417   3.405   1.459  0.3853  0.2393 -0.0656
 3231TP3     H121512   2.347   3.412   1.524 -1.3656 -0.9622 -1.7229
 3231TP3     H221513   2.449   3.495   1.449 -2.2876  1.2347 -0.6503
 3232TP3      O21514   4.418   1.711   2.029  0.1271  0.3971  0.5835
 3232TP3     H121515   4.434   1.680   1.940 -1.1113  0.4303  0.3283
 3232TP3     H221516   4.494   1.682   2.079  0.1302 -0.9447 -0.1549
 3233TP3      O21517   3.155   4.096   8.622  0.6577 -0.4856 -0.3271
 3233TP3     H121518   3.068   4.108   8.660  0.7594 -0.3745 -0.1249
 3233TP3     H221519   3.170   4.174   8.570  2.0990  1.3182  2.5042
 3234TP3      O21520   2.797   1.862   0.557  0.5674 -0.3794 -0.0019
 3234TP3     H121521   2.707   1.891   0.543 -0.1154 -2.3323  0.0438
 3234TP3     H221522   2.817   1.888   0.647 -0.4110 -1.0247  0.4154
 3235TP3      O21523   0.950   3.243  10.103  0.4380  0.3303  0.0671
 3235TP3     H121524   1.039   3.276  10.113  1.4094 -1.6618 -1.4326
 3235TP3     H221525   0.959   3.148  10.112 -1.6201  0.1151  0.2782
 3236TP3      O21526   3.609   3.171   9.688  0.4820  0.5917  0.1378
 3236TP3     H121527   3.631   3.241   9.750  1.7930  0.4494 -0.1210
 3236TP3     H221528   3.623   3.211   9.602  1.4750 -0.0383 -0.0064
 3237TP3      O21529   2.790   1.455   2.047 -0.2704 -0.1742 -0.6255
 3237TP3     H121530   2.704   1.443   2.005 -0.8322 -0.8576  0.6570
 3237TP3     H221531   2.817   1.367   2.072  0.8714  0.0265 -1.0861
 3238TP3      O21532   1.262   0.100   7.809 -0.8047 -0.2599 -0.0906
 3238TP3     H121533   1.273   0.152   7.889  0.1352 -0.2588 -0.2161
 3238TP3     H221534   1.349   0.065   7.790 -0.8780  0.2217 -1.4388
 3239TP3      O21535   3.634   2.942   8.682 -0.2264  0.1669  0.1004
 3239TP3     H121536   3.624   2.851   8.710  0.2704  0.5199  1.4772
 3239TP3     H221537   3.630   2.938   8.586  1.2140 -1.4766  0.0748
 3240TP3      O21538   3.688   3.588   2.621  0.5157 -0.4776  0.3525
 3240TP3     H121539   3.603   3.546   2.609  0.7060 -0.3857 -1.6786
 3240TP3     H221540   3.734   3.532   2.683 -1.9725  0.9945  3.8620
 3241TP3      O21541   0.467   2.645   0.061 -0.2016  0.2388 -0.3396
 3241TP3     H121542   0.395   2.624   0.002  1.0674  0.1294 -1.9100
 3241TP3     H221543   0.511   2.720   0.020  2.1736 -1.3493 -0.8860
 3242TP3      O21544   3.727   3.182   0.704  0.0582  0.3307  0.1211
 3242TP3     H121545   3.637   3.175   0.671  0.1195  0.6339 -0.1161
 3242TP3     H221546   3.725   3.257   0.762  0.3439  0.8367 -0.5154
 3243TP3      O21547   4.194   4.046   8.541 -0.3882 -0.1025  0.2124
 3243TP3     H121548   4.145   4.078   8.466  0.2408 -0.9723 -0.6020
 3243TP3     H221549   4.137   3.980   8.581 -0.2895 -0.4168 -0.1570
 3244TP3      O21550   3.744   1.077   0.090  0.1302 -0.0347  0.2650
 3244TP3     H121551   3.813   1.082   0.023  1.9710  0.5135  2.0807
 3244TP3     H221552   3.718   0.985   0.090  1.6552 -0.4958  0.2372
 3245TP3      O21553   1.702   4.230   8.691  0.5073  0.1953  0.1087
 3245TP3     H121554   1.749   4.185   8.620  0.1786 -0.2906  0.1964
 3245TP3     H221555   1.765   4.234   8.763  0.4985 -0.2250  0.1382
 3246TP3      O21556   0.523   4.815   9.863 -0.1326  0.1105 -0.6139
 3246TP3     H121557   0.580   4.762   9.809 -0.9683  0.1172 -1.5365
 3246TP3     H221558   0.579   4.849   9.933  0.2003 -2.8406  0.6724
 3247TP3      O21559   2.596   0.273   9.045  0.1180 -0.3654  0.1459
 3247TP3     H121560   2.556   0.190   9.018 -2.1007  0.6671  0.0890
 3247TP3     H221561   2.626   0.312   8.963 -0.2640 -0.4077 -0.0169
 3248TP3      O21562   4.521   3.618   2.176  0.4111  0.1158  0.1297
 3248TP3     H121563   4.504   3.655   2.263 -1.6471  0.8694 -0.5494
 3248TP3     H221564   4.610   3.646   2.156  0.9788 -0.1571  2.0083
 3249TP3      O21565   4.119   0.890   0.600  0.2715  0.2106 -0.5379
 3249TP3     H121566   4.205   0.933   0.601  0.0166  0.7160 -0.3522
 3249TP3     H221567   4.073   0.927   0.674 -0.0083 -0.2791 -0.4627
 3250TP3      O21568   4.627   2.537   3.325  0.1047 -0.0529 -0.5736
 3250TP3     H121569   4.676   2.503   3.400  0.8837  2.8924  0.4162
 3250TP3     H221570   4.695   2.571   3.266 -0.4564  4.4004  0.9557
 3251TP3      O21571   5.150   4.376   0.002  0.5349 -0.5359 -0.1793
 3251TP3     H121572   5.147   4.401   0.094 -0.9676 -2.6842  0.4447
 3251TP3     H221573   5.147   4.280   0.004 -2.7776 -0.6352 -2.4725
 3252TP3      O21574   0.602   1.190   7.202 -0.4324 -0.1585 -0.0810
 3252TP3     H121575   0.612   1.269   7.148 -0.6930 -0.1084 -0.0591
 3252TP3     H221576   0.691   1.168   7.229 -0.4345  0.6386  0.6364
 3253TP3      O21577   0.642   4.765   2.621  0.1404  0.0131 -0.0833
 3253TP3     H121578   0.556   4.728   2.643  0.6616 -1.0032  0.3443
 3253TP3     H221579   0.692   4.757   2.702  0.9169 -0.2698 -0.5806
 3254TP3      O21580   4.009   4.401   1.581 -0.2282  0.1214  0.0159
 3254TP3     H121581   4.024   4.410   1.487 -0.4728  0.1803 -0.0181
 3254TP3     H221582   3.986   4.489   1.610  3.8837  1.0873  0.8929
 3255TP3      O21583   0.395   4.114   0.033  0.2311 -0.2197 -0.0596
 3255TP3     H121584   0.311   4.071   0.016 -0.6594  0.9684  1.1160
 3255TP3     H221585   0.430   4.135  -0.053 -0.2144 -1.5493 -0.5913
 3256TP3      O21586   1.173   4.801   9.243 -0.1196  0.2879 -0.2994
 3256TP3     H121587   1.238   4.856   9.287  0.2672  1.7489 -2.5544
 3256TP3     H221588   1.224   4.738   9.194 -0.4966 -0.1341 -0.1572
 3257TP3      O21589   0.971   4.244   8.912 -0.1181 -0.2813  0.2926
 3257TP3     H121590   0.944   4.256   8.821  0.1872 -0.9644  0.1032
 3257TP3     H221591   1.045   4.304   8.923 -0.9245  0.7056  0.4606
 3258TP3      O21592   2.201   0.457   1.322  0.5258 -0.3891  0.5610
 3258TP3     H121593   2.291   0.457   1.355  0.6723 -2.2976  0.2551
 3258TP3     H221594   2.154   0.397   1.380 -0.4572  0.2558  0.4471
 3259TP3      O21595   1.331   2.664   3.192  0.0192  0.3092 -0.0390
 3259TP3     H121596   1.305   2.747   3.154 -0.4907  0.7219  1.1502
 3259TP3     H221597   1.340   2.605   3.117 -0.9320  1.0785 -0.7901
 3260TP3      O21598   1.290   0.246   9.902 -0.3112 -0.4343  0.1052
 3260TP3     H121599   1.282   0.272   9.810 -2.4660 -0.5573  0.1999
 3260TP3     H221600   1.360   0.180   9.903  0.1044 -0.0494 -1.3422
 3261TP3      O21601   0.093   3.450   8.168  0.1130  0.3083  0.2801
 3261TP3     H121602   0.174   3.419   8.127 -0.6487 -2.1652  0.5289
 3261TP3     H221603   0.027   3.443   8.100 -0.5777 -1.0621  1.0640
 3262TP3      O21604   2.260   0.666   9.358  0.4041  0.0088  0.3110
 3262TP3     H121605   2.287   0.575   9.367 -0.8313 -0.3214  1.0348
 3262TP3     H221606   2.188   0.675   9.421 -0.7913  0.9546 -1.1410
 3263TP3      O21607   3.546   3.185   1.037 -0.5000  0.2457  0.2025
 3263TP3     H121608   3.509   3.119   0.979  0.7220 -0.9234  0.6817
 3263TP3     H221609   3.613   3.229   0.984 -0.4376  0.2221  0.2613
 3264TP3      O21610   3.359   4.582   7.135  0.8421 -0.5884 -0.6643
 3264TP3     H121611   3.439   4.616   7.097  1.8913 -2.6309 -0.4293
 3264TP3     H221612   3.313   4.540   7.061  0.4077 -0.1825 -0.6306
 3265TP3      O21613   4.702   4.224   8.074 -0.3234  0.1361 -0.0636
 3265TP3     H121614   4.685   4.262   8.160 -0.0558  0.8138 -0.3049
 3265TP3     H221615   4.616   4.197   8.042 -0.4446  0.0340  0.3403
 3266TP3      O21616   4.206   4.705   9.141  0.2202 -0.0304  0.1707
 3266TP3     H121617   4.153   4.660   9.075  0.1326  1.9028 -1.1599
 3266TP3     H221618   4.294   4.668   9.129 -0.1747 -1.0598  0.3034
 3267TP3      O21619   2.741   1.083   3.426  0.5291  0.3054  0.0681
 3267TP3     H121620   2.763   1.170   3.457 -0.0337  0.1101  1.1030
 3267TP3     H221621   2.746   1.028   3.505  0.1796 -0.4466 -0.4189
 3268TP3      O21622   4.459   0.639   9.460  0.0185  0.6950 -0.4002
 3268TP3     H121623   4.485   0.729   9.445  0.7486  0.8192  1.2817
 3268TP3     H221624   4.393   0.644   9.530 -0.6703 -0.0155 -0.9731
 3269TP3      O21625   4.040   2.200   1.956 -0.4657 -0.1034  0.0245
 3269TP3     H121626   4.067   2.255   1.884 -1.5562 -0.2926 -0.5583
 3269TP3     H221627   3.962   2.154   1.924 -0.3058 -1.0565  0.9167
 3270TP3      O21628   0.751   0.830   2.437  0.0406 -0.1484  0.3539
 3270TP3     H121629   0.801   0.775   2.378 -1.1479  0.4346 -1.2657
 3270TP3     H221630   0.792   0.916   2.431 -0.6481  0.1384 -0.3690
 3271TP3      O21631   3.450   5.277   2.114 -0.3249  0.1383 -0.1181
 3271TP3     H121632   3.500   5.330   2.175 -0.4075  0.1939 -0.0990
 3271TP3     H221633   3.497   5.285   2.031 -0.4529  0.4062 -0.1657
 3272TP3      O21634   2.343   0.377   7.896  0.1429 -0.0068 -0.0036
 3272TP3     H121635   2.426   0.406   7.858  0.6940 -0.5077  0.8100
 3272TP3     H221636   2.338   0.284   7.875 -0.6749  0.2069 -0.8607
 3273TP3      O21637   2.579   1.027   9.816  0.2018  0.2364 -0.3120
 3273TP3     H121638   2.576   1.090   9.888  1.9025 -0.1957  0.1971
 3273TP3     H221639   2.541   0.947   9.852  1.8346 -0.2453  0.4586
 3274TP3      O21640   3.562   4.281   2.646  0.2361  0.7849 -0.2850
 3274TP3     H121641   3.640   4.281   2.702  0.8199  0.5707 -1.0699
 3274TP3     H221642   3.592   4.321   2.564  0.1440 -1.3566 -1.4257
 3275TP3      O21643   4.267   4.414   8.219  0.1542  0.0432  0.5412
 3275TP3     H121644   4.356   4.382   8.202 -0.6391 -1.1630 -1.6176
 3275TP3     H221645   4.253   4.397   8.312  2.5487  1.2641  1.2081
 3276TP3      O21646   3.210   2.401   9.320 -0.4233 -0.5415 -0.4799
 3276TP3     H121647   3.195   2.493   9.297  2.1609  0.8766  2.6807
 3276TP3     H221648   3.127   2.358   9.302 -2.7787  3.0785  0.7090
 3277TP3      O21649   2.607   4.352   9.333 -0.2122  0.3783  0.1692
 3277TP3     H121650   2.650   4.395   9.407  2.7420  1.3248 -1.9208
 3277TP3     H221651   2.657   4.272   9.318 -3.3399 -2.0688  1.6231
 3278TP3      O21652   3.418   3.249   0.311  0.7563  0.0500  0.2730
 3278TP3     H121653   3.423   3.316   0.244  0.9941  1.0091  1.2205
 3278TP3     H221654   3.440   3.167   0.266 -1.4101  0.2725 -1.3288
 3279TP3      O21655   4.644   0.704   0.841  0.1296  0.0926 -0.3503
 3279TP3     H121656   4.693   0.622   0.837  0.1228  0.0993 -0.5949
 3279TP3     H221657   4.707   0.769   0.872  0.5939  0.3442 -1.7699
 3280TP3      O21658   4.732   3.919   2.024  0.1472  0.3312  0.1210
 3280TP3     H121659   4.638   3.933   2.012 -0.1205 -1.3252  0.0047
 3280TP3     H221660   4.763   3.998   2.069 -1.5836  0.2784  1.4882
 3281TP3      O21661   1.176   4.895   9.565 -0.2374  0.2668  0.2043
 3281TP3     H121662   1.096   4.874   9.612 -1.0338 -0.4012 -1.3726
 3281TP3     H221663   1.240   4.830   9.596 -0.8439 -0.3839  0.1141
 3282TP3      O21664   4.310   0.459   1.938  0.3751  0.5495  0.5238
 3282TP3     H121665   4.302   0.481   2.031  0.2714  3.4467 -0.0723
 3282TP3     H221666   4.287   0.540   1.893  0.7394 -0.6944 -2.0451
 3283TP3      O21667   3.722   3.461   6.715 -0.2112  0.0111  0.0844
 3283TP3     H121668   3.632   3.466   6.748 -1.1821  0.0670 -2.3262
 3283TP3     H221669   3.740   3.367   6.708 -0.8991 -0.0399 -1.3403
 3284TP3      O21670   3.826   1.092   7.387 -0.3064  0.4611  0.1418
 3284TP3     H121671   3.744   1.060   7.350  0.8077 -0.5129 -1.6319
 3284TP3     H221672   3.892   1.067   7.323  1.7342 -0.9873  2.6266
 3285TP3      O21673   2.866   0.641   1.758  0.3662  0.4225 -0.0384
 3285TP3     H121674   2.909   0.716   1.797  0.2839  0.2560  0.3840
 3285TP3     H221675   2.805   0.678   1.694  0.7444  0.6821 -0.2462
 3286TP3      O21676   0.361   1.833   8.112  0.5875  0.4168 -0.1991
 3286TP3     H121677   0.291   1.842   8.047  0.9553  1.1006 -0.5097
 3286TP3     H221678   0.406   1.752   8.088 -2.4632 -2.3119  2.3283
 3287TP3      O21679   3.706   2.057   2.557 -0.3982  0.1683 -0.2817
 3287TP3     H121680   3.620   2.075   2.520 -0.3188 -1.4183 -1.3162
 3287TP3     H221681   3.705   1.963   2.575  0.6453  0.3695  0.9741
 3288TP3      O21682   2.751   2.960   8.796  0.2286 -0.3808  0.0007
 3288TP3     H121683   2.678   2.924   8.746 -0.0029 -0.8210  0.6399
 3288TP3     H221684   2.710   3.021   8.857  0.4685 -0.1430 -0.0752
 3289TP3      O21685   3.853   1.205   9.434  0.3919  0.3389 -0.6428
 3289TP3     H121686   3.856   1.137   9.502  2.6904  0.9119 -0.0824
 3289TP3     H221687   3.939   1.200   9.392  0.3523  2.4289 -1.0470
 3290TP3      O21688   5.109   4.061   1.915  0.0950 -0.1057  0.0533
 3290TP3     H121689   5.195   4.049   1.876  0.0015 -0.0202 -0.1783
 3290TP3     H221690   5.058   4.106   1.848 -0.0835 -0.0167  0.2481
 3291TP3      O21691   2.290   0.019   2.606 -0.0948  0.4564  0.0702
 3291TP3     H121692   2.265  -0.068   2.575 -3.1256  0.4640  1.9980
 3291TP3     H221693   2.261   0.078   2.536 -0.7966  0.0921  0.0421
 3292TP3      O21694   2.465   4.039   6.805  0.0922  0.0653  0.0263
 3292TP3     H121695   2.528   4.105   6.776  0.0633  0.0639 -0.0409
 3292TP3     H221696   2.445   4.063   6.895 -2.5251  2.1923 -0.9867
 3293TP3      O21697   0.589   0.498   0.123 -0.3241  0.3576 -0.2914
 3293TP3     H121698   0.535   0.445   0.181 -0.8614 -0.6025 -1.5957
 3293TP3     H221699   0.637   0.557   0.181  1.0980 -2.2468  1.3494
 3294TP3      O21700   1.877   1.978   2.111 -0.3282  0.3449 -0.7787
 3294TP3     H121701   1.911   1.892   2.086 -0.4358  0.0889 -0.0674
 3294TP3     H221702   1.927   2.040   2.058  0.8994 -0.0558 -0.1210
 3295TP3      O21703   0.196   0.274   2.554  0.4084 -0.0499 -0.4032
 3295TP3     H121704   0.240   0.289   2.470  0.9880  2.6119  0.2661
 3295TP3     H221705   0.256   0.309   2.619 -0.3902 -1.3106  1.0734
 3296TP3      O21706   4.658   2.886   1.757 -0.2013  0.0940 -0.4225
 3296TP3     H121707   4.651   2.906   1.850 -1.2784 -1.9584  0.0072
 3296TP3     H221708   4.695   2.798   1.755 -0.6814 -0.0997 -1.9076
 3297TP3      O21709   2.853   3.079   7.200 -0.1031  0.0999  0.6150
 3297TP3     H121710   2.780   3.141   7.196  0.0625  0.3951  1.7161
 3297TP3     H221711   2.861   3.045   7.111 -0.3735  1.4546  0.0525
 3298TP3      O21712   4.327   0.959   2.545 -0.8483  0.0012 -0.1348
 3298TP3     H121713   4.235   0.960   2.518 -0.4960 -0.2828 -1.4232
 3298TP3     H221714   4.328   1.005   2.629 -2.3839 -1.2782  0.6357
 3299TP3      O21715   0.045   2.909   1.938 -0.0005 -0.4443 -0.0065
 3299TP3     H121716   0.053   2.897   1.844  1.7685  1.8590 -0.2364
 3299TP3     H221717   0.134   2.919   1.970 -0.6073  3.9645  1.0101
 3300TP3      O21718   0.509   3.949   8.200  0.2481  0.4483 -0.4250
 3300TP3     H121719   0.577   3.940   8.267  0.9090 -1.1672 -1.2466
 3300TP3     H221720   0.448   4.013   8.236  1.7506  1.2992  0.7158
 3301TP3      O21721   3.777   0.083   8.935 -0.0832  0.2245  0.3328
 3301TP3     H121722   3.710   0.049   8.875 -0.2593 -0.6754  1.0223
 3301TP3     H221723   3.858   0.081   8.884 -0.3660  0.1866 -0.1238
 3302TP3      O21724   0.302   2.883   2.023  1.0463  0.0755  0.3750
 3302TP3     H121725   0.328   2.795   1.995  1.5531  0.7017 -1.2745
 3302TP3     H221726   0.312   2.883   2.118 -1.9908 -2.5971  0.8417
 3303TP3      O21727   0.493   0.014   1.415  0.4179 -0.2319  0.0127
 3303TP3     H121728   0.517  -0.051   1.350 -1.7281 -1.5241  0.3953
 3303TP3     H221729   0.483  -0.035   1.496 -0.3278  0.7144  0.5285
 3304TP3      O21730   5.174   4.289   8.145  0.0725 -0.5438  0.1509
 3304TP3     H121731   5.100   4.317   8.199  0.0106 -1.5465  0.6004
 3304TP3     H221732   5.250   4.294   8.203 -0.1172 -2.4390  0.6362
 3305TP3      O21733   2.283   2.986   2.232 -0.0962  0.4460 -0.0857
 3305TP3     H121734   2.336   3.013   2.157  0.2049 -1.2663 -0.5277
 3305TP3     H221735   2.194   3.010   2.209 -0.0688 -0.4904 -1.2274
 3306TP3      O21736   0.243   4.686   7.484 -0.2465 -0.0962  0.0864
 3306TP3     H121737   0.189   4.711   7.409  1.6279  1.2818 -0.8840
 3306TP3     H221738   0.239   4.761   7.543 -0.4096 -0.5150  0.6164
 3307TP3      O21739   1.296   1.780   3.430  0.5515  0.0168 -0.0936
 3307TP3     H121740   1.311   1.803   3.521 -0.7256  0.7440 -0.0360
 3307TP3     H221741   1.373   1.812   3.384  0.4645  1.1600  0.5143
 3308TP3      O21742   0.770   4.708   2.848 -0.0054  0.4161 -0.0242
 3308TP3     H121743   0.693   4.662   2.879 -1.7168  1.3879 -2.5194
 3308TP3     H221744   0.798   4.762   2.922 -0.5764 -1.2953  1.5015
 3309TP3      O21745   3.710   4.930   9.805  0.3690 -1.2273 -0.0979
 3309TP3     H121746   3.768   4.969   9.870  0.1530  1.6223 -1.4342
 3309TP3     H221747   3.763   4.924   9.726 -0.8108  0.6462 -1.1136
 3310TP3      O21748   4.597   2.006   9.006 -0.1256  0.2119 -0.1479
 3310TP3     H121749   4.513   1.961   8.996  0.0422 -0.0453 -0.4109
 3310TP3     H221750   4.636   2.002   8.919 -0.2084  1.0698 -0.2307
 3311TP3      O21751   0.584   1.349   1.895  0.1411  0.3144  0.4800
 3311TP3     H121752   0.676   1.322   1.897  0.2588  0.2129 -2.4094
 3311TP3     H221753   0.582   1.429   1.948  2.0496  0.7192  0.0145
 3312TP3      O21754   5.011   1.346   2.939  0.6256  0.0398  0.1475
 3312TP3     H121755   4.972   1.399   3.008 -1.9776  0.5547 -1.5890
 3312TP3     H221756   5.027   1.261   2.980 -1.4893  0.1241  1.2482
 3313TP3      O21757   1.032   4.448   2.345 -0.5579  0.3894 -0.4783
 3313TP3     H121758   1.017   4.427   2.437  0.2852  1.4886 -0.0578
 3313TP3     H221759   1.119   4.414   2.326 -0.8884 -0.1917 -1.0035
 3314TP3      O21760   1.954   3.158   8.599 -0.7951  0.7774 -0.7425
 3314TP3     H121761   2.011   3.151   8.523 -0.2500  0.0638 -0.2785
 3314TP3     H221762   2.012   3.182   8.671 -0.7795 -1.4719  0.0581
 3315TP3      O21763   4.384   1.883  10.010 -0.0198 -0.1722 -0.2166
 3315TP3     H121764   4.354   1.824  10.079  2.3640 -1.6735 -0.3670
 3315TP3     H221765   4.330   1.861   9.934 -0.5502 -0.6794  0.2980
 3316TP3      O21766   0.082   3.150   2.357  0.2979 -0.5595 -0.5536
 3316TP3     H121767   0.129   3.097   2.422 -0.6030  1.3937  1.8665
 3316TP3     H221768   0.011   3.093   2.327  0.8605 -1.5943  0.0266
 3317TP3      O21769   4.975   4.497   2.255  0.5457  0.8897  0.2440
 3317TP3     H121770   4.995   4.449   2.175  1.5859  2.4400 -0.4716
 3317TP3     H221771   4.903   4.555   2.232 -0.6878 -0.2407  1.0969
 3318TP3      O21772   3.981   4.324   6.656 -0.5526  0.6035  0.0877
 3318TP3     H121773   3.925   4.325   6.579 -0.8767 -1.3645  0.2360
 3318TP3     H221774   4.028   4.240   6.650  1.4818  1.6329  0.6060
 3319TP3      O21775   5.222   3.576   8.849 -0.1529 -0.2148  0.3034
 3319TP3     H121776   5.304   3.625   8.848  0.0101 -0.4502  1.2289
 3319TP3     H221777   5.219   3.533   8.764  1.7899 -1.9993  1.0542
 3320TP3      O21778   2.328   2.153   7.737  0.7022  0.2874 -0.0888
 3320TP3     H121779   2.329   2.128   7.829  0.7115  0.8089  0.0599
 3320TP3     H221780   2.282   2.237   7.736  3.6141  2.0041 -0.0894
 3321TP3      O21781   2.613   2.389   6.774  0.1917  0.0322 -0.0321
 3321TP3     H121782   2.609   2.310   6.720 -2.0590  1.2375 -1.7664
 3321TP3     H221783   2.698   2.428   6.752  0.4939 -0.9133 -0.5972
 3322TP3      O21784   2.111   4.630   1.410  0.1744 -0.2500  0.0881
 3322TP3     H121785   2.126   4.659   1.320  0.8112  0.8563  0.5327
 3322TP3     H221786   2.194   4.647   1.455 -0.1370 -0.7864  0.8944
 3323TP3      O21787   3.969   3.925   1.919 -0.2525  0.1280 -0.4946
 3323TP3     H121788   4.043   3.909   1.860 -0.6846 -0.2933 -0.9346
 3323TP3     H221789   3.912   3.849   1.907 -0.9087  0.5954 -0.3903
 3324TP3      O21790   3.835   4.410   8.294 -0.1793 -0.1113 -0.0761
 3324TP3     H121791   3.794   4.494   8.273  2.9013  1.7154  0.6556
 3324TP3     H221792   3.799   4.387   8.380 -2.1813 -0.4162 -0.9270
 3325TP3      O21793   2.425   2.327   2.211  0.4219  0.0340  0.2045
 3325TP3     H121794   2.463   2.336   2.123 -0.3918 -2.6313 -0.5017
 3325TP3     H221795   2.340   2.371   2.205  0.0004 -0.8545 -0.6332
 3326TP3      O21796   3.830   2.306   7.851 -0.2906  0.3759 -0.4589
 3326TP3     H121797   3.788   2.248   7.914  0.4126 -1.2880 -1.4681
 3326TP3     H221798   3.885   2.249   7.798  1.0380  2.0720 -1.0205
 3327TP3      O21799   4.518   2.716   8.235 -0.2344 -0.7188 -0.2800
 3327TP3     H121800   4.559   2.631   8.223  2.2507 -0.0609  2.3148
 3327TP3     H221801   4.430   2.696   8.268  0.1802 -2.2868 -0.0534
 3328TP3      O21802   1.968   2.226   0.637 -0.1873  0.5294 -0.1017
 3328TP3     H121803   1.902   2.294   0.652 -0.7497  0.1812 -0.8628
 3328TP3     H221804   2.049   2.274   0.624 -0.3303  0.9825  0.6186
 3329TP3      O21805   4.420   2.694   7.784  0.4385 -0.5710  0.1367
 3329TP3     H121806   4.384   2.756   7.848 -1.8219  1.8328 -3.1496
 3329TP3     H221807   4.345   2.640   7.759  2.0590 -3.9129  1.8360
 3330TP3      O21808   4.075   3.592   9.574 -0.1591  0.1004 -0.0820
 3330TP3     H121809   4.026   3.604   9.656 -0.7156 -1.6242 -0.1113
 3330TP3     H221810   4.160   3.632   9.591 -0.5661  0.5240  1.0418
 3331TP3      O21811   3.342   3.885   0.576  0.5328  0.0123 -0.1046
 3331TP3     H121812   3.284   3.828   0.526 -1.4065  0.3825  1.5706
 3331TP3     H221813   3.284   3.950   0.615  2.3074  1.3481  0.4337
 3332TP3      O21814   0.969   3.717   0.066  0.0758 -0.2852 -0.1093
 3332TP3     H121815   1.022   3.638   0.077 -0.6613 -0.6084  1.3638
 3332TP3     H221816   0.897   3.689   0.008 -0.0198 -0.6129  0.1643
 3333TP3      O21817   0.084   3.977   8.213 -0.2596  0.4390  0.6276
 3333TP3     H121818   0.135   3.959   8.134 -0.1492  1.7882  0.3781
 3333TP3     H221819   0.065   3.890   8.249 -0.3147 -0.2004 -0.8782
 3334TP3      O21820   0.694   4.704   2.038  0.4131  0.5240 -0.1139
 3334TP3     H121821   0.710   4.779   2.096  0.9691  0.3948 -0.0974
 3334TP3     H221822   0.726   4.629   2.088 -2.8786 -0.2005  1.2115
 3335TP3      O21823   4.625   4.216   2.810 -0.2157  0.1359 -0.3124
 3335TP3     H121824   4.659   4.135   2.848  1.3103  1.6314  1.7482
 3335TP3     H221825   4.682   4.232   2.734  0.5971  0.1679  0.2987
 3336TP3      O21826   1.699   2.089   8.082  0.3226 -0.1130  0.1519
 3336TP3     H121827   1.722   2.159   8.020 -0.0166 -0.5266 -0.4558
 3336TP3     H221828   1.717   2.008   8.035 -0.0992 -0.4371  0.5373
 3337TP3      O21829   2.270   0.603   9.677  0.1384  0.5264 -0.3348
 3337TP3     H121830   2.348   0.610   9.732 -0.6143  1.1240  0.7168
 3337TP3     H221831   2.297   0.551   9.602  0.9656 -1.1961  1.0796
 3338TP3      O21832   0.438   2.924   8.694  0.2955  1.2645 -0.6317
 3338TP3     H121833   0.512   2.962   8.647  1.2772  1.9372  1.3362
 3338TP3     H221834   0.466   2.834   8.714 -0.1742  0.9364 -1.3799
 3339TP3      O21835   0.803   2.492   9.031  0.0372  0.2502 -0.4750
 3339TP3     H121836   0.876   2.548   9.056  1.3590 -1.4600 -0.2747
 3339TP3     H221837   0.844   2.407   9.012 -1.9722 -0.9846  0.3934
 3340TP3      O21838   4.623   0.332   2.715 -0.3665  0.3463  0.1780
 3340TP3     H121839   4.566   0.260   2.690  0.4862 -0.4398  0.4392
 3340TP3     H221840   4.641   0.318   2.808 -0.9620  1.4554  0.4866
 3341TP3      O21841   3.392   3.286   8.188  0.7425  0.1371 -0.1041
 3341TP3     H121842   3.367   3.312   8.276  0.8220 -0.5679  0.1311
 3341TP3     H221843   3.466   3.342   8.166  1.7484 -0.7424  0.8942
 3342TP3      O21844   0.769   1.886   9.816  0.2544  0.2766 -0.3371
 3342TP3     H121845   0.757   1.862   9.908 -0.7046 -1.0957 -0.7862
 3342TP3     H221846   0.745   1.979   9.812 -0.8901  0.0484  0.5813
 3343TP3      O21847   1.806   3.473   0.766 -0.0868 -0.2930 -0.7632
 3343TP3     H121848   1.710   3.469   0.772 -0.2633  0.5434 -2.4028
 3343TP3     H221849   1.823   3.483   0.672  1.6692 -1.5563 -0.6169
 3344TP3      O21850   2.053   0.778   0.636 -0.4434  0.1660 -0.1609
 3344TP3     H121851   2.136   0.761   0.591 -0.2519  0.4005  0.0972
 3344TP3     H221852   2.068   0.747   0.725 -1.4699 -2.1230 -0.7253
 3345TP3      O21853   4.144   4.133   9.450 -0.5378  0.1718  0.5255
 3345TP3     H121854   4.053   4.141   9.422  0.7921  2.4694 -4.0031
 3345TP3     H221855   4.182   4.067   9.392  1.1530  0.8297  0.8235
 3346TP3      O21856   2.927   1.103   1.025  0.4340 -0.5302  0.2896
 3346TP3     H121857   2.832   1.094   1.026  0.5028 -2.5747 -2.2067
 3346TP3     H221858   2.956   1.062   1.107 -0.8017  0.9869  1.5588
 3347TP3      O21859   0.226   2.771   9.989  0.2107  0.0252 -0.1273
 3347TP3     H121860   0.250   2.709   9.920  1.2880 -0.1331  0.3660
 3347TP3     H221861   0.182   2.718  10.055 -2.2330  0.4323 -1.3493
 3348TP3      O21862   4.226   4.010   1.100 -0.1103 -0.3628  0.7536
 3348TP3     H121863   4.177   4.050   1.171 -1.3597  0.4556 -0.5247
 3348TP3     H221864   4.172   3.935   1.073 -0.4791  0.2669 -0.3473
 3349TP3      O21865   0.762   0.497   0.939 -0.0876 -0.2057 -0.4267
 3349TP3     H121866   0.675   0.507   0.976  0.6327  0.5383  1.1671
 3349TP3     H221867   0.814   0.459   1.010  0.8865 -0.6660 -1.3581
 3350TP3      O21868   4.514   2.249   2.749  0.3057  0.3842 -0.2191
 3350TP3     H121869   4.474   2.293   2.674 -0.1856 -0.3288 -0.3774
 3350TP3     H221870   4.498   2.156   2.735  1.1922  0.1534  0.2076
 3351TP3      O21871   1.949   4.629   7.927  0.1795  0.0017 -0.6480
 3351TP3     H121872   1.864   4.589   7.907 -0.1915 -0.0068  0.7941
 3351TP3     H221873   1.946   4.715   7.885 -2.9753  2.5021  3.8022
 3352TP3      O21874   0.284   3.175   2.182  0.1105 -0.2383 -0.3906
 3352TP3     H121875   0.236   3.228   2.119 -0.5039  1.5971  1.5333
 3352TP3     H221876   0.220   3.150   2.248  0.4766 -3.1182 -0.9615
 3353TP3      O21877   1.427   2.710   2.796 -0.0888 -0.5949 -0.4543
 3353TP3     H121878   1.388   2.647   2.857 -1.5381  0.2964 -0.4294
 3353TP3     H221879   1.429   2.664   2.712 -3.2289 -0.0052 -0.9630
 3354TP3      O21880   2.370   2.501   9.235  0.2949 -0.1753 -0.1804
 3354TP3     H121881   2.309   2.558   9.188 -0.0615 -0.4544 -0.0670
 3354TP3     H221882   2.385   2.428   9.175  0.5027 -0.1169 -0.1995
 3355TP3      O21883   2.242   4.177   1.113  0.0106  0.5241 -0.2431
 3355TP3     H121884   2.190   4.134   1.045 -0.4668 -0.2438  0.5941
 3355TP3     H221885   2.180   4.233   1.159  0.0117 -0.0618  0.4811
 3356TP3      O21886   1.257   3.045   3.358  0.1827  0.0581 -0.9410
 3356TP3     H121887   1.162   3.037   3.364  0.2732 -1.8497 -1.4155
 3356TP3     H221888   1.274   3.139   3.367 -1.7221  0.4186 -0.7316
 3357TP3      O21889   4.050   5.039   7.335 -0.1981 -0.0899  0.0823
 3357TP3     H121890   4.117   5.099   7.368  0.5955  0.5051 -2.3892
 3357TP3     H221891   4.082   4.952   7.359  1.5303  0.1797 -1.0831
 3358TP3      O21892   0.950   4.596   3.113 -0.5154 -0.2899  0.1908
 3358TP3     H121893   0.917   4.674   3.068 -0.6666 -0.4361  0.0448
 3358TP3     H221894   1.030   4.573   3.066  0.2312  0.5288  1.0437
 3359TP3      O21895   4.985   1.784   7.748 -0.3569  0.2549 -0.5178
 3359TP3     H121896   4.918   1.724   7.781 -0.1990  1.0171  1.3302
 3359TP3     H221897   5.068   1.739   7.763 -0.1876  1.1578  1.5476
 3360TP3      O21898   3.095   3.444   3.649 -0.3071 -0.4847  0.4667
 3360TP3     H121899   3.110   3.387   3.573  0.5000  0.6443 -0.2368
 3360TP3     H221900   3.050   3.520   3.613  1.2386  0.6579  0.8874
 3361TP3      O21901   3.340   3.207   7.198 -0.5297 -0.5133 -0.2067
 3361TP3     H121902   3.427   3.234   7.169 -1.5004  1.9955 -1.0499
 3361TP3     H221903   3.305   3.284   7.242 -2.3494 -1.4519  0.0502
 3362TP3      O21904   4.486   1.300   9.236 -0.1140  0.3496 -0.4764
 3362TP3     H121905   4.580   1.309   9.252  0.0465  0.6134 -1.5421
 3362TP3     H221906   4.455   1.390   9.223 -0.1219  0.1076 -2.2521
 3363TP3      O21907   2.858   2.748   1.956  0.2025 -0.4919  0.0750
 3363TP3     H121908   2.931   2.810   1.951  0.3494 -0.4872  1.5916
 3363TP3     H221909   2.899   2.665   1.979 -0.2111 -0.6276  0.3254
 3364TP3      O21910   4.444   0.378   9.030 -0.4583 -0.3422 -0.2205
 3364TP3     H121911   4.539   0.389   9.023 -0.4475 -0.8792 -1.0629
 3364TP3     H221912   4.433   0.285   9.054 -0.8007 -0.6074 -1.3461
 3365TP3      O21913   2.921   1.356   8.303  0.3014  0.0580  0.1045
 3365TP3     H121914   2.925   1.276   8.251 -3.2895 -0.3113  0.1406
 3365TP3     H221915   2.978   1.417   8.257 -1.2738 -0.8052 -3.3115
 3366TP3      O21916   5.189   4.221   0.821  0.5108 -0.0958  0.1315
 3366TP3     H121917   5.253   4.190   0.757  0.6042 -0.9973  0.6479
 3366TP3     H221918   5.104   4.196   0.785  0.4069  1.2183 -0.6194
 3367TP3      O21919   2.859   2.296   1.300 -0.4039  0.0604 -0.0457
 3367TP3     H121920   2.841   2.318   1.208 -0.1907 -1.1967 -0.4173
 3367TP3     H221921   2.876   2.380   1.342 -1.0842  0.7148 -1.0295
 3368TP3      O21922   0.051   1.538   3.399 -0.0236  0.7107 -0.3358
 3368TP3     H121923   0.020   1.607   3.459  0.0372 -0.9796  1.7410
 3368TP3     H221924  -0.010   1.465   3.413  1.1119 -0.3919 -0.9599
 3369TP3      O21925   4.710   4.664   9.072  0.4213  0.4062  0.1640
 3369TP3     H121926   4.738   4.691   9.160 -0.3185 -1.3101  0.9884
 3369TP3     H221927   4.616   4.680   9.071  0.5317  1.0488 -0.5867
 3370TP3      O21928   4.764   3.082   9.373  0.3705 -0.1436 -0.2294
 3370TP3     H121929   4.701   3.112   9.308 -0.9355 -1.0156  0.5781
 3370TP3     H221930   4.710   3.050   9.446  1.7509  1.2393  1.5077
 3371TP3      O21931   2.044   5.093   9.241 -0.7058 -0.0267  0.0890
 3371TP3     H121932   2.076   5.178   9.211  1.3581 -0.8067 -0.0844
 3371TP3     H221933   1.953   5.090   9.211 -0.1039  1.1117 -2.0690
 3372TP3      O21934   4.640   3.696   7.685 -0.2235  0.3177  0.2412
 3372TP3     H121935   4.641   3.716   7.779 -0.3912 -0.7739  0.4949
 3372TP3     H221936   4.689   3.614   7.678 -1.3789 -0.3399 -0.4351
 3373TP3      O21937   1.519   3.766   7.602  0.4218 -0.0595 -0.4486
 3373TP3     H121938   1.541   3.771   7.695  0.5781  0.7510 -0.5137
 3373TP3     H221939   1.433   3.807   7.595  0.5849  0.2520 -0.7059
 3374TP3      O21940   3.330   4.112   9.068 -0.4325 -0.6894  0.1428
 3374TP3     H121941   3.347   4.204   9.048  1.5021 -0.3255  2.7975
 3374TP3     H221942   3.237   4.099   9.048 -0.6517  1.7084 -0.6902
 3375TP3      O21943   2.536   3.069   9.347  0.0500  0.2896 -0.0912
 3375TP3     H121944   2.562   2.980   9.370 -0.1011  0.5972  1.3740
 3375TP3     H221945   2.600   3.097   9.281  0.3280 -0.7565 -0.2843
 3376TP3      O21946   2.512   1.456   2.820 -0.5145  0.1402  0.1477
 3376TP3     H121947   2.500   1.540   2.864  0.6141  1.0588 -1.2293
 3376TP3     H221948   2.601   1.430   2.841  0.3101  0.9640 -2.1172
 3377TP3      O21949   2.374   2.337   1.681 -0.5248  0.1785 -0.0323
 3377TP3     H121950   2.308   2.309   1.618 -2.0014  1.6448  0.7798
 3377TP3     H221951   2.325   2.358   1.760  0.9497  1.0577  0.7091
 3378TP3      O21952   0.487   4.780   3.410 -0.5453  0.7497  0.5266
 3378TP3     H121953   0.511   4.832   3.333  0.3592 -2.4274 -1.5032
 3378TP3     H221954   0.570   4.763   3.455 -0.6997  0.2588  0.6333
 3379TP3      O21955   2.665   2.367   8.225 -0.3344 -0.4449  0.4362
 3379TP3     H121956   2.636   2.341   8.312 -0.1563  0.0726  0.6549
 3379TP3     H221957   2.649   2.461   8.221 -2.2329 -0.7644 -0.8245
 3380TP3      O21958   3.467   0.661   0.228  0.0660  0.2261 -0.3685
 3380TP3     H121959   3.402   0.631   0.165 -2.2210  1.9769  1.0181
 3380TP3     H221960   3.431   0.636   0.314  1.5282  0.7122  0.4294
 3381TP3      O21961   1.502   2.697   2.264 -0.5562  0.0157 -0.1243
 3381TP3     H121962   1.460   2.745   2.193 -0.6115  3.5576  2.0973
 3381TP3     H221963   1.587   2.739   2.276 -1.7261  1.7528  3.7383
 3382TP3      O21964   2.545   1.705   0.536 -0.0848 -0.2613 -0.2976
 3382TP3     H121965   2.503   1.685   0.453 -0.2246  0.1238 -0.3178
 3382TP3     H221966   2.482   1.758   0.584 -0.6276 -1.7163  0.6660
 3383TP3      O21967   2.482   2.318   0.399  0.1911 -0.0193 -0.5519
 3383TP3     H121968   2.466   2.401   0.353  0.4142  0.7394  0.7034
 3383TP3     H221969   2.573   2.323   0.427 -0.8444  1.2516  3.2073
 3384TP3      O21970   5.136   4.362   1.415 -0.2727 -0.0380  0.1644
 3384TP3     H121971   5.114   4.269   1.411  2.7637 -0.8226 -1.5637
 3384TP3     H221972   5.146   4.388   1.323  0.9457  1.4047  0.6567
 3385TP3      O21973   4.734   3.299   1.694  0.4536  0.1830  0.0500
 3385TP3     H121974   4.800   3.243   1.733  0.6924  1.0994  0.9978
 3385TP3     H221975   4.652   3.272   1.735  0.5948  0.6436  0.6430
 3386TP3      O21976   0.254   4.902   9.248  0.5204 -0.3517  0.1340
 3386TP3     H121977   0.332   4.933   9.293 -0.2764 -0.0216  1.3422
 3386TP3     H221978   0.251   4.955   9.168  0.8539  0.5377  0.6865
 3387TP3      O21979   5.169   3.182   7.819  0.3716  0.0958  0.1914
 3387TP3     H121980   5.207   3.236   7.750 -0.0235 -0.3187 -0.3620
 3387TP3     H221981   5.083   3.158   7.786  0.0878  0.0737  0.9303
 3388TP3      O21982   4.812   5.101   1.346 -0.0382  0.4041 -0.3315
 3388TP3     H121983   4.860   5.081   1.266  1.6197  0.9593  0.4755
 3388TP3     H221984   4.802   5.016   1.391 -0.7218  0.1385 -0.9624
 3389TP3      O21985   2.314   2.776   0.909 -0.6071 -0.0340  0.3976
 3389TP3     H121986   2.407   2.795   0.900 -0.7152 -0.1603 -1.1834
 3389TP3     H221987   2.307   2.732   0.994  0.4277  2.0001  1.6140
 3390TP3      O21988   0.917   0.691   2.761  0.4025  0.3323 -0.6233
 3390TP3     H121989   0.946   0.656   2.846  0.0644 -0.7815 -0.9465
 3390TP3     H221990   0.851   0.756   2.782  1.7895  1.5739  0.0521
 3391TP3      O21991   1.684   1.538   9.473  0.0986  0.0548 -0.5566
 3391TP3     H121992   1.733   1.457   9.458  2.3966  1.3875 -0.6794
 3391TP3     H221993   1.594   1.515   9.453  0.6245 -2.5424 -0.3052
 3392TP3      O21994   1.608   4.004   9.911  0.2499 -0.5250 -0.0668
 3392TP3     H121995   1.537   3.988   9.849  0.1264 -0.8464  0.1554
 3392TP3     H221996   1.683   4.026   9.856 -0.0379 -0.1208 -0.2994
 3393TP3      O21997   0.828   1.138   6.880 -0.6317 -0.3227  0.0569
 3393TP3     H121998   0.869   1.067   6.831  1.1733  0.9347 -0.3475
 3393TP3     H221999   0.797   1.097   6.961  4.5504 -0.8762  2.1138
 3394TP3      O22000   0.069   0.309   0.675  0.3103  0.1591 -0.1244
 3394TP3     H122001   0.072   0.372   0.603 -0.2036  1.0948  0.6467
 3394TP3     H222002   0.001   0.343   0.734  0.6654 -0.6193  0.7650
 3395TP3      O22003   1.595   2.136   0.251  0.1917 -0.0295  0.0592
 3395TP3     H122004   1.628   2.221   0.223  0.2770 -0.3464 -0.8383
 3395TP3     H222005   1.673   2.087   0.277  0.7188 -1.1821 -3.1313
 3396TP3      O22006   3.860   0.656   8.304 -0.1613  0.8105 -0.4440
 3396TP3     H122007   3.770   0.672   8.277 -0.7974 -0.1327  0.9949
 3396TP3     H222008   3.875   0.717   8.376  0.4702  1.1661 -0.8620
 3397TP3      O22009   4.024   2.373   3.334  0.0224  0.1469 -0.3700
 3397TP3     H122010   4.019   2.374   3.239 -1.0543  0.8696 -0.3223
 3397TP3     H222011   4.047   2.463   3.358  0.0570  0.0273  0.0619
 3398TP3      O22012   2.904   3.319   2.743 -0.1148  0.0434 -0.7715
 3398TP3     H122013   2.883   3.375   2.668  0.0416  0.0686 -0.7973
 3398TP3     H222014   2.885   3.373   2.820  0.7563  0.4036 -0.7993
 3399TP3      O22015   4.640   3.409   2.462  0.0027 -0.4209  0.5102
 3399TP3     H122016   4.571   3.475   2.466 -1.9066 -2.2377 -0.6214
 3399TP3     H222017   4.624   3.353   2.538  0.7811 -0.3599  0.7248
 3400TP3      O22018   2.398   3.393   1.146  0.3321 -0.3316 -0.2433
 3400TP3     H122019   2.304   3.370   1.148  0.6584 -1.8519 -0.6045
 3400TP3     H222020   2.427   3.364   1.059  1.2211 -0.2636  0.0247
 3401TP3      O22021   4.203   3.819  10.029  0.3394 -0.3351  0.4304
 3401TP3     H122022   4.245   3.776  10.103  0.0743  2.4168  2.3458
 3401TP3     H222023   4.262   3.890  10.005 -0.1716 -0.4244 -1.2005
 3402TP3      O22024   4.437   0.803   3.512  0.1851  0.0855  0.0788
 3402TP3     H122025   4.461   0.774   3.425  0.7611 -1.3707  0.6921
 3402TP3     H222026   4.491   0.880   3.528  0.6750 -0.1252 -0.5380
 3403TP3      O22027   2.822   5.236   1.379  0.1203  0.3950 -0.0372
 3403TP3     H122028   2.744   5.259   1.328  0.0645 -0.3534 -0.3110
 3403TP3     H222029   2.835   5.310   1.437 -0.3534  0.8674 -0.5137
 3404TP3      O22030   2.715   3.048   9.746  0.5400  0.5112  0.2941
 3404TP3     H122031   2.619   3.049   9.742  0.5369  0.0340  0.1657
 3404TP3     H222032   2.734   3.014   9.834  0.5656 -2.0373 -0.5933
 3405TP3      O22033   2.572   3.314   8.708 -0.3999 -0.3060  0.1814
 3405TP3     H122034   2.641   3.328   8.773  0.0237  1.2638 -0.5524
 3405TP3     H222035   2.605   3.243   8.653  1.4652  1.4640 -1.1437
 3406TP3      O22036   0.345   3.072   7.787  0.4175 -0.0268  0.4330
 3406TP3     H122037   0.265   3.092   7.835 -0.7269  0.7660 -1.6759
 3406TP3     H222038   0.320   3.001   7.727  2.1874 -2.0328  1.9188
 3407TP3      O22039   4.290   2.175   2.478 -0.4433 -0.3181 -0.1858
 3407TP3     H122040   4.353   2.174   2.406  1.2107 -0.0125  1.2081
 3407TP3     H222041   4.230   2.246   2.456  0.4914  0.2715 -0.8788
 3408TP3      O22042   1.798   2.780   8.639  0.5247  0.6484 -0.5890
 3408TP3     H122043   1.716   2.733   8.650  1.1003 -0.5757 -1.4402
 3408TP3     H222044   1.830   2.794   8.729 -0.4399  0.8490 -0.2729
 3409TP3      O22045   1.031   3.108   7.362  0.1718  0.1672  0.1479
 3409TP3     H122046   1.012   3.026   7.317 -1.5327  0.1771  0.7576
 3409TP3     H222047   1.028   3.086   7.455 -1.0317  1.0114  0.3445
 3410TP3      O22048   1.790   1.599   7.737  0.4072  0.7783  0.1795
 3410TP3     H122049   1.720   1.655   7.704  1.5380  2.1134 -0.0493
 3410TP3     H222050   1.761   1.574   7.824 -0.1014  1.8061  0.3235
 3411TP3      O22051   2.652   2.355   1.600 -0.3607 -0.0258  0.3326
 3411TP3     H122052   2.565   2.370   1.637  0.1657 -0.8288  1.9808
 3411TP3     H222053   2.635   2.316   1.514 -1.6282 -0.4456  0.7546
 3412TP3      O22054   1.138   3.334   8.217 -0.1359 -0.3603  0.2768
 3412TP3     H122055   1.095   3.269   8.161 -0.4504  0.5429 -0.5549
 3412TP3     H222056   1.175   3.283   8.289 -0.4599 -1.4467 -0.3076
 3413TP3      O22057   4.229   3.343   0.399  0.0025  0.2822  0.0479
 3413TP3     H122058   4.136   3.342   0.422 -0.1375 -0.7184 -0.5175
 3413TP3     H222059   4.237   3.278   0.329  1.5549 -1.6146  1.8333
 3414TP3      O22060   3.536   4.381   8.687  0.7407  0.2605 -0.6213
 3414TP3     H122061   3.541   4.475   8.669  0.1665  0.4331  0.0731
 3414TP3     H222062   3.509   4.342   8.603  1.6891  0.6182 -1.1106
 3415TP3      O22063   5.005   0.260   0.786 -0.6262 -0.0879  0.1727
 3415TP3     H122064   5.015   0.234   0.877 -0.6026 -1.0599 -0.1020
 3415TP3     H222065   4.932   0.322   0.787 -0.4199  0.1481  0.8902
 3416TP3      O22066   3.024   0.185   0.094 -0.5567 -0.0289 -0.0304
 3416TP3     H122067   3.038   0.124   0.166 -1.1164 -0.0807  0.0361
 3416TP3     H222068   2.951   0.149   0.045 -1.0865  0.7295  0.1761
 3417TP3      O22069   3.275   5.235   7.326 -0.2016 -0.1061 -0.1432
 3417TP3     H122070   3.221   5.156   7.329 -0.8630  0.3064 -0.7934
 3417TP3     H222071   3.244   5.282   7.248  1.4774 -0.1151 -0.8456
 3418TP3      O22072   1.561   3.686   9.674  0.2314  0.2295  0.1573
 3418TP3     H122073   1.653   3.707   9.656  0.0638  2.9907  1.8599
 3418TP3     H222074   1.525   3.768   9.709 -2.4135 -1.3016  1.2655
 3419TP3      O22075   4.402   1.562   0.190 -0.1373  0.2519  0.1355
 3419TP3     H122076   4.388   1.481   0.141  2.0188 -0.4252  0.5694
 3419TP3     H222077   4.336   1.622   0.156 -3.4078 -2.3014  1.3966
 3420TP3      O22078   4.702   4.483   8.685  0.5593  0.9212  0.3449
 3420TP3     H122079   4.731   4.468   8.775 -0.6343  0.8878  0.7424
 3420TP3     H222080   4.628   4.543   8.694  0.7930  1.3678 -0.6672
 3421TP3      O22081   4.834   4.819  10.026 -0.0357 -0.2307 -0.0516
 3421TP3     H122082   4.842   4.908   9.991  1.3669 -0.6084 -0.7496
 3421TP3     H222083   4.856   4.762   9.952 -1.6295 -1.2012  0.1843
 3422TP3      O22084   4.587   1.349   3.106 -0.0517 -0.0448  0.1357
 3422TP3     H122085   4.626   1.437   3.102  1.5825 -0.6582  1.5428
 3422TP3     H222086   4.656   1.291   3.073 -0.0237 -1.0823  1.8999
 3423TP3      O22087   0.439   0.250   9.852 -0.0161  0.0443  0.1039
 3423TP3     H122088   0.453   0.339   9.884 -0.2270  0.1427 -0.0764
 3423TP3     H222089   0.483   0.194   9.916  0.2768  0.2892  0.1184
 3424TP3      O22090   3.860   1.802   0.044  0.3997 -0.4889 -0.5183
 3424TP3     H122091   3.799   1.730   0.060 -0.3041  0.3706  0.7831
 3424TP3     H222092   3.940   1.758   0.013  0.0640 -1.8532  0.4564
 3425TP3      O22093   5.238   2.796   7.870 -0.5034 -0.1450  0.0015
 3425TP3     H122094   5.191   2.739   7.931 -0.9450  0.9029  0.6474
 3425TP3     H222095   5.238   2.746   7.788  1.3865 -2.2265  1.1703
 3426TP3      O22096   4.483   4.535   9.214 -0.4190 -0.0174  0.5423
 3426TP3     H122097   4.523   4.465   9.265 -1.2209  0.3595  1.7437
 3426TP3     H222098   4.443   4.592   9.280 -0.1033  1.3738 -0.4258
 3427TP3      O22099   3.592   1.963   7.746  0.6740 -0.6500 -0.4693
 3427TP3     H122100   3.568   1.893   7.807  1.0958  0.2959  0.8118
 3427TP3     H222101   3.609   1.917   7.663 -0.0629 -1.9399  0.0662
 3428TP3      O22102   3.901   5.002   9.330 -0.1624  0.2178  0.0527
 3428TP3     H122103   3.901   5.072   9.265  1.1235 -0.6143 -0.8857
 3428TP3     H222104   3.961   4.936   9.295 -1.2780 -1.3532  0.9229
 3429TP3      O22105   4.309   4.515   9.550 -0.3803  0.2512  0.6141
 3429TP3     H122106   4.307   4.425   9.584 -0.5476  0.2089  0.4936
 3429TP3     H222107   4.218   4.543   9.552 -0.3273  0.4209  0.6536
 3430TP3      O22108   5.240   3.437   7.678 -0.0470  0.2479  0.1247
 3430TP3     H122109   5.239   3.450   7.583  0.7879 -0.8335 -0.0458
 3430TP3     H222110   5.169   3.492   7.710  0.2891  1.3940 -1.0251
 3431TP3      O22111   1.151   3.357   1.508 -0.5147 -0.1596 -0.2870
 3431TP3     H122112   1.059   3.385   1.515 -0.4873 -0.4448  1.9105
 3431TP3     H222113   1.147   3.262   1.510 -0.1724 -0.1689 -0.0142
 3432TP3      O22114   3.222   3.723   2.226  0.6151 -0.3037  0.0411
 3432TP3     H122115   3.297   3.680   2.268 -1.3206 -1.8693  2.1144
 3432TP3     H222116   3.238   3.711   2.132  2.4581 -1.4920  0.4459
 3433TP3      O22117   4.518   2.877   7.617  0.3577 -0.5373  0.1924
 3433TP3     H122118   4.513   2.789   7.655 -1.3383 -0.7725 -0.4864
 3433TP3     H222119   4.584   2.869   7.548  0.7384 -1.0826  0.6079
 3434TP3      O22120   2.567   1.487   0.208  0.1822  0.3978 -0.4465
 3434TP3     H122121   2.526   1.568   0.241  0.5581  0.7633 -0.8722
 3434TP3     H222122   2.497   1.444   0.158 -0.2807  0.0235  0.4857
 3435TP3      O22123   2.518   2.702   2.231  0.0126 -0.5634 -0.4602
 3435TP3     H122124   2.552   2.684   2.143  2.0567 -0.0864  0.1682
 3435TP3     H222125   2.424   2.714   2.218  0.4533  1.2673 -2.9079
 3436TP3      O22126   2.116   0.357   7.704 -0.1030 -0.4023 -0.1362
 3436TP3     H122127   2.046   0.367   7.769 -0.9568  1.3746 -1.2558
 3436TP3     H222128   2.197   0.359   7.755 -0.7840  0.0391  0.9525
 3437TP3      O22129   1.645   3.358   8.198 -0.4571  0.2434 -0.3468
 3437TP3     H122130   1.591   3.319   8.267  0.4851  0.8820  0.7843
 3437TP3     H222131   1.720   3.299   8.190 -0.8127 -0.1070 -1.2097
 3438TP3      O22132   4.727   4.390   1.669 -0.0191  0.0774  0.4234
 3438TP3     H122133   4.635   4.409   1.651 -0.0744 -0.5376  0.0358
 3438TP3     H222134   4.757   4.464   1.721 -0.5838  0.5627  0.0684
 3439TP3      O22135   4.633   0.929   0.613  0.1680  0.5969 -0.6039
 3439TP3     H122136   4.556   0.945   0.559 -0.6823 -0.3789  0.2900
 3439TP3     H222137   4.679   0.857   0.569  0.4856  1.0500 -1.0295
 3440TP3      O22138   0.994   2.863   3.230  0.1320 -0.3066  0.3041
 3440TP3     H122139   0.964   2.805   3.160  0.5477 -0.5407  0.3152
 3440TP3     H222140   1.008   2.805   3.305 -0.5487 -0.0200  0.6563
 3441TP3      O22141   2.362   1.665   9.511  0.1419 -0.1483 -0.2193
 3441TP3     H122142   2.278   1.643   9.551 -0.6776  0.6485 -1.4237
 3441TP3     H222143   2.355   1.758   9.490  1.0951 -0.2086 -0.8780
 3442TP3      O22144   0.387   1.239   7.361 -0.6245  0.3236  0.4151
 3442TP3     H122145   0.400   1.323   7.405 -1.8593  1.6466 -1.5986
 3442TP3     H222146   0.461   1.231   7.301  0.1136 -0.6238  1.4167
 3443TP3      O22147   2.161   1.474   0.749  0.3239  0.8048 -0.1268
 3443TP3     H122148   2.163   1.568   0.736 -3.4676  1.0719  0.3246
 3443TP3     H222149   2.152   1.462   0.844  0.3918 -0.0017 -0.2086
 3444TP3      O22150   0.937   4.784   9.377  0.1343 -0.2695  0.5149
 3444TP3     H122151   1.020   4.802   9.331  0.2280 -0.0446  0.7716
 3444TP3     H222152   0.872   4.782   9.307 -0.2738  3.2216  0.6154
 3445TP3      O22153   5.029   2.678   9.284 -0.0031  0.0608  0.0249
 3445TP3     H122154   4.999   2.609   9.225  3.4840 -2.7990  1.2343
 3445TP3     H222155   4.997   2.651   9.370  0.5887  0.5019  0.3871
 3446TP3      O22156   2.085   2.081   1.710 -0.0618 -0.2818 -0.2965
 3446TP3     H122157   2.109   2.151   1.649 -1.1934  0.3747 -0.0035
 3446TP3     H222158   2.104   2.117   1.796 -4.2593  1.3267  0.1992
 3447TP3      O22159   5.275   2.839   9.444  0.4106 -0.1210  0.1762
 3447TP3     H122160   5.231   2.879   9.369  0.5956 -1.8778 -0.9091
 3447TP3     H222161   5.242   2.888   9.519 -1.2765  0.4098 -0.8460
 3448TP3      O22162   0.557   0.208   0.663 -0.2796  0.0048 -0.3123
 3448TP3     H122163   0.511   0.281   0.622  0.6000 -0.2707 -1.8759
 3448TP3     H222164   0.627   0.249   0.714 -1.3498  0.3510  0.9174
 3449TP3      O22165   1.583   4.974   9.285  0.8322  0.2069 -0.2737
 3449TP3     H122166   1.617   4.977   9.375 -4.5469 -2.0501  2.2712
 3449TP3     H222167   1.518   4.904   9.286 -1.2670  1.6292 -5.3074
 3450TP3      O22168   0.274   4.936   0.182  0.1666  0.5204 -0.1641
 3450TP3     H122169   0.222   4.933   0.262 -0.8286 -1.1787 -0.8291
 3450TP3     H222170   0.314   4.849   0.176  1.7563  1.2300 -0.5707
 3451TP3      O22171   0.763   4.213   8.263  0.9520 -0.1049  0.6362
 3451TP3     H122172   0.826   4.202   8.192 -2.2971  0.3401 -2.5954
 3451TP3     H222173   0.717   4.129   8.267  0.5627  0.1452  1.7512
 3452TP3      O22174   4.413   2.441   1.337 -0.1482  0.0421 -0.0756
 3452TP3     H122175   4.456   2.423   1.253 -0.0752 -2.1256  0.3573
 3452TP3     H222176   4.449   2.525   1.365  2.3052 -0.7064 -0.7100
 3453TP3      O22177   3.764   0.593   8.734 -0.5620 -0.1338  0.0429
 3453TP3     H122178   3.782   0.589   8.828  0.5909  1.4803 -0.0741
 3453TP3     H222179   3.669   0.597   8.727 -0.6139  2.6255  1.3277
 3454TP3      O22180   3.505   4.738   8.770 -0.2271  0.3981  0.0393
 3454TP3     H122181   3.465   4.824   8.763  0.1248  0.4958 -0.8937
 3454TP3     H222182   3.552   4.740   8.854 -0.2942  1.0750  0.0656
 3455TP3      O22183   4.735   2.975   4.228 -0.1097 -0.2290 -0.4588
 3455TP3     H122184   4.815   2.928   4.206  0.2789  0.1708  0.0730
 3455TP3     H222185   4.761   3.067   4.230 -0.8009 -0.0085 -1.2212
 3456TP3      O22186   2.317   4.095   8.091 -0.3560  0.3377  0.0556
 3456TP3     H122187   2.380   4.124   8.156 -1.1421  1.5069  0.3403
 3456TP3     H222188   2.252   4.046   8.141 -0.7106  0.8363  0.0956
 3457TP3      O22189   0.685   3.026   0.531 -0.4065 -0.0887  0.2887
 3457TP3     H122190   0.600   3.061   0.557 -0.5718  1.1314 -1.7046
 3457TP3     H222191   0.666   2.975   0.452  0.7540  0.5592 -0.4305
 3458TP3      O22192   2.245   2.395   7.808  0.7516  0.0951  0.6745
 3458TP3     H122193   2.157   2.384   7.845  0.5288 -0.4442  0.0108
 3458TP3     H222194   2.304   2.363   7.876  0.2969 -1.8813  0.2142
 3459TP3      O22195   0.867   1.222   2.580 -0.1363  0.1968  0.3319
 3459TP3     H122196   0.876   1.140   2.532  0.5447  1.4445 -1.7986
 3459TP3     H222197   0.790   1.209   2.636  1.3511 -2.6913  1.9085
 3460TP3      O22198   1.769   1.935   0.373 -0.1078  0.1573 -0.2586
 3460TP3     H122199   1.765   1.986   0.454 -1.2325 -1.2134  0.6011
 3460TP3     H222200   1.775   1.844   0.402  1.4941 -0.2629 -1.7441
 3461TP3      O22201   0.052   3.301   0.419  0.0617  0.0976  0.5916
 3461TP3     H122202   0.049   3.334   0.508 -0.7326  0.2843  0.4999
 3461TP3     H222203   0.136   3.332   0.385  0.5971 -0.3953  1.4220
 3462TP3      O22204   3.663   5.200   8.765  0.5646 -0.8886 -0.0835
 3462TP3     H122205   3.666   5.116   8.810  1.8496 -1.0368 -0.4130
 3462TP3     H222206   3.652   5.176   8.672  0.9567 -0.7029 -0.1803
 3463TP3      O22207   4.818   4.333   7.317  0.3739 -0.9416  0.5975
 3463TP3     H122208   4.782   4.399   7.376  0.7688  1.1285 -1.3242
 3463TP3     H222209   4.820   4.376   7.231  1.8396 -3.0370 -0.5171
 3464TP3      O22210   3.054   4.169   0.666  0.3045  0.1835  0.2789
 3464TP3     H122211   3.040   4.251   0.620  0.9546  0.1826  0.0713
 3464TP3     H222212   3.148   4.151   0.655  0.1242 -0.7022  0.1239
 3465TP3      O22213   4.518   4.932   9.162 -0.4035 -0.2789  0.3631
 3465TP3     H122214   4.489   5.015   9.200  0.6124 -0.7437  2.2706
 3465TP3     H222215   4.514   4.869   9.234  2.6820 -0.9526  0.0902
 3466TP3      O22216   4.999   3.275   2.259 -0.0031  0.1893 -0.3548
 3466TP3     H122217   5.091   3.297   2.242  0.5021 -2.5367 -1.6334
 3466TP3     H222218   5.003   3.192   2.307 -1.7973  0.2004 -0.1329
 3467TP3      O22219   3.769   0.616   0.762  0.0111 -0.0703 -0.0349
 3467TP3     H122220   3.687   0.643   0.802  1.2932  2.3543  1.2119
 3467TP3     H222221   3.830   0.605   0.836  1.2859  0.0428 -1.0206
 3468TP3      O22222   5.016   2.064   6.649 -0.0825 -0.2953 -0.0143
 3468TP3     H122223   4.996   2.136   6.709 -2.6531 -0.7375 -0.2301
 3468TP3     H222224   5.066   2.105   6.578  0.7617  0.7303  1.1394
 3469TP3      O22225   3.080   2.132   0.484  0.4667  0.2614  0.4207
 3469TP3     H122226   3.172   2.130   0.508  0.5716  2.6280  0.5029
 3469TP3     H222227   3.066   2.052   0.433  2.6394  0.0432  0.0838
 3470TP3      O22228   4.635   1.932   2.244 -0.2283 -0.5678  0.0868
 3470TP3     H122229   4.726   1.926   2.216 -1.1118 -0.8252 -3.0692
 3470TP3     H222230   4.603   1.842   2.241 -0.6599 -0.4638  1.0640
 3471TP3      O22231   0.846   4.722   8.313 -0.2661  0.2036 -0.0649
 3471TP3     H122232   0.820   4.779   8.385 -1.8137  2.5584 -2.3285
 3471TP3     H222233   0.787   4.647   8.319 -1.2337  0.9859  0.3979
 3472TP3      O22234   4.231   1.035   1.529  0.1787  0.8023  0.1028
 3472TP3     H122235   4.178   0.988   1.594  0.3895  0.9940  0.4163
 3472TP3     H222236   4.316   0.992   1.531  0.7136  1.8181  1.1438
 3473TP3      O22237   2.351   1.109   0.057 -0.1105 -0.2510 -0.2718
 3473TP3     H122238   2.302   1.034   0.025 -1.2980  0.1050  0.6778
 3473TP3     H222239   2.289   1.158   0.111  1.1129  0.5279  0.4799
 3474TP3      O22240   3.534   5.175   7.636  0.1835  0.9309  0.4136
 3474TP3     H122241   3.628   5.163   7.625  0.1886  0.5086  0.8934
 3474TP3     H222242   3.520   5.173   7.730 -0.5688 -1.1005  0.2914
 3475TP3      O22243   2.059   4.018   0.926  0.7004 -0.0225 -0.5821
 3475TP3     H122244   2.015   4.090   0.970  0.1840 -0.1654 -0.8542
 3475TP3     H222245   1.990   3.975   0.875  1.1334 -0.3068 -0.9421
 3476TP3      O22246   3.621   0.192   1.448  0.0125 -0.0510  0.2961
 3476TP3     H122247   3.689   0.131   1.422 -1.2765  0.0703 -4.2134
 3476TP3     H222248   3.660   0.278   1.436 -0.0391  0.0100  0.5707
 3477TP3      O22249   3.254   1.330   8.894  0.7236 -0.4024 -0.2318
 3477TP3     H122250   3.317   1.399   8.876  0.7450 -0.8500 -2.0257
 3477TP3     H222251   3.280   1.295   8.979  1.2717  1.1568  0.2695
 3478TP3      O22252   3.817   2.985   7.955  0.3639 -0.1158  0.6098
 3478TP3     H122253   3.816   2.891   7.975  1.2350 -0.0866  0.8515
 3478TP3     H222254   3.836   2.989   7.861  0.4144 -0.1775  0.6172
 3479TP3      O22255   3.953   0.814   8.541  0.6021 -0.1444 -0.7007
 3479TP3     H122256   3.893   0.837   8.612  0.9838  1.7905 -0.9456
 3479TP3     H222257   4.000   0.896   8.522  0.3687 -0.5186 -3.3186
 3480TP3      O22258   1.510   1.726   3.126  0.4181  0.0464 -0.3969
 3480TP3     H122259   1.474   1.804   3.169 -0.3764 -1.2777  1.4835
 3480TP3     H222260   1.558   1.681   3.196  1.0636 -1.0305 -1.5109
 3481TP3      O22261   2.148   1.428   9.959 -0.0949  0.7471  0.0779
 3481TP3     H122262   2.192   1.343   9.953 -1.5146 -0.1008  1.1324
 3481TP3     H222263   2.213   1.491   9.927  1.8288 -0.4458  1.4338
 3482TP3      O22264   4.160   2.755   3.132  0.0459 -0.6717  0.0057
 3482TP3     H122265   4.150   2.723   3.222  0.8344  0.4409  0.5071
 3482TP3     H222266   4.070   2.770   3.103 -0.2287 -1.2639  0.5154
 3483TP3      O22267   4.351   3.828   7.035  0.1213 -0.1754 -0.4497
 3483TP3     H122268   4.369   3.742   6.998  1.5081 -0.3616  0.5611
 3483TP3     H222269   4.317   3.810   7.123 -0.6563  0.2951 -0.6425
 3484TP3      O22270   2.230   0.267   0.314  0.1533  0.3700 -0.7207
 3484TP3     H122271   2.143   0.282   0.278 -0.8103  0.4112  1.4742
 3484TP3     H222272   2.269   0.354   0.322  0.3445  0.3663 -1.5366
 3485TP3      O22273   3.555   3.527   7.494  0.2004  0.3688 -0.1669
 3485TP3     H122274   3.635   3.537   7.443 -0.8704  1.7805 -1.7148
 3485TP3     H222275   3.527   3.437   7.477  2.6314 -1.0431  2.3966
 3486TP3      O22276   3.799   3.478   8.919 -0.1829  0.2796  0.0453
 3486TP3     H122277   3.825   3.537   8.990 -0.3403  1.0754 -0.5357
 3486TP3     H222278   3.838   3.394   8.942 -0.5189  0.4286  1.2429
 3487TP3      O22279   4.494   4.924   8.465 -0.8807 -0.4571  0.1935
 3487TP3     H122280   4.455   4.904   8.550 -0.5463 -1.3983  0.1407
 3487TP3     H222281   4.437   4.990   8.427 -0.9186  0.1285  1.2354
 3488TP3      O22282   3.390   0.568   2.451  0.4690 -0.4913 -0.1322
 3488TP3     H122283   3.313   0.518   2.422  0.0837  1.0480 -2.0254
 3488TP3     H222284   3.457   0.546   2.386  1.1526 -0.6652  0.6329
 3489TP3      O22285   4.502   0.713   1.246 -0.1522  0.2406 -0.0806
 3489TP3     H122286   4.487   0.640   1.186 -1.2540  1.5603 -1.4897
 3489TP3     H222287   4.421   0.719   1.297  0.4275 -0.2936  0.9272
 3490TP3      O22288   2.421   3.120   8.233 -0.3348  0.5393  0.3101
 3490TP3     H122289   2.391   3.035   8.266  0.5614 -1.3392 -3.2374
 3490TP3     H222290   2.517   3.115   8.240 -0.2777  1.2725  0.0867
 3491TP3      O22291   1.292   5.228   9.691  0.2970 -0.5670 -0.0504
 3491TP3     H122292   1.221   5.193   9.637  0.7026 -0.3824 -0.7124
 3491TP3     H222293   1.324   5.304   9.643  0.6694 -0.3993  0.4519
 3492TP3      O22294   2.884   1.943   1.825 -0.4325  0.3710 -0.0442
 3492TP3     H122295   2.907   1.884   1.754  1.8068  1.2144 -0.0928
 3492TP3     H222296   2.885   2.031   1.786 -0.8466  0.6994  0.6509
 3493TP3      O22297   0.524   3.213   9.341 -0.5029 -0.7347  0.2425
 3493TP3     H122298   0.490   3.271   9.274 -0.0564 -0.5358  0.1823
 3493TP3     H222299   0.532   3.268   9.419  1.6421 -0.2084 -0.2863
 3494TP3      O22300   3.627   4.145   1.943 -0.0954 -0.0948  0.3646
 3494TP3     H122301   3.565   4.074   1.955  2.1433 -2.3799 -0.5602
 3494TP3     H222302   3.627   4.161   1.848  2.2356 -1.7619 -0.0065
 3495TP3      O22303   4.561   1.096   3.565  0.0483 -0.3177 -0.2882
 3495TP3     H122304   4.657   1.090   3.568  0.0092 -0.6569  0.3476
 3495TP3     H222305   4.544   1.163   3.499  0.7872  1.1977  0.9761
 3496TP3      O22306   4.000   4.953   8.153  0.1535  0.3214 -0.1982
 3496TP3     H122307   4.060   4.969   8.080 -1.3155 -0.6604 -1.7112
 3496TP3     H222308   4.016   4.862   8.177  0.2758  0.4917  0.3702
 3497TP3      O22309   3.525   1.258   0.003  0.4658 -0.2535 -0.0098
 3497TP3     H122310   3.594   1.218   0.057  0.2731 -0.4919  0.0573
 3497TP3     H222311   3.464   1.187  -0.015  0.0978  0.0175  0.1472
 3498TP3      O22312   0.126   5.168   8.830  0.2086  0.3016  0.2428
 3498TP3     H122313   0.176   5.086   8.839  1.0896  0.8926  0.8312
 3498TP3     H222314   0.045   5.141   8.786  1.0288 -0.6834 -0.7534
 3499TP3      O22315   5.032   1.319   0.588 -0.3344 -0.0344  0.5571
 3499TP3     H122316   5.001   1.242   0.541  0.5104 -0.3801  0.5438
 3499TP3     H222317   5.042   1.386   0.520  1.1619 -0.6205  0.1589
 3500TP3      O22318   1.428   0.885   9.853  0.8020  0.1425  0.5906
 3500TP3     H122319   1.494   0.915   9.916  2.8142 -0.2184 -1.2518
 3500TP3     H222320   1.467   0.809   9.811 -0.7697 -0.0460 -0.6242
 3501TP3      O22321   4.256   0.123   8.438 -0.1443  0.4227 -0.2910
 3501TP3     H122322   4.224   0.169   8.515 -1.1411  2.6388 -1.9221
 3501TP3     H222323   4.187   0.135   8.373  0.3163 -2.0174 -1.3509
 3502TP3      O22324   1.442   5.148   9.117  0.0308  0.1412  0.0246
 3502TP3     H122325   1.364   5.124   9.067  1.8735 -1.8043 -2.1663
 3502TP3     H222326   1.463   5.070   9.168  1.2468  0.1511 -0.4263
 3503TP3      O22327   3.928   0.391   9.385  0.0856 -0.0246 -0.1493
 3503TP3     H122328   3.994   0.321   9.377  0.5056  0.2472  0.8135
 3503TP3     H222329   3.854   0.359   9.333  0.5714 -0.8169 -0.3890
 3504TP3      O22330   2.893   4.381   8.310  0.1232 -0.8658  0.1128
 3504TP3     H122331   2.822   4.333   8.266  0.0065 -1.5260  0.9817
 3504TP3     H222332   2.849   4.429   8.380  0.4432 -0.7490  0.2332
 3505TP3      O22333   5.287   2.941   0.137 -0.0023 -0.7330 -0.6486
 3505TP3     H122334   5.291   2.958   0.043  1.1706  0.4445 -0.4215
 3505TP3     H222335   5.239   3.015   0.174  0.1183 -0.8433 -0.2569
 3506TP3      O22336   0.432   4.828   1.963 -0.0570 -0.1119  0.4737
 3506TP3     H122337   0.510   4.786   2.000 -0.5460 -1.3444  0.1698
 3506TP3     H222338   0.374   4.755   1.941 -1.0916  0.7590  0.2260
 3507TP3      O22339   1.243   1.152   1.558  0.3727 -0.2251  0.8602
 3507TP3     H122340   1.318   1.162   1.499  0.9255  0.9287  1.7096
 3507TP3     H222341   1.167   1.153   1.500  0.9971 -1.7834 -0.0512
 3508TP3      O22342   0.298   3.642   8.407  0.0895  0.3038  0.4230
 3508TP3     H122343   0.324   3.553   8.431  2.1631  0.7699  0.1462
 3508TP3     H222344   0.341   3.657   8.322  0.2827  1.7524  0.7496
 3509TP3      O22345   0.345   0.079   7.507 -0.3873  0.2939  0.0688
 3509TP3     H122346   0.367   0.172   7.513 -2.3753  0.7752  0.5264
 3509TP3     H222347   0.318   0.067   7.416  2.3716 -0.4918 -0.7330
 3510TP3      O22348   3.598   3.331   7.178  0.5089 -0.1616  0.7408
 3510TP3     H122349   3.556   3.411   7.147  0.6335 -1.2702 -2.6755
 3510TP3     H222350   3.689   3.357   7.194  0.1017  0.7707  1.6550
 3511TP3      O22351   0.150   4.011   3.505  0.6361 -0.3764 -0.0826
 3511TP3     H122352   0.226   4.046   3.552  2.4848 -0.8060 -2.5499
 3511TP3     H222353   0.102   4.088   3.476  1.1927 -0.0367 -0.1151
 3512TP3      O22354   5.164   0.788  10.087 -0.5498  0.2203 -0.7209
 3512TP3     H122355   5.259   0.785  10.082 -0.3629 -0.0803  2.0250
 3512TP3     H222356   5.136   0.700  10.063 -0.0953  0.0814 -0.7543
 3513TP3      O22357   2.264   2.531   9.754 -0.0329 -0.3351 -0.3108
 3513TP3     H122358   2.269   2.463   9.822 -1.6869 -1.0067 -0.8174
 3513TP3     H222359   2.272   2.483   9.672  1.3133  0.4038 -0.6439
 3514TP3      O22360   1.087   3.950   7.980 -0.1737 -0.0563  0.6996
 3514TP3     H122361   1.147   4.021   7.958  1.7940 -1.7983  0.0765
 3514TP3     H222362   1.046   3.926   7.897  1.3345 -1.4564  0.2986
 3515TP3      O22363   4.094   4.466   7.891 -0.3982  0.7033 -0.1019
 3515TP3     H122364   4.045   4.387   7.866  1.1950 -0.4604  0.2549
 3515TP3     H222365   4.152   4.436   7.962  0.3765  2.1571 -0.0963
 3516TP3      O22366   1.085   0.788   7.070  0.0402 -0.4802  0.3477
 3516TP3     H122367   1.012   0.768   7.128 -1.0135 -0.9694 -1.0812
 3516TP3     H222368   1.111   0.703   7.034  0.9689 -0.2413  0.4168
 3517TP3      O22369   1.142   2.289   0.314 -0.0478  0.6537 -0.3914
 3517TP3     H122370   1.098   2.334   0.242 -0.7670 -0.5484 -0.7114
 3517TP3     H222371   1.079   2.225   0.346  0.8219  0.1219  0.3188
 3518TP3      O22372   1.013   2.983   0.039 -0.0676  0.7297 -0.2308
 3518TP3     H122373   1.096   3.019   0.008  0.6686 -0.2620  0.5385
 3518TP3     H222374   0.990   2.916  -0.025  0.0513  0.5809 -0.1205
 3519TP3      O22375   2.040   2.475   1.095 -0.4108 -0.6022 -0.2027
 3519TP3     H122376   2.033   2.385   1.062  0.5440 -0.6770 -0.2233
 3519TP3     H222377   1.959   2.487   1.146 -1.5218 -0.7523 -1.8688
 3520TP3      O22378   3.140   2.190   7.083 -0.0429  0.1417  0.0573
 3520TP3     H122379   3.188   2.223   7.007  0.8430 -1.3887 -0.0965
 3520TP3     H222380   3.209   2.159   7.143 -0.6933  1.9204  1.8121
 3521TP3      O22381   4.980   1.305   7.304 -0.5718 -0.2002  0.2567
 3521TP3     H122382   5.040   1.373   7.335 -0.3305 -0.9498  1.5198
 3521TP3     H222383   5.024   1.223   7.326 -0.4127 -0.8119 -2.0878
 3522TP3      O22384   4.103   1.237   2.168 -0.7790 -0.3070 -0.6649
 3522TP3     H122385   4.156   1.292   2.110  0.5522 -0.3271  0.4981
 3522TP3     H222386   4.016   1.237   2.127 -0.7966  2.4932 -0.8324
 3523TP3      O22387   1.568   3.366   3.324 -0.6523  0.0701  0.7395
 3523TP3     H122388   1.648   3.323   3.294 -1.1820  1.6671 -3.8820
 3523TP3     H222389   1.598   3.449   3.362  0.0006 -1.4102  3.6895
 3524TP3      O22390   0.832   0.889   8.890  0.0117 -0.0148  0.8938
 3524TP3     H122391   0.775   0.943   8.945  2.3328  0.4960  2.9186
 3524TP3     H222392   0.914   0.883   8.938  0.8015 -3.0489 -0.6061
 3525TP3      O22393   0.714   3.906   8.359 -0.4985 -0.0378 -0.3254
 3525TP3     H122394   0.789   3.923   8.303  0.4402  1.0214  1.1720
 3525TP3     H222395   0.749   3.908   8.448 -2.5043  2.1675  0.5476
 3526TP3      O22396   1.149   5.218   2.546 -0.5241  0.5441 -0.3951
 3526TP3     H122397   1.199   5.299   2.552  1.6892 -0.7707  0.1268
 3526TP3     H222398   1.192   5.158   2.607 -2.0706 -1.0502 -0.7742
 3527TP3      O22399   3.690   3.504   7.760 -0.2875 -0.1197 -0.3512
 3527TP3     H122400   3.646   3.586   7.779 -1.3376 -1.0007  1.2652
 3527TP3     H222401   3.692   3.499   7.665 -2.2726  0.7039 -0.4758
 3528TP3      O22402   0.104   1.434   0.950 -0.1932  0.1582  0.2921
 3528TP3     H122403   0.066   1.389   1.025  1.4734 -1.6622  0.1109
 3528TP3     H222404   0.077   1.383   0.874  2.5643 -1.2808  0.1696
 3529TP3      O22405   3.079   1.558   9.188  0.0637  0.7743 -0.0382
 3529TP3     H122406   3.040   1.470   9.190 -0.6776  1.0784  2.5838
 3529TP3     H222407   3.096   1.574   9.095 -0.2553 -1.9182 -0.6585
 3530TP3      O22408   3.217   5.053   9.116 -0.0861  0.6209 -0.2358
 3530TP3     H122409   3.200   4.997   9.040 -0.2737  1.5007 -0.8638
 3530TP3     H222410   3.282   5.116   9.085  0.8223  0.1865  0.7389
 3531TP3      O22411   3.420   2.475   9.481 -0.4176  0.8269  0.8329
 3531TP3     H122412   3.342   2.449   9.431  0.8251 -1.3736 -0.1135
 3531TP3     H222413   3.455   2.550   9.433 -2.0484  2.0307  1.4363
 3532TP3      O22414   1.110   4.980   6.730 -0.3747  0.5580 -0.7683
 3532TP3     H122415   1.082   5.040   6.800 -1.1058  1.4353 -1.7877
 3532TP3     H222416   1.099   5.030   6.649  0.2055 -0.5330 -1.5509
 3533TP3      O22417   0.367   2.929   1.079 -0.2984  0.1978  0.8274
 3533TP3     H122418   0.372   2.861   1.012  3.8564  0.8618  0.1951
 3533TP3     H222419   0.398   2.887   1.159  1.1450  0.9632  0.7069
 3534TP3      O22420   4.411   4.666   6.181  0.5987 -0.1358  0.0343
 3534TP3     H122421   4.424   4.665   6.276 -0.7837 -0.2394  0.2542
 3534TP3     H222422   4.345   4.598   6.166 -0.6010  1.1465 -0.7522
 3535TP3      O22423   2.503   4.789   1.409  0.0541  0.0284  0.0402
 3535TP3     H122424   2.436   4.850   1.378  0.6313  0.2715 -0.7779
 3535TP3     H222425   2.456   4.728   1.466 -0.9385 -0.0677 -0.8447
 3536TP3      O22426   1.698   1.190   9.448 -0.4440  0.1779  0.3741
 3536TP3     H122427   1.724   1.252   9.380  0.1014 -0.6293 -0.1797
 3536TP3     H222428   1.734   1.227   9.529  0.0011  0.5115  0.0314
 3537TP3      O22429   0.575   0.901   1.870  0.5957  0.3642  0.1710
 3537TP3     H122430   0.489   0.859   1.860  1.5060 -1.6382  0.1262
 3537TP3     H222431   0.580   0.924   1.963  1.3777 -3.0139  1.1346
 3538TP3      O22432   5.070   3.784   0.195  0.0242  0.4974  0.2455
 3538TP3     H122433   5.130   3.719   0.229 -0.0513  0.2109 -0.1558
 3538TP3     H222434   5.106   3.868   0.224  0.3538  0.3024  0.4043
 3539TP3      O22435   5.092   2.237   1.661 -0.0092 -0.0320 -0.7376
 3539TP3     H122436   5.065   2.167   1.602 -0.3331  0.2802 -0.9597
 3539TP3     H222437   5.109   2.193   1.744 -1.7402 -0.1743 -0.4176
 3540TP3      O22438   0.591   1.958   2.615 -0.5967  0.2734 -0.3316
 3540TP3     H122439   0.609   1.973   2.522 -0.3825 -0.0344 -0.3408
 3540TP3     H222440   0.601   1.864   2.627 -1.6343  0.1674 -0.2073
 3541TP3      O22441   2.689   2.642   8.249  0.8766  1.0741 -0.0159
 3541TP3     H122442   2.781   2.648   8.277  0.8221  0.3277  0.3696
 3541TP3     H222443   2.672   2.724   8.204  1.3447  1.7876  1.0738
 3542TP3      O22444   4.107   5.031   8.829  0.3229 -0.2247  0.0935
 3542TP3     H122445   4.133   5.047   8.920  2.1120  0.4432 -0.4871
 3542TP3     H222446   4.130   4.939   8.814  0.6600 -0.1486  0.1292
 3543TP3      O22447   2.798   2.865   7.848  0.0977 -0.4295 -0.7346
 3543TP3     H122448   2.859   2.794   7.826  0.3504  0.5155 -3.4880
 3543TP3     H222449   2.838   2.908   7.924  1.6251 -1.2705 -1.0085
 3544TP3      O22450   2.504   0.996   2.463 -0.6048  0.5443  0.8028
 3544TP3     H122451   2.493   1.090   2.447 -1.8277  0.3448  0.3153
 3544TP3     H222452   2.537   0.990   2.553  1.7116  1.5023  0.0857
 3545TP3      O22453   5.038   2.747   8.969  0.1025 -0.1879  0.1936
 3545TP3     H122454   5.042   2.799   9.049 -0.4575  0.4569 -0.1889
 3545TP3     H222455   4.959   2.777   8.925  0.0711 -0.9802 -0.3046
 3546TP3      O22456   1.638   1.797   2.607  0.1230 -0.0236 -0.2678
 3546TP3     H122457   1.584   1.868   2.641  1.1392  0.3145  0.6893
 3546TP3     H222458   1.706   1.840   2.556  1.1141 -0.2558  0.8388
 3547TP3      O22459   2.150   0.817   2.646  0.3500  0.0507 -0.6401
 3547TP3     H122460   2.146   0.766   2.727 -1.5186 -0.9398 -1.2994
 3547TP3     H222461   2.159   0.908   2.675 -1.3487 -0.1668  0.7456
 3548TP3      O22462   2.177   0.088   2.332 -0.8084 -0.1517  0.0259
 3548TP3     H122463   2.231   0.051   2.262 -0.5685  0.4779 -0.1310
 3548TP3     H222464   2.102   0.126   2.286 -1.3073 -0.8643  0.2280
 3549TP3      O22465   0.546   4.890   1.372  0.1364  0.2820  0.4005
 3549TP3     H122466   0.488   4.822   1.337  1.7314 -0.8420 -0.1788
 3549TP3     H222467   0.537   4.963   1.310 -0.5034  0.0467  0.2052
 3550TP3      O22468   4.767   4.155   0.539 -0.2189 -0.8162  0.2036
 3550TP3     H122469   4.715   4.107   0.474  2.0003 -1.1713 -1.4405
 3550TP3     H222470   4.808   4.086   0.592 -0.2713 -0.5949  0.5338
 3551TP3      O22471   4.832   3.271   7.434 -0.2394 -0.3908 -0.0119
 3551TP3     H122472   4.875   3.196   7.474  0.9396  0.6039  0.6606
 3551TP3     H222473   4.898   3.307   7.374 -0.9442 -0.1398 -0.6623
 3552TP3      O22474   1.712   1.250   9.788 -0.0692  0.6359  0.3392
 3552TP3     H122475   1.794   1.298   9.801 -0.8578  1.9477  0.7255
 3552TP3     H222476   1.738   1.159   9.780  1.3743  0.9564  1.0654
 3553TP3      O22477   1.798   3.564   9.562  0.0114 -0.2444  0.2991
 3553TP3     H122478   1.745   3.596   9.488  1.7084 -2.5025 -2.0727
 3553TP3     H222479   1.881   3.611   9.554 -0.7394  1.7534  2.7645
 3554TP3      O22480   2.214   1.414   2.119 -0.1530  0.3606 -0.1934
 3554TP3     H122481   2.144   1.368   2.165  1.1236 -0.1192  1.3398
 3554TP3     H222482   2.234   1.489   2.174  1.7352 -0.4856  0.3353
 3555TP3      O22483   4.499   2.976   3.530  0.5038  0.9686  0.0079
 3555TP3     H122484   4.543   3.060   3.543 -0.2212  1.4666 -0.6465
 3555TP3     H222485   4.570   2.913   3.515  1.1189  1.2189  1.6665
 3556TP3      O22486   3.285   5.263   3.400 -0.1596 -0.2832 -0.1087
 3556TP3     H122487   3.236   5.345   3.389 -0.2519 -0.4129 -0.7120
 3556TP3     H222488   3.359   5.272   3.340  0.5740 -0.0816  0.8061
 3557TP3      O22489   0.243   3.270   8.985  0.6180 -1.1271 -0.0526
 3557TP3     H122490   0.156   3.255   8.946 -1.0552  0.0465  2.8998
 3557TP3     H222491   0.248   3.205   9.056  1.2321  0.1644  1.1189
 3558TP3      O22492   4.800   2.804   2.560  0.3075  0.0608 -0.1272
 3558TP3     H122493   4.746   2.883   2.561 -0.1796 -0.2749  0.5457
 3558TP3     H222494   4.784   2.763   2.644  0.2305 -0.9829 -0.6378
 3559TP3      O22495   2.053   0.926   7.835 -0.2160  0.9521 -0.1957
 3559TP3     H122496   2.029   0.850   7.888 -0.1922  1.0622 -0.0275
 3559TP3     H222497   2.144   0.944   7.858  0.0105  0.5815 -0.7769
 3560TP3      O22498   4.917   4.954   9.316  0.0903 -0.2938  0.2023
 3560TP3     H122499   4.949   5.027   9.264  1.4525 -0.4007  0.8647
 3560TP3     H222500   4.967   4.879   9.285  1.1581 -0.3053  1.8679
 3561TP3      O22501   1.650   3.827   0.975 -0.0445  0.6142 -0.0436
 3561TP3     H122502   1.601   3.757   0.931 -0.2791  0.1090  0.9849
 3561TP3     H222503   1.715   3.855   0.911  0.3976 -0.9186 -0.3110
 3562TP3      O22504   3.109   0.265   2.284 -0.3204  0.1800 -0.2957
 3562TP3     H122505   3.032   0.208   2.278 -2.0927  2.2268  1.0648
 3562TP3     H222506   3.121   0.299   2.196 -0.4300 -0.8113 -0.7019
 3563TP3      O22507   1.737   4.479   6.730  0.4403 -0.4010  0.3460
 3563TP3     H122508   1.745   4.391   6.766  1.6122  0.0315  1.1953
 3563TP3     H222509   1.703   4.466   6.642  0.3145 -1.6746  0.5684
 3564TP3      O22510   1.400   4.461   2.519  0.2818 -0.0758  0.4748
 3564TP3     H122511   1.362   4.529   2.575  0.1650  0.1403  0.1347
 3564TP3     H222512   1.471   4.505   2.473  0.0482 -0.1252  0.0719
 3565TP3      O22513   3.011   1.435   0.801 -0.1060  0.2187  0.5606
 3565TP3     H122514   3.036   1.345   0.820 -3.5196 -0.6320  1.5825
 3565TP3     H222515   3.014   1.441   0.706 -0.5605 -1.2351  0.4333
 3566TP3      O22516   2.688   4.725   7.323 -0.0450 -0.1721  0.3374
 3566TP3     H122517   2.726   4.809   7.349  1.1912  0.3575 -2.7240
 3566TP3     H222518   2.738   4.660   7.372  0.5141  0.7853  1.0654
 3567TP3      O22519   2.825   3.047   1.576  0.1317 -0.6016 -0.5726
 3567TP3     H122520   2.920   3.042   1.566  0.3252 -1.2599  1.2524
 3567TP3     H222521   2.794   3.086   1.494  2.1276  1.4580 -0.4312
 3568TP3      O22522   1.465   1.336   9.816  0.0914  0.7049 -0.1454
 3568TP3     H122523   1.413   1.265   9.779 -0.8849  0.5655  1.4004
 3568TP3     H222524   1.556   1.310   9.803 -0.1958  0.6136 -2.2708
 3569TP3      O22525   2.414   4.036   2.305 -0.4098 -0.1993 -1.0705
 3569TP3     H122526   2.487   4.065   2.360 -0.9200  0.4724 -0.7377
 3569TP3     H222527   2.431   3.943   2.290  0.6737  0.0126 -1.2500
 3570TP3      O22528   1.925   4.976   0.972  0.0834 -0.1389  0.0111
 3570TP3     H122529   1.875   4.941   0.898 -0.3364  0.9865 -0.2563
 3570TP3     H222530   2.001   5.019   0.931  0.7061 -0.9030  0.3462
 3571TP3      O22531   4.826   1.602   2.685  0.1893 -0.6538 -0.2226
 3571TP3     H122532   4.766   1.552   2.740  1.3487 -0.9274  0.8431
 3571TP3     H222533   4.771   1.635   2.613 -1.0436 -1.5827  0.2537
 3572TP3      O22534   0.340   1.798   8.415 -0.4347 -0.4782  0.2925
 3572TP3     H122535   0.293   1.799   8.332 -2.0934 -1.9048  1.1482
 3572TP3     H222536   0.339   1.706   8.442 -0.2868  0.0040  2.0785
 3573TP3      O22537   3.612   4.774   0.670 -0.0681 -0.1106  0.5857
 3573TP3     H122538   3.707   4.784   0.675 -0.1692  0.5024  1.5550
 3573TP3     H222539   3.580   4.813   0.752 -1.1189 -0.7109  0.4694
 3574TP3      O22540   3.725   0.839   9.034 -0.1579 -0.4169  0.2424
 3574TP3     H122541   3.743   0.745   9.023 -0.0402 -0.5898  1.7085
 3574TP3     H222542   3.775   0.864   9.112 -0.4883  0.7818  0.0920
 3575TP3      O22543   3.065   4.469   9.821 -0.2478 -0.1596 -0.6172
 3575TP3     H122544   3.020   4.554   9.825 -0.0962 -0.1228  1.2119
 3575TP3     H222545   3.158   4.492   9.815 -0.2874 -0.2237 -1.6247
 3576TP3      O22546   4.719   1.380   8.334  0.2797 -0.0608  0.0712
 3576TP3     H122547   4.776   1.312   8.371 -3.1805 -2.7546  0.9060
 3576TP3     H222548   4.674   1.417   8.410 -0.3111  0.8521 -0.7090
 3577TP3      O22549   1.538   1.490   2.272 -0.4022 -0.3208  0.1621
 3577TP3     H122550   1.536   1.545   2.350  2.4335  0.6278 -0.3090
 3577TP3     H222551   1.446   1.479   2.248 -1.1966  3.4280  0.8494
 3578TP3      O22552   3.057   5.122   1.522 -0.7972  0.0465 -0.6156
 3578TP3     H122553   3.067   5.215   1.500 -0.7755 -0.0580 -1.0643
 3578TP3     H222554   3.086   5.076   1.443 -1.5376 -0.3317 -0.6775
 3579TP3      O22555   1.116   3.192   2.998  0.2102 -0.0779  0.4945
 3579TP3     H122556   1.193   3.136   2.984 -0.4781 -1.0240  0.3743
 3579TP3     H222557   1.130   3.230   3.085  1.1707  0.3510  0.1575
 3580TP3      O22558   0.057   4.591   1.046 -0.2077 -0.3041 -0.0941
 3580TP3     H122559   0.000   4.647   1.101 -0.3327 -1.3080  0.8301
 3580TP3     H222560   0.028   4.502   1.066 -0.1195 -0.7040 -1.6800
 3581TP3      O22561   1.624   2.599   7.760 -0.2369 -0.2980  0.0937
 3581TP3     H122562   1.694   2.614   7.824 -0.2327  0.3457 -0.0536
 3581TP3     H222563   1.571   2.679   7.764 -0.4290 -0.3965 -0.4625
 3582TP3      O22564   0.361   2.379   2.582 -0.2248  0.2866  0.3260
 3582TP3     H122565   0.445   2.337   2.603 -0.0629  1.2084  1.6436
 3582TP3     H222566   0.384   2.469   2.561 -0.8898  0.5547  0.7356
 3583TP3      O22567   0.143   0.751   0.391 -0.3271  0.4222  0.2086
 3583TP3     H122568   0.132   0.835   0.437 -1.3322 -0.4253  1.5927
 3583TP3     H222569   0.073   0.750   0.326 -0.6535  0.4164  0.5594
 3584TP3      O22570   3.331   4.534   9.902 -0.5892 -0.4291 -0.3422
 3584TP3     H122571   3.421   4.503   9.892  0.0387  1.3647 -0.7245
 3584TP3     H222572   3.333   4.590   9.980 -0.8123  1.3611 -1.5625
 3585TP3      O22573   0.882   3.492   9.354  0.5840 -0.4493 -0.3435
 3585TP3     H122574   0.973   3.465   9.350 -0.0590 -2.9362  0.0006
 3585TP3     H222575   0.844   3.462   9.271  0.1723  1.0113 -0.7035
 3586TP3      O22576   3.739   2.385   3.304  0.2123 -0.3798  0.2571
 3586TP3     H122577   3.677   2.457   3.308 -0.4827 -0.8993 -0.7449
 3586TP3     H222578   3.763   2.369   3.395  0.7933  1.4364  0.4720
 3587TP3      O22579   3.663   5.131   6.738  0.5686  0.5849  0.3782
 3587TP3     H122580   3.579   5.109   6.698  1.0525  1.9180 -1.5423
 3587TP3     H222581   3.663   5.085   6.822 -1.7203 -0.0922  0.0753
 3588TP3      O22582   3.786   4.225   8.101  0.0622  0.0717 -0.0408
 3588TP3     H122583   3.782   4.162   8.174 -1.1596 -2.0334 -1.7953
 3588TP3     H222584   3.818   4.306   8.141  0.3413 -1.2459  2.6340
 3589TP3      O22585   2.915   2.210   3.003  0.6729  0.2232 -0.3572
 3589TP3     H122586   2.938   2.128   2.960  1.1013 -0.1529  0.5538
 3589TP3     H222587   2.889   2.184   3.091  2.7687  1.2199  0.6415
 3590TP3      O22588   1.435   2.542   0.430  0.3578 -0.2299  0.0500
 3590TP3     H122589   1.495   2.520   0.360  0.3768  0.7987 -0.2710
 3590TP3     H222590   1.350   2.550   0.387  0.4010  0.5863  0.0890
 3591TP3      O22591   4.854   1.043   7.012 -0.0422 -0.0156 -0.2778
 3591TP3     H122592   4.828   0.956   6.981 -0.0989 -0.3903  0.7826
 3591TP3     H222593   4.919   1.026   7.080  0.2868  0.7978 -0.3696
 3592TP3      O22594   2.672   2.515   7.373  0.2160 -0.6963  0.5678
 3592TP3     H122595   2.648   2.479   7.459 -1.6947  1.0578  0.8266
 3592TP3     H222596   2.626   2.459   7.310 -0.8136 -0.1806  0.8501
 3593TP3      O22597   1.130   4.362   7.113 -0.2377 -0.8175 -0.5510
 3593TP3     H122598   1.039   4.392   7.111 -0.2986 -1.0009 -0.5832
 3593TP3     H222599   1.173   4.418   7.178 -1.0330 -2.5444  1.6331
 3594TP3      O22600   4.023   3.962   7.298 -0.0757  0.2807  0.1717
 3594TP3     H122601   4.101   3.926   7.339  1.1101  0.2677 -1.9996
 3594TP3     H222602   3.983   4.016   7.367 -0.1172 -2.4064  2.4475
 3595TP3      O22603   1.899   1.595   8.037  0.2184 -1.1536  0.0281
 3595TP3     H122604   1.972   1.539   8.064  0.7918 -0.3211  0.2366
 3595TP3     H222605   1.821   1.545   8.062  0.6904 -2.2579 -0.6004
 3596TP3      O22606   2.177   0.053   0.982 -0.8295  0.1649 -0.2054
 3596TP3     H122607   2.125   0.102   0.918 -0.6975  1.5758  0.7236
 3596TP3     H222608   2.268   0.068   0.955 -0.8229 -1.2087 -1.0495
 3597TP3      O22609   4.840   4.617   1.773  0.2529 -0.0622  0.1745
 3597TP3     H122610   4.898   4.642   1.846  1.3990  0.3235 -0.8341
 3597TP3     H222611   4.811   4.701   1.736  4.1048  0.1111 -3.2186
 3598TP3      O22612   0.121   3.408   2.866  0.1845 -0.5583  0.0475
 3598TP3     H122613   0.052   3.458   2.910  1.7045  1.3396  0.4338
 3598TP3     H222614   0.177   3.378   2.937  1.2813  0.3740 -0.3930
 3599TP3      O22615   4.412   1.413   1.478 -0.3080 -0.1859 -0.1760
 3599TP3     H122616   4.508   1.405   1.475 -0.2005  0.3420  1.0450
 3599TP3     H222617   4.380   1.325   1.461  0.3669 -0.2147 -1.3914
 3600TP3      O22618   0.932   3.868   7.734  0.0807 -0.1293  0.0884
 3600TP3     H122619   0.917   3.961   7.720  1.0164 -0.0640 -0.5414
 3600TP3     H222620   0.993   3.842   7.664 -0.0408 -1.1725  0.3482
 3601TP3      O22621   3.445   0.457   1.455  0.5045  0.4119 -0.4833
 3601TP3     H122622   3.445   0.364   1.476  1.2619  0.5933  0.3831
 3601TP3     H222623   3.442   0.501   1.540 -0.6190  1.1886 -0.8988
 3602TP3      O22624   2.859   2.378   1.005 -0.2721  0.0641  0.1457
 3602TP3     H122625   2.911   2.454   1.033 -1.5367  0.9676  0.1678
 3602TP3     H222626   2.922   2.306   1.001  1.1881  1.3331 -0.9112
 3603TP3      O22627   1.230   4.003   6.796 -0.0774  0.6280  0.2895
 3603TP3     H122628   1.237   3.913   6.829 -2.6776  0.5774  0.9174
 3603TP3     H222629   1.235   4.058   6.874 -0.5242  0.8905  0.1346
 3604TP3      O22630   1.989   4.201   1.294  0.7217  0.0233 -0.6079
 3604TP3     H122631   1.944   4.125   1.256 -1.2606  1.5664 -1.5429
 3604TP3     H222632   1.940   4.276   1.261  1.8631  1.6806  1.2717
 3605TP3      O22633   3.093   4.931   2.009  0.2096 -0.6678  0.1570
 3605TP3     H122634   3.123   4.934   1.919  3.0662 -1.1213  0.9896
 3605TP3     H222635   3.126   5.012   2.048 -2.3629  0.3085  0.4822
 3606TP3      O22636   0.564   1.948   8.538 -0.2460 -0.0207  0.1941
 3606TP3     H122637   0.637   1.950   8.477  1.2536  2.7002  1.8580
 3606TP3     H222638   0.499   1.891   8.496  1.0350  0.8989 -3.4265
 3607TP3      O22639   2.074   3.810   9.697  0.3694 -0.3114 -0.0708
 3607TP3     H122640   2.118   3.728   9.720  0.8589 -0.3436 -1.0495
 3607TP3     H222641   2.145   3.872   9.684 -0.0124  0.4149  1.0972
 3608TP3      O22642   1.638   4.428   7.693 -0.2228 -0.3458  0.3784
 3608TP3     H122643   1.687   4.431   7.775 -1.3046 -0.9442  1.0662
 3608TP3     H222644   1.548   4.408   7.719 -0.7662  0.3142 -0.8829
 3609TP3      O22645   3.122   0.466   2.461  0.1283 -0.2665  0.3240
 3609TP3     H122646   3.122   0.397   2.394 -0.9165  0.2580 -0.2313
 3609TP3     H222647   3.061   0.435   2.528 -1.5994  0.7906 -0.6821
 3610TP3      O22648   3.237   5.027  10.112 -0.2261  0.2235 -0.1901
 3610TP3     H122649   3.258   4.984  10.195 -1.4497  0.8096  0.4346
 3610TP3     H222650   3.274   5.115  10.121 -0.8437  0.4693 -0.0412
 3611TP3      O22651   2.793   5.160   8.815 -0.0895  0.5086  0.2458
 3611TP3     H122652   2.820   5.139   8.905  1.1770 -1.6368 -0.5572
 3611TP3     H222653   2.832   5.091   8.762  0.1388  2.3426 -2.1289
 3612TP3      O22654   1.606   1.059   0.989 -0.3860 -0.1289 -0.1010
 3612TP3     H122655   1.572   1.025   1.072 -0.8570  0.1569 -0.1756
 3612TP3     H222656   1.700   1.069   1.004 -0.7715  2.1500  1.2046
 3613TP3      O22657   0.970   4.638   1.430 -0.4938 -0.0271  0.3133
 3613TP3     H122658   0.897   4.631   1.367 -0.5490 -1.3281  0.4847
 3613TP3     H222659   0.993   4.731   1.430  0.1359 -0.1036 -2.3676
 3614TP3      O22660   5.170   0.042   8.722 -0.1038  0.6177 -0.6537
 3614TP3     H122661   5.089   0.083   8.690 -0.1527  0.0787 -1.2520
 3614TP3     H222662   5.151  -0.052   8.720  0.1031  0.5437  0.4382
 3615TP3      O22663   0.621   4.117   9.185  0.1073  0.1265 -0.5250
 3615TP3     H122664   0.715   4.114   9.170  0.2263 -0.7141  0.2752
 3615TP3     H222665   0.608   4.071   9.268 -0.7463  2.4208  0.7152
 3616TP3      O22666   2.882   2.921   8.418  0.0679  0.4261 -0.2233
 3616TP3     H122667   2.928   2.850   8.462  0.2747 -0.7471 -2.2089
 3616TP3     H222668   2.947   2.991   8.411  0.9107 -0.4048 -1.0577
 3617TP3      O22669   0.963   2.309   8.865  0.0744  0.5852  0.1353
 3617TP3     H122670   1.052   2.315   8.830  0.1383 -0.6336  0.0709
 3617TP3     H222671   0.909   2.291   8.789 -0.1840  0.8823  0.2446
 3618TP3      O22672   3.216   4.513   2.159  0.5610 -0.2014  0.1456
 3618TP3     H122673   3.260   4.596   2.142 -0.1733  0.0799 -0.4992
 3618TP3     H222674   3.178   4.489   2.074 -0.4963 -0.4324  0.6627
 3619TP3      O22675   4.756   3.270   7.863  0.3573 -0.0266 -0.3887
 3619TP3     H122676   4.815   3.210   7.816  1.8715 -0.8767  2.3713
 3619TP3     H222677   4.671   3.225   7.862  0.4458 -0.2286 -1.8070
 3620TP3      O22678   2.637   4.110   0.813 -0.2592 -0.1738  0.4136
 3620TP3     H122679   2.666   4.133   0.902  1.6893  2.4756 -0.7663
 3620TP3     H222680   2.710   4.060   0.777 -0.7356 -0.6150  0.0504
 3621TP3      O22681   3.562   0.287   8.428 -0.1306  0.2955 -0.0702
 3621TP3     H122682   3.578   0.301   8.334 -0.6444  5.6884  0.3108
 3621TP3     H222683   3.640   0.324   8.470 -0.8014 -0.1580  1.6258
 3622TP3      O22684   2.174   2.292   1.526 -1.2591 -0.6850 -0.6095
 3622TP3     H122685   2.141   2.381   1.513  1.0124  0.2322 -0.6785
 3622TP3     H222686   2.203   2.264   1.440 -1.9194 -1.4864 -0.5767
 3623TP3      O22687   4.813   2.182   8.537  0.5200 -0.2063 -0.7499
 3623TP3     H122688   4.793   2.261   8.487  1.2455  0.5491  0.1020
 3623TP3     H222689   4.833   2.115   8.471  0.8036  0.5780 -1.4706
 3624TP3      O22690   4.942   0.013   6.841  0.2299  0.0391 -0.1984
 3624TP3     H122691   4.959   0.064   6.921 -2.1307  0.7523 -0.0661
 3624TP3     H222692   4.862  -0.036   6.861 -0.1068 -0.1780 -1.9550
 3625TP3      O22693   4.942   1.244   2.352 -0.4269  0.0740 -0.3649
 3625TP3     H122694   4.951   1.311   2.284 -0.2204 -0.0855 -0.4965
 3625TP3     H222695   5.032   1.226   2.380 -0.5117  0.1494 -0.0384
 3626TP3      O22696   1.065   2.614   1.421  0.5822 -0.0891 -0.2182
 3626TP3     H122697   0.971   2.601   1.406  0.7022 -0.9642 -0.2214
 3626TP3     H222698   1.085   2.562   1.498  1.0322  0.2421 -0.1081
 3627TP3      O22699   2.147   4.516   2.536  0.1457 -0.2972 -0.5883
 3627TP3     H122700   2.140   4.540   2.444  1.5585  0.2056 -0.5875
 3627TP3     H222701   2.223   4.459   2.540 -0.2122 -0.7360  0.1952
 3628TP3      O22702   2.012   3.662   9.121  0.6449  0.4257 -0.4822
 3628TP3     H122703   2.092   3.615   9.143 -0.5661 -2.1415 -1.1179
 3628TP3     H222704   1.969   3.607   9.056 -1.7200  1.6189 -0.0598
 3629TP3      O22705   3.160   2.776   1.805  0.1993 -0.2542 -0.2784
 3629TP3     H122706   3.248   2.809   1.790 -0.1606  0.9955  0.2604
 3629TP3     H222707   3.168   2.681   1.796  1.3222 -0.0624 -1.5589
 3630TP3      O22708   3.647   5.120   8.461  0.2193 -0.2046  0.4281
 3630TP3     H122709   3.702   5.076   8.526  0.8550 -0.1781 -0.0784
 3630TP3     H222710   3.671   5.079   8.378 -0.7073 -0.3554  0.2291
 3631TP3      O22711   4.098   3.195   1.069 -0.2969 -0.2819  0.1718
 3631TP3     H122712   4.111   3.251   1.146  0.0806 -1.9097  1.3362
 3631TP3     H222713   4.186   3.181   1.034 -0.4717  0.4979 -0.6271
 3632TP3      O22714   1.890   3.295   9.334  0.2249 -0.3536  0.2498
 3632TP3     H122715   1.911   3.213   9.379  0.4909 -0.2510  0.3161
 3632TP3     H222716   1.795   3.295   9.327  0.2518 -0.9294 -0.2428
 3633TP3      O22717   3.273   1.455   7.861  0.5015 -0.3276 -0.1628
 3633TP3     H122718   3.189   1.437   7.904  0.3552  0.6071 -0.0326
 3633TP3     H222719   3.285   1.549   7.871  0.2489  0.0231 -2.5597
 3634TP3      O22720   4.040   0.033   8.837 -0.0706  0.6847 -0.0872
 3634TP3     H122721   4.037  -0.062   8.827 -0.0514  0.9346 -3.6854
 3634TP3     H222722   4.133   0.054   8.834 -0.1323  0.8935 -0.6216
 3635TP3      O22723   1.651   3.627   9.332  0.5123  0.5821  0.1308
 3635TP3     H122724   1.715   3.629   9.261  0.7949  0.3156  0.3733
 3635TP3     H222725   1.582   3.569   9.300  0.7907  0.2063  0.1957
 3636TP3      O22726   3.845   2.148   1.586 -0.7481 -0.0598 -0.2702
 3636TP3     H122727   3.821   2.111   1.671  0.3442  1.1722  0.6211
 3636TP3     H222728   3.914   2.091   1.553 -0.8625 -0.2823 -0.1219
 3637TP3      O22729   3.222   3.862   8.173  0.1948  0.0847 -0.2279
 3637TP3     H122730   3.190   3.944   8.211 -1.5692  0.0370 -1.4913
 3637TP3     H222731   3.147   3.828   8.124  1.2694 -1.6843 -0.7139
 3638TP3      O22732   0.151   3.851   0.861  0.3269 -0.1733 -0.2621
 3638TP3     H122733   0.174   3.761   0.886 -0.0736 -0.3435 -0.4862
 3638TP3     H222734   0.196   3.865   0.778 -1.0019 -0.8085 -1.1391
 3639TP3      O22735   0.136   4.871   8.580  0.3463  0.0887 -0.2906
 3639TP3     H122736   0.043   4.852   8.564  0.8538 -2.9214 -0.3314
 3639TP3     H222737   0.170   4.901   8.496 -0.3465  0.0388 -0.5918
 3640TP3      O22738   4.215   1.637   9.056  0.1876 -0.1243  0.3132
 3640TP3     H122739   4.146   1.704   9.056 -0.1911 -0.4584  2.1184
 3640TP3     H222740   4.172   1.557   9.026 -0.0532 -0.1904  0.8373
 3641TP3      O22741   5.264   4.681   9.153  0.3328  0.3121 -0.2363
 3641TP3     H122742   5.309   4.761   9.182  2.3680 -0.3793 -1.2671
 3641TP3     H222743   5.326   4.639   9.094 -1.6717 -0.8276 -1.6502
 3642TP3      O22744   1.596   3.984   7.934  0.3533 -0.4884  0.6705
 3642TP3     H122745   1.587   3.890   7.916  0.4510 -0.5471  0.9273
 3642TP3     H222746   1.629   4.021   7.852 -0.3905 -0.5627  0.3323
 3643TP3      O22747   3.054   3.633   7.745  0.0732  0.4621 -0.0900
 3643TP3     H122748   3.061   3.592   7.659 -1.4656 -0.5724  0.2202
 3643TP3     H222749   3.036   3.725   7.727  2.3678  0.8196 -0.8215
 3644TP3      O22750   4.256   1.880   0.715 -0.1434 -0.2646  0.7066
 3644TP3     H122751   4.289   1.842   0.634 -0.6090 -1.0231  0.8590
 3644TP3     H222752   4.278   1.973   0.709  2.0274 -0.7131  0.8118
 3645TP3      O22753   1.378   3.362   8.549  0.4711 -0.1010  0.1580
 3645TP3     H122754   1.283   3.354   8.544  0.3635  0.9961  0.1970
 3645TP3     H222755   1.411   3.293   8.492 -0.3301 -0.7832  0.4954
 3646TP3      O22756   3.081   4.613   8.516 -0.4486 -0.6771 -0.1043
 3646TP3     H122757   2.996   4.595   8.557  0.1873 -1.7762  0.7676
 3646TP3     H222758   3.059   4.668   8.440 -1.8272 -0.0698  0.6843
 3647TP3      O22759   0.290   1.019   1.634 -0.3637  0.0018 -0.2037
 3647TP3     H122760   0.328   1.096   1.591  0.4913 -1.0137 -1.3448
 3647TP3     H222761   0.334   1.016   1.719 -0.1785  0.6018 -0.2691
 3648TP3      O22762   1.515   0.158   1.028  0.0598  0.1587 -0.6306
 3648TP3     H122763   1.589   0.098   1.024  0.3439  0.3577  0.9667
 3648TP3     H222764   1.538   0.229   0.969 -0.8233 -1.8003 -3.5196
 3649TP3      O22765   2.770   2.185   9.618  0.1970  0.6602  0.4754
 3649TP3     H122766   2.705   2.245   9.654  0.0530  1.1024 -0.4795
 3649TP3     H222767   2.831   2.242   9.570  0.7636  0.1637  0.5921
 3650TP3      O22768   2.284   2.086   8.957  0.7725  0.2275  0.0696
 3650TP3     H122769   2.288   1.994   8.984 -0.3990  0.3762  0.8276
 3650TP3     H222770   2.321   2.086   8.869 -1.9996 -1.5721 -1.2669
 3651TP3      O22771   2.138   4.888   9.647 -0.0089  0.3706  0.5298
 3651TP3     H122772   2.205   4.891   9.579  0.7541  0.1141  1.2495
 3651TP3     H222773   2.086   4.810   9.626 -0.0448  0.5394 -0.0053
 3652TP3      O22774   4.389   1.208   3.739  0.2365  0.6593  0.4868
 3652TP3     H122775   4.434   1.165   3.666  0.1542  1.7157 -0.2124
 3652TP3     H222776   4.383   1.141   3.807  1.1869 -0.0521 -0.1163
 3653TP3      O22777   4.378   0.293   3.076  0.1234 -0.2415 -0.4447
 3653TP3     H122778   4.408   0.215   3.027  2.3033  0.5623 -0.5276
 3653TP3     H222779   4.341   0.258   3.157  1.5454 -1.3787 -0.2463
 3654TP3      O22780   5.155   3.856   8.895 -0.0435  0.0041 -0.0331
 3654TP3     H122781   5.154   3.761   8.885  0.5598  0.1522 -1.9141
 3654TP3     H222782   5.247   3.880   8.884 -0.3234  0.8807 -0.5315
 3655TP3      O22783   2.305   3.531   0.832  0.9215 -0.2226  0.5057
 3655TP3     H122784   2.310   3.616   0.787  2.4430 -0.5514  0.0119
 3655TP3     H222785   2.262   3.551   0.915  0.8541  0.9580  0.2059
 3656TP3      O22786   3.786   1.967   9.218  0.2698 -0.3185 -0.9792
 3656TP3     H122787   3.823   2.050   9.189 -0.0661  0.0128 -0.4801
 3656TP3     H222788   3.860   1.922   9.260  0.4918 -0.3459 -1.3919
 3657TP3      O22789   4.702   4.618   2.814  0.0421 -0.4385  0.5525
 3657TP3     H122790   4.789   4.603   2.851  0.4985 -1.2597 -0.8045
 3657TP3     H222791   4.718   4.656   2.728 -0.9530 -0.3498  0.3885
 3658TP3      O22792   5.134   1.297   3.267  0.2625  0.5610  0.1865
 3658TP3     H122793   5.167   1.241   3.197  0.0232 -0.9122  1.2060
 3658TP3     H222794   5.094   1.372   3.221  0.0561 -0.3848 -1.2480
 3659TP3      O22795   4.778   5.006   9.005 -0.7577  0.1802  0.8690
 3659TP3     H122796   4.746   4.941   9.068 -0.3804 -1.7289 -0.7918
 3659TP3     H222797   4.862   5.034   9.040  0.6150 -2.6559  0.1816
 3660TP3      O22798   0.265   2.934   1.630 -0.6894 -0.1039 -0.1529
 3660TP3     H122799   0.180   2.891   1.637 -1.9200  2.3687  2.0850
 3660TP3     H222800   0.253   3.000   1.562 -0.6068  0.2791  0.1974
 3661TP3      O22801   3.343   3.769   9.242 -0.1696  0.0703 -0.2583
 3661TP3     H122802   3.361   3.700   9.178 -0.5800 -1.0861  0.8259
 3661TP3     H222803   3.256   3.801   9.219 -0.6605 -0.9106  0.1960
 3662TP3      O22804   1.729   1.034   2.051  0.1509  0.0095  0.3161
 3662TP3     H122805   1.790   1.107   2.059 -0.5737  0.6608  0.0586
 3662TP3     H222806   1.666   1.048   2.122 -0.7686  0.4052 -0.5540
 3663TP3      O22807   2.646   1.189   7.493 -0.0292 -0.0362  0.0378
 3663TP3     H122808   2.715   1.156   7.434  0.8843  2.0039 -0.1076
 3663TP3     H222809   2.565   1.170   7.446  0.5659 -0.3135 -0.9260
 3664TP3      O22810   3.657   2.285   6.742  0.6264 -0.0891 -0.0194
 3664TP3     H122811   3.583   2.277   6.802  0.7972  1.2527  0.4152
 3664TP3     H222812   3.670   2.197   6.707 -0.8817 -0.4385  0.2351
 3665TP3      O22813   3.181   2.367   9.679  0.2131 -0.3279 -0.2055
 3665TP3     H122814   3.119   2.322   9.737  0.6250 -0.0843  0.4311
 3665TP3     H222815   3.133   2.443   9.647  0.1437 -0.1936  0.2105
 3666TP3      O22816   3.856   4.873   1.393 -0.4349 -0.2400 -0.3218
 3666TP3     H122817   3.835   4.941   1.458 -0.4729  1.1095 -1.7049
 3666TP3     H222818   3.910   4.918   1.328  2.1971 -2.2800  0.2716
 3667TP3      O22819   1.660   3.530   1.476 -0.3280 -0.1108 -0.1577
 3667TP3     H122820   1.576   3.500   1.511 -1.5446  2.1273 -0.9518
 3667TP3     H222821   1.662   3.497   1.386  0.1650 -1.0515  0.1842
 3668TP3      O22822   4.449   2.112   7.801 -0.1240 -0.6664  0.2064
 3668TP3     H122823   4.433   2.027   7.842  0.4244 -0.5698  0.6191
 3668TP3     H222824   4.425   2.099   7.709 -1.2604 -0.9104  0.5209
 3669TP3      O22825   0.296   4.617   9.210  0.0324 -0.2595  0.2488
 3669TP3     H122826   0.242   4.610   9.131 -0.6476 -0.8769  0.7574
 3669TP3     H222827   0.288   4.709   9.235 -2.4028 -0.7056  1.4013
 3670TP3      O22828   4.991   5.135   8.008  0.2465 -0.0988  0.7650
 3670TP3     H122829   4.933   5.178   7.946 -0.4479 -1.0993  0.6867
 3670TP3     H222830   5.068   5.111   7.956  0.5414  0.8165  0.7626
 3671TP3      O22831   0.116   4.186   0.567 -0.2412  0.6235 -0.5389
 3671TP3     H122832   0.101   4.114   0.506 -0.7957  0.5033 -0.2677
 3671TP3     H222833   0.176   4.150   0.632 -2.9615 -0.7032  1.4311
 3672TP3      O22834   1.209   1.517   9.121  0.0474  0.0521  0.1759
 3672TP3     H122835   1.150   1.453   9.082  0.3169 -0.3635  0.4452
 3672TP3     H222836   1.152   1.586   9.155 -0.2538 -0.1541  0.0827
 3673TP3      O22837   5.243   3.802   7.978  0.0680  0.3323  0.2103
 3673TP3     H122838   5.186   3.858   8.030 -0.2804 -0.4975  0.7344
 3673TP3     H222839   5.276   3.859   7.909 -0.1359  1.2262  0.8410
 3674TP3      O22840   4.872   2.771  10.065  0.5910  0.2865 -0.1323
 3674TP3     H122841   4.788   2.789  10.023  0.9145 -2.4749 -2.3117
 3674TP3     H222842   4.867   2.814  10.150 -1.4155  3.5433 -1.7092
 3675TP3      O22843   0.109   2.879   8.150  0.1077  0.4166  0.1393
 3675TP3     H122844   0.115   2.921   8.065  0.6949 -0.8400 -0.4757
 3675TP3     H222845   0.020   2.897   8.180 -0.3016  0.3655 -1.0154
 3676TP3      O22846   0.714   4.893   1.575  0.0283  0.2238 -0.1984
 3676TP3     H122847   0.720   4.800   1.597 -0.7978  0.2717  0.2673
 3676TP3     H222848   0.662   4.895   1.495  0.4239  0.2620 -0.4585
 3677TP3      O22849   5.125   3.591   0.986 -0.2939 -1.1958 -0.3240
 3677TP3     H122850   5.193   3.530   1.016 -0.9287 -1.5115  0.5189
 3677TP3     H222851   5.076   3.613   1.066 -0.1897  0.2877 -0.6381
 3678TP3      O22852   3.602   1.461   6.780 -0.8628 -0.0704  0.0116
 3678TP3     H122853   3.579   1.382   6.828 -1.0888 -0.0092  0.0042
 3678TP3     H222854   3.687   1.487   6.815  1.1736 -2.4840 -2.5979
 3679TP3      O22855   0.354   0.799   0.212  0.9846  0.2332  0.5345
 3679TP3     H122856   0.303   0.777   0.289  0.8850  0.3714  0.5084
 3679TP3     H222857   0.354   0.719   0.159  1.1056  0.1204  0.7061
 3680TP3      O22858   0.691   2.039   8.236  0.0158 -0.7582  0.2545
 3680TP3     H122859   0.650   2.125   8.229 -0.6523 -1.1623 -0.9686
 3680TP3     H222860   0.781   2.054   8.206  0.3014 -0.2308  1.3103
 3681TP3      O22861   2.636   0.649   7.519 -0.5870  0.1869 -0.5114
 3681TP3     H122862   2.622   0.698   7.437  0.0511  1.1698 -0.0453
 3681TP3     H222863   2.730   0.637   7.524 -0.4823  1.2974  0.7266
 3682TP3      O22864   4.294   3.418  10.083 -0.2211  0.0721 -0.3083
 3682TP3     H122865   4.242   3.407  10.004 -1.1226  0.6763  0.1851
 3682TP3     H222866   4.287   3.334  10.129  0.3797 -0.3123 -0.8873
 3683TP3      O22867   5.096   3.588   7.865 -0.2415  0.0049  0.4582
 3683TP3     H122868   5.157   3.654   7.899  0.0931 -0.5685  0.9867
 3683TP3     H222869   5.009   3.627   7.877 -0.0446  0.3617  0.7320
 3684TP3      O22870   1.109   4.358   2.610  0.0580  0.6148 -0.2829
 3684TP3     H122871   1.166   4.432   2.631  1.4525  0.0239 -1.6867
 3684TP3     H222872   1.060   4.342   2.690  0.5270  2.3428  0.4044
 3685TP3      O22873   5.059   4.121   9.527  0.5879  0.1768  0.6133
 3685TP3     H122874   5.080   4.180   9.599  0.6247  1.9846 -0.8178
 3685TP3     H222875   5.056   4.177   9.450 -0.9465 -1.4501 -0.5865
 3686TP3      O22876   0.365   4.747   7.976 -0.2381 -0.0825 -0.0566
 3686TP3     H122877   0.377   4.771   8.068  0.4547 -0.6759  0.0146
 3686TP3     H222878   0.302   4.811   7.943  0.4102  0.8743  0.5174
 3687TP3      O22879   4.658   2.664   9.707  0.0614  0.1167  0.5304
 3687TP3     H122880   4.697   2.747   9.677 -0.1410  0.2524  0.6370
 3687TP3     H222881   4.591   2.645   9.641 -1.1901  1.0210  1.4773
 3688TP3      O22882   3.413   1.960  10.058  0.1573  0.3707 -0.4677
 3688TP3     H122883   3.328   2.001  10.041  0.9478  1.1072 -3.3801
 3688TP3     H222884   3.450   2.011  10.130 -0.8832  1.6389 -0.7777
 3689TP3      O22885   0.297   2.686   7.776  0.0403  0.0420 -0.4352
 3689TP3     H122886   0.249   2.621   7.725 -0.7303 -0.3025  0.6890
 3689TP3     H222887   0.370   2.712   7.719 -1.1872  0.2397 -1.9897
 3690TP3      O22888   3.335   3.061   0.877 -0.3956  0.1303 -0.4113
 3690TP3     H122889   3.276   2.996   0.915  0.8877 -1.0891 -0.4295
 3690TP3     H222890   3.309   3.066   0.785 -1.1021  0.3412 -0.2026
 3691TP3      O22891   2.239   3.689   8.066  0.0627  0.5089  0.1811
 3691TP3     H122892   2.252   3.595   8.054 -0.8581  0.3743  0.1956
 3691TP3     H222893   2.226   3.723   7.978 -2.9777  0.0847  0.3824
 3692TP3      O22894   4.469   4.984   2.323  1.0906  0.0388  0.7924
 3692TP3     H122895   4.446   4.923   2.252  0.3761 -0.2531  1.2723
 3692TP3     H222896   4.543   5.034   2.287 -0.4513  1.2129 -0.8976
 3693TP3      O22897   0.770   1.758   9.577  0.6445 -0.3597  0.2838
 3693TP3     H122898   0.834   1.813   9.532  0.1841 -1.9267 -2.5270
 3693TP3     H222899   0.765   1.794   9.666  3.4855  1.4007 -0.1417
 3694TP3      O22900   3.205   4.490   7.759  0.2460  1.0299  0.2113
 3694TP3     H122901   3.179   4.574   7.722 -0.4533  0.1906 -1.3454
 3694TP3     H222902   3.295   4.503   7.789  0.3568  2.1684 -0.5659
 3695TP3      O22903   3.706   1.821   0.292  0.5925  0.4049  0.3591
 3695TP3     H122904   3.667   1.906   0.309 -1.0729 -0.0317 -0.9927
 3695TP3     H222905   3.755   1.833   0.210 -2.3142 -0.6036 -1.7025
 3696TP3      O22906   1.331   4.668   9.670 -0.1087  0.2959 -0.0839
 3696TP3     H122907   1.408   4.614   9.684 -0.1005  0.0946 -0.8722
 3696TP3     H222908   1.278   4.620   9.606 -1.0899  0.2305  0.7419
 3697TP3      O22909   1.949   4.299   0.654 -0.0736  0.1457  0.2714
 3697TP3     H122910   1.988   4.217   0.625  0.2050 -0.0881  1.2728
 3697TP3     H222911   1.855   4.288   0.637 -0.0803 -0.5092  0.6822
 3698TP3      O22912   2.167   1.220   0.226  0.6485  0.0654  0.9796
 3698TP3     H122913   2.179   1.164   0.303  0.3586  1.0530  1.7670
 3698TP3     H222914   2.075   1.247   0.231  0.7334  0.4518  0.5064
 3699TP3      O22915   1.895   5.253   7.718 -0.0759 -0.3725  0.2806
 3699TP3     H122916   1.875   5.311   7.791  0.6633 -1.6196  1.5141
 3699TP3     H222917   1.820   5.193   7.714  0.1173 -0.6202  0.3478
 3700TP3      O22918   1.800   4.665   8.727  0.3818 -0.0986 -0.4711
 3700TP3     H122919   1.740   4.596   8.699  2.2594 -0.7310 -3.2988
 3700TP3     H222920   1.885   4.622   8.732  1.2100  1.5207  0.0451
 3701TP3      O22921   4.156   1.270   2.426  0.2278 -0.1023 -0.6944
 3701TP3     H122922   4.151   1.275   2.330 -0.9108  0.9671 -0.6149
 3701TP3     H222923   4.068   1.244   2.453  0.7817 -1.2803  0.0428
 3702TP3      O22924   4.557   1.770   3.061  0.0029  0.0611  0.4402
 3702TP3     H122925   4.499   1.721   3.001  0.8975  1.5984 -1.7963
 3702TP3     H222926   4.636   1.716   3.066 -0.0162 -0.0040  0.1017
 3703TP3      O22927   5.017   1.175   9.503  0.3186 -0.1380 -0.2322
 3703TP3     H122928   4.929   1.146   9.525 -0.0145  0.8472 -0.2504
 3703TP3     H222929   5.061   1.095   9.474 -1.4588 -0.2255 -3.1111
 3704TP3      O22930   0.140   3.727   2.895 -0.5526 -0.3397 -0.4226
 3704TP3     H122931   0.191   3.803   2.926 -1.8660  0.4036 -0.0134
 3704TP3     H222932   0.195   3.687   2.828  0.3778  0.6984 -0.3045
 3705TP3      O22933   1.556   3.208   2.587 -0.8335  0.2390 -0.2068
 3705TP3     H122934   1.643   3.249   2.581 -0.7256  0.1540  0.6136
 3705TP3     H222935   1.557   3.140   2.520 -0.5799  0.7899 -0.7807
 3706TP3      O22936   2.430   1.245   1.226  0.4434  0.0005  0.1855
 3706TP3     H122937   2.375   1.166   1.230 -0.5602  0.7059  0.7141
 3706TP3     H222938   2.418   1.285   1.312  0.6179  0.9509 -0.2324
 3707TP3      O22939   2.346   2.689   3.036  0.5378 -0.8112  0.4974
 3707TP3     H122940   2.391   2.662   2.956 -1.2230 -1.8660 -0.1793
 3707TP3     H222941   2.416   2.699   3.101  2.1741  1.2250 -1.4107
 3708TP3      O22942   1.322   2.508   2.977 -0.1781 -0.1570  0.3872
 3708TP3     H122943   1.365   2.424   2.960 -0.8061 -1.0071  2.5828
 3708TP3     H222944   1.230   2.491   2.959  0.0414  1.1875 -2.6782
 3709TP3      O22945   0.240   0.729   8.087 -0.0109 -0.8876  0.2410
 3709TP3     H122946   0.261   0.655   8.029 -2.6074 -1.1004 -0.5507
 3709TP3     H222947   0.196   0.792   8.030 -1.1856 -0.3822  1.6500
 3710TP3      O22948   3.179   4.879   8.916 -0.1710  0.4835  0.3780
 3710TP3     H122949   3.097   4.831   8.905  0.5705 -0.9378  0.7801
 3710TP3     H222950   3.244   4.826   8.869  0.3494  2.1478 -0.8810
 3711TP3      O22951   1.813   2.777   1.151 -0.0487  0.4118  0.1171
 3711TP3     H122952   1.738   2.757   1.095 -0.4655  1.5842  0.2198
 3711TP3     H222953   1.844   2.862   1.119 -0.8863  1.5911  2.2076
 3712TP3      O22954   1.930   0.404   0.762 -0.1415  0.3608  0.0465
 3712TP3     H122955   1.914   0.477   0.702 -1.7243 -0.6045 -0.7749
 3712TP3     H222956   1.909   0.438   0.848 -0.8253  0.9018 -0.3249
 3713TP3      O22957   2.401   0.463  10.102 -0.2681  1.0766  0.5510
 3713TP3     H122958   2.348   0.542  10.112 -0.0297  1.1651  1.1444
 3713TP3     H222959   2.480   0.480  10.153 -0.3220  0.3655  0.8883
 3714TP3      O22960   4.306   2.148   0.692 -0.0283 -0.4861 -0.3781
 3714TP3     H122961   4.272   2.201   0.621  0.8503  0.0308 -0.4314
 3714TP3     H222962   4.391   2.187   0.712 -1.2840  1.0241  2.6992
 3715TP3      O22963   2.092   2.655   9.237  0.2925  0.0925  0.2574
 3715TP3     H122964   2.000   2.655   9.264  0.4097 -0.6735  0.7029
 3715TP3     H222965   2.124   2.742   9.261  0.4136 -0.5564  2.7725
 3716TP3      O22966   2.922   0.702   7.695 -0.3041  0.4126 -0.3544
 3716TP3     H122967   3.008   0.684   7.731 -0.4958  2.5329  1.3383
 3716TP3     H222968   2.932   0.686   7.601  1.3978 -1.0895  0.0196
 3717TP3      O22969   2.263   3.317   3.218  0.3968 -0.6292 -0.1502
 3717TP3     H122970   2.293   3.228   3.201  0.7377 -0.9668  2.0153
 3717TP3     H222971   2.180   3.323   3.171 -0.6497 -2.7804  1.2754
 3718TP3      O22972   3.672   3.488   2.993 -0.2005  0.0576 -0.4417
 3718TP3     H122973   3.620   3.569   2.989 -1.0870 -0.4415  0.5706
 3718TP3     H222974   3.608   3.419   3.009  0.8411 -0.3932  2.4869
 3719TP3      O22975   4.742   1.587   1.542 -0.2910 -0.5038  0.3077
 3719TP3     H122976   4.718   1.545   1.460 -0.8523  2.4144 -1.1419
 3719TP3     H222977   4.837   1.593   1.539 -0.3073 -0.4450 -0.1228
 3720TP3      O22978   0.581   1.159   2.679  0.5123 -0.0645 -1.4056
 3720TP3     H122979   0.538   1.078   2.653 -0.5296  0.3372 -0.9940
 3720TP3     H222980   0.513   1.226   2.672  0.0198  0.0702  2.4117
 3721TP3      O22981   2.698   1.685   7.649  0.1184 -0.0133  0.4608
 3721TP3     H122982   2.746   1.603   7.637  1.2333  0.7928 -1.0444
 3721TP3     H222983   2.723   1.716   7.735  2.1794  0.2550 -0.1913
 3722TP3      O22984   3.734   1.665   9.054 -0.1800 -0.6685  0.1726
 3722TP3     H122985   3.638   1.667   9.051 -0.1697  0.9607  0.2862
 3722TP3     H222986   3.755   1.649   9.146 -0.3463 -0.2147  0.2911
 3723TP3      O22987   1.840   0.880   7.681  0.4779  0.2857 -0.2138
 3723TP3     H122988   1.868   0.937   7.609  0.7798  0.7374  0.2484
 3723TP3     H222989   1.899   0.903   7.753 -1.6009  1.9031  1.0952
 3724TP3      O22990   4.488   3.850   8.130 -0.2581  0.1490 -0.0136
 3724TP3     H122991   4.511   3.908   8.203  0.5722  1.1102 -1.0108
 3724TP3     H222992   4.515   3.763   8.159  0.4262  0.5766  0.6785
 3725TP3      O22993   0.347   4.103   2.413  0.0489 -0.5058 -0.3351
 3725TP3     H122994   0.334   4.176   2.473  0.6004 -0.2933 -0.4693
 3725TP3     H222995   0.306   4.028   2.457 -0.3626 -0.1586 -0.1198
 3726TP3      O22996   0.430   0.289   9.484 -0.5797  0.4241  0.5918
 3726TP3     H122997   0.519   0.326   9.486 -0.1470 -0.5281  0.0657
 3726TP3     H222998   0.396   0.313   9.398 -0.2534 -0.4459  0.2011
 3727TP3      O22999   1.018   1.739   1.530 -0.0627  0.4880 -0.6786
 3727TP3     H123000   1.031   1.763   1.622  1.5044  0.1942 -0.7975
 3727TP3     H223001   0.932   1.697   1.528  0.0585  0.1238  0.7372
 3728TP3      O23002   3.028   2.896   7.325 -0.5128  0.4259 -0.0345
 3728TP3     H123003   2.975   2.963   7.284  0.7431  0.6081 -1.4481
 3728TP3     H223004   3.118   2.928   7.315 -0.0651 -0.2496  1.5661
 3729TP3      O23005   4.250   3.951   9.242 -0.1246 -0.4121 -0.2289
 3729TP3     H123006   4.297   4.031   9.219 -0.6941 -0.9309 -3.8916
 3729TP3     H223007   4.312   3.880   9.224 -0.4209 -0.8898  0.5920
 3730TP3      O23008   3.863   0.600   2.102 -0.1142 -0.4836  0.6574
 3730TP3     H123009   3.915   0.667   2.058 -1.6189  0.9881  0.9661
 3730TP3     H223010   3.901   0.595   2.190 -0.1849  0.2452  0.7402
 3731TP3      O23011   0.548   3.930   7.920  0.2618 -0.5779  0.3981
 3731TP3     H123012   0.504   3.959   8.000  2.2443  0.9062  1.0339
 3731TP3     H223013   0.608   3.862   7.950 -0.3299 -1.3728 -0.1792
 3732TP3      O23014   1.809   3.132   8.231 -0.3541  0.2112  0.1655
 3732TP3     H123015   1.840   3.053   8.274 -1.4961  0.3510  1.2913
 3732TP3     H223016   1.867   3.201   8.263 -0.0571  0.0220  0.0432
 3733TP3      O23017   0.521   4.974   8.654  0.0433  0.1513  0.4390
 3733TP3     H123018   0.522   4.989   8.559 -0.5714  0.5167  0.4811
 3733TP3     H223019   0.579   5.041   8.690 -0.6107  0.7549  0.4036
 3734TP3      O23020   1.518   0.102   9.841 -0.0663  0.2450 -0.4079
 3734TP3     H123021   1.466   0.082   9.764  0.1777  0.1514 -0.5499
 3734TP3     H223022   1.604   0.126   9.807 -0.0191  0.4100 -0.1773
 3735TP3      O23023   1.259   2.907   7.569 -0.1654 -0.0630 -0.5788
 3735TP3     H123024   1.174   2.875   7.541 -0.0072  0.5400 -1.8254
 3735TP3     H223025   1.311   2.912   7.488  0.1990  2.0891 -0.2757
 3736TP3      O23026   4.825   3.794   0.303 -0.2742 -0.5637 -0.7674
 3736TP3     H123027   4.901   3.778   0.247 -0.6134 -2.2288 -0.8171
 3736TP3     H223028   4.860   3.792   0.392  0.0398  0.7117 -0.8390
 3737TP3      O23029   1.810   0.701   0.616 -0.8305  0.2392  0.1739
 3737TP3     H123030   1.885   0.759   0.605 -0.4523 -0.4571 -1.0339
 3737TP3     H223031   1.792   0.703   0.710  0.6328  0.4932  0.4717
 3738TP3      O23032   4.965   4.326   8.319  0.3202  0.7804 -0.0643
 3738TP3     H123033   4.922   4.255   8.366  2.2031 -0.3391  0.0807
 3738TP3     H223034   4.926   4.406   8.354  0.9551 -0.0469  2.7298
 3739TP3      O23035   0.947   5.256   1.291 -0.2627 -0.4283  0.4100
 3739TP3     H123036   0.937   5.264   1.196 -4.9051 -0.3556  0.6778
 3739TP3     H223037   0.955   5.162   1.306  2.9079 -0.3394 -0.0244
 3740TP3      O23038   3.513   1.143   2.280  0.1734 -0.0603  0.3762
 3740TP3     H123039   3.421   1.117   2.277 -0.7098  2.6882  1.3470
 3740TP3     H223040   3.532   1.177   2.192 -0.1395  0.5995  0.5622
 3741TP3      O23041   2.169   1.750   9.241  0.9038  0.1548  0.0114
 3741TP3     H123042   2.228   1.767   9.314  2.2360  0.0754 -1.0170
 3741TP3     H223043   2.092   1.804   9.260  0.2028 -1.5782  2.6084
 3742TP3      O23044   4.214   4.151   0.865  0.7478 -0.0189 -0.9644
 3742TP3     H123045   4.273   4.146   0.790  1.9143 -0.0171 -0.0682
 3742TP3     H223046   4.240   4.079   0.922  0.0324  0.1183 -0.4383
 3743TP3      O23047   3.445   1.291   7.756 -0.7130 -0.0924 -0.4460
 3743TP3     H123048   3.365   1.335   7.786  0.0010  1.7252 -1.0213
 3743TP3     H223049   3.435   1.287   7.661  0.2046  0.9197 -0.6064
 3744TP3      O23050   3.730   1.761   1.705 -0.3962  0.2288  0.2482
 3744TP3     H123051   3.824   1.774   1.712 -0.2866  0.0013 -0.6710
 3744TP3     H223052   3.710   1.698   1.774  0.2705 -0.3796 -0.0993
 3745TP3      O23053   4.505   5.142   1.055 -0.6754 -0.1859  0.7481
 3745TP3     H123054   4.556   5.092   0.991 -1.1584  0.0231  0.1863
 3745TP3     H223055   4.434   5.083   1.080  0.2904 -0.7948  2.1676
 3746TP3      O23056   1.779   1.271   1.203  0.4245 -0.1792 -0.3166
 3746TP3     H123057   1.816   1.233   1.282  0.2875 -0.7221 -0.5126
 3746TP3     H223058   1.787   1.366   1.216  0.8462 -0.2740  0.1312
 3747TP3      O23059   2.494   0.254   9.662  0.0981 -0.0083  0.0602
 3747TP3     H123060   2.548   0.178   9.686 -0.0422 -0.4903 -1.1067
 3747TP3     H223061   2.473   0.295   9.746  0.6273 -0.9486  0.6735
 3748TP3      O23062   4.909   3.438   2.599 -0.2088 -0.3588  0.4721
 3748TP3     H123063   4.960   3.473   2.526 -1.6170 -0.5541 -0.6587
 3748TP3     H223064   4.818   3.451   2.572 -0.7744  0.1670  2.5019
 3749TP3      O23065   3.374   0.428   8.559 -0.2972 -0.1664 -0.5945
 3749TP3     H123066   3.431   0.356   8.532 -2.1491 -1.3247 -1.6255
 3749TP3     H223067   3.289   0.387   8.574 -0.9435  1.5301  0.6783
 3750TP3      O23068   2.196   0.553   3.369 -0.2325 -0.0607  0.1302
 3750TP3     H123069   2.205   0.458   3.368  0.4482 -0.0275  1.2703
 3750TP3     H223070   2.102   0.568   3.377 -0.2827 -0.6512  0.7199
 3751TP3      O23071   5.150   0.271   0.038  1.2760 -0.2814  0.0902
 3751TP3     H123072   5.231   0.229   0.009  1.0693  0.0775 -1.0431
 3751TP3     H223073   5.115   0.313  -0.041  0.3997  0.2446  0.7456
 3752TP3      O23074   2.759   1.323   8.694 -0.4483  0.4728 -0.4260
 3752TP3     H123075   2.715   1.343   8.612 -2.1135  0.0571  0.3311
 3752TP3     H223076   2.822   1.255   8.672  0.0025  1.2401 -1.5801
 3753TP3      O23077   0.956   1.802   1.926  0.7703  0.4218  0.1395
 3753TP3     H123078   1.035   1.769   1.884  0.9638 -0.0835  0.8868
 3753TP3     H223079   0.974   1.895   1.939 -0.3623  1.2775 -3.3194
 3754TP3      O23080   0.604   1.084   0.062  0.1067  0.6909 -0.6720
 3754TP3     H123081   0.572   1.135  -0.013 -1.0054 -0.0632 -0.7439
 3754TP3     H223082   0.641   1.149   0.122  2.0031  1.2173 -2.3166
 3755TP3      O23083   5.205   0.763   7.874 -0.6684 -0.7299  0.5096
 3755TP3     H123084   5.209   0.686   7.819  0.4920  1.1372 -2.2449
 3755TP3     H223085   5.296   0.793   7.880 -0.9985  0.0731  2.0608
 3756TP3      O23086   1.591   0.890   7.857  0.0846  0.0507  0.6080
 3756TP3     H123087   1.552   0.804   7.841 -1.0113  0.7359 -0.6877
 3756TP3     H223088   1.685   0.874   7.862 -0.1133 -1.2205  0.3972
 3757TP3      O23089   2.845   0.071   9.944 -0.8482 -0.1274 -0.0704
 3757TP3     H123090   2.905   0.125   9.892 -0.7918  0.5791  0.7154
 3757TP3     H223091   2.900   0.003   9.982 -0.4894  0.6844  0.8738
 3758TP3      O23092   2.009   3.960   8.222  0.1541 -0.2962  0.4505
 3758TP3     H123093   2.085   3.919   8.264  0.2210 -0.6489 -0.0000
 3758TP3     H223094   1.934   3.910   8.254  0.1209  0.0055  0.8397
 3759TP3      O23095   1.135   2.793   1.952  0.0451  0.1290  0.1370
 3759TP3     H123096   1.147   2.741   2.031  1.7424 -0.8551 -0.6932
 3759TP3     H223097   1.076   2.864   1.977 -0.7694 -1.1020  1.8197
 3760TP3      O23098   0.385   4.640   9.685 -0.5441 -0.3446  0.3246
 3760TP3     H123099   0.377   4.697   9.762 -1.1045  2.1127 -1.4424
 3760TP3     H223100   0.470   4.660   9.648 -1.0599 -0.0474 -0.7492
 3761TP3      O23101   0.017   3.792   1.393  0.5300 -0.1047  0.2209
 3761TP3     H123102   0.041   3.881   1.366 -0.1655  0.3364  1.0183
 3761TP3     H223103  -0.075   3.783   1.368  0.5374 -0.5180  0.3349
 3762TP3      O23104   3.790   4.680   8.877 -0.1122 -0.0200 -0.6635
 3762TP3     H123105   3.787   4.668   8.972  4.4276  0.6501 -0.1916
 3762TP3     H223106   3.810   4.593   8.843 -1.2548 -0.1607 -1.0142
 3763TP3      O23107   0.938   0.670   7.461  0.7501 -0.2709 -0.3003
 3763TP3     H123108   1.018   0.618   7.469  1.3384  0.7406  0.7597
 3763TP3     H223109   0.945   0.734   7.532 -1.4941 -0.8137  0.4669
 3764TP3      O23110   3.623   3.741   7.883 -0.3252  0.1710 -0.0798
 3764TP3     H123111   3.648   3.720   7.973 -0.6251 -1.5925 -0.3690
 3764TP3     H223112   3.612   3.836   7.883 -0.4811  0.2023  1.7852
 3765TP3      O23113   1.219   0.704   2.060 -0.2760 -0.0111  0.3523
 3765TP3     H123114   1.171   0.772   2.012 -1.3104 -0.2553  1.0158
 3765TP3     H223115   1.281   0.669   1.996 -1.0810  0.2121 -0.5724
 3766TP3      O23116   3.132   3.257   3.002  0.0639  0.4259  0.4934
 3766TP3     H123117   3.071   3.184   2.995  0.7018 -0.0015 -1.1364
 3766TP3     H223118   3.091   3.317   3.064 -1.8941  0.0564 -0.3879
 3767TP3      O23119   1.735   3.291   8.536  0.6486  0.2117 -0.2411
 3767TP3     H123120   1.758   3.382   8.557 -1.7955  0.5634  1.4662
 3767TP3     H223121   1.818   3.244   8.535  1.8427  2.2044  0.3170
 3768TP3      O23122   3.651   2.520   9.127 -0.1137  0.6989  0.0839
 3768TP3     H123123   3.674   2.505   9.219 -2.0185 -2.6368  0.1725
 3768TP3     H223124   3.668   2.436   9.084 -1.1097  1.5909 -2.2063
 3769TP3      O23125   3.086   3.616   8.308 -0.7304 -0.4451  0.1974
 3769TP3     H123126   3.110   3.708   8.318  0.8512 -0.7717 -0.2601
 3769TP3     H223127   3.072   3.606   8.214 -0.5963 -0.7298  0.2080
 3770TP3      O23128   5.135   0.803   7.531  0.3384  0.4759 -0.6397
 3770TP3     H123129   5.229   0.805   7.512  0.6681  0.2792  0.8217
 3770TP3     H223130   5.125   0.863   7.605 -0.4742 -0.3908 -0.0123
 3771TP3      O23131   4.910   3.599   9.781  0.2124  0.7416 -0.1954
 3771TP3     H123132   4.911   3.690   9.749 -3.8868  0.8833 -0.5175
 3771TP3     H223133   4.839   3.598   9.845  0.3783 -2.2058  0.0641
 3772TP3      O23134   3.913   2.054   2.357 -0.3691 -0.4423 -0.4755
 3772TP3     H123135   3.895   2.140   2.396 -2.4143  0.5982 -3.3293
 3772TP3     H223136   3.965   2.008   2.423 -0.5310  2.3864  1.8419
 3773TP3      O23137   1.082   2.650   0.906  0.3827  0.7834 -0.2220
 3773TP3     H123138   1.097   2.599   0.827  0.9697 -0.3531  0.5984
 3773TP3     H223139   1.005   2.703   0.887 -0.0363 -0.1635 -1.2205
 3774TP3      O23140   1.737   4.207   8.063 -0.4862  0.3953  0.2551
 3774TP3     H123141   1.688   4.128   8.042  0.2686 -0.3797  1.3152
 3774TP3     H223142   1.731   4.216   8.158 -0.9100  1.8606  0.1215
 3775TP3      O23143   0.403   3.464   8.840  0.4616 -0.2746 -0.2849
 3775TP3     H123144   0.330   3.404   8.852  0.1530  0.0178 -0.7168
 3775TP3     H223145   0.413   3.506   8.926 -1.6137  1.6557 -0.9107
 3776TP3      O23146   0.333   1.403   9.189  0.2176 -0.0391  0.3652
 3776TP3     H123147   0.298   1.338   9.250 -1.7263  1.7615  1.2908
 3776TP3     H223148   0.396   1.453   9.240 -0.2034  0.4329  0.4266
 3777TP3      O23149   4.136   0.012   9.828 -0.2843  0.5642 -0.5909
 3777TP3     H123150   4.044  -0.012   9.842 -0.3744  0.8325 -0.7231
 3777TP3     H223151   4.138   0.107   9.842  0.4354  0.2560  1.8784
 3778TP3      O23152   3.157   3.698   0.455  0.1371 -0.1667  0.3787
 3778TP3     H123153   3.099   3.724   0.383 -0.2135 -0.4644  0.5472
 3778TP3     H223154   3.201   3.620   0.423  1.9653  1.1527 -0.5326
 3779TP3      O23155   1.410   2.488   9.947 -0.4042 -0.4216 -0.1660
 3779TP3     H123156   1.481   2.428   9.971  0.2410  0.5987  0.5284
 3779TP3     H223157   1.352   2.488  10.023 -0.2452  0.0654 -0.0456
 3780TP3      O23158   4.701   3.386   3.313  0.6421 -0.1339 -0.2772
 3780TP3     H123159   4.655   3.444   3.253 -2.2890 -1.1901  0.7653
 3780TP3     H223160   4.739   3.319   3.256  0.0127  0.2262 -1.1500
 3781TP3      O23161   4.767   3.580   8.956 -0.4991  0.2339  0.1474
 3781TP3     H123162   4.847   3.592   9.007  1.1092 -1.0329 -1.9248
 3781TP3     H223163   4.785   3.623   8.872 -1.3717 -1.3093 -0.8826
 3782TP3      O23164   2.408   0.086   1.420  0.8060 -0.5644 -0.4867
 3782TP3     H123165   2.415  -0.008   1.438  0.1148 -0.2221  1.8128
 3782TP3     H223166   2.314   0.100   1.403  0.8752 -0.2562 -0.6214
 3783TP3      O23167   2.552   5.174  10.012 -0.0484 -0.0757  0.0184
 3783TP3     H123168   2.604   5.133  10.081  0.8151  1.0996  0.1009
 3783TP3     H223169   2.563   5.268  10.026 -0.0151  0.1955 -1.5905
 3784TP3      O23170   4.593   2.222   3.004  0.0185  0.3207 -0.8056
 3784TP3     H123171   4.536   2.146   3.013  0.1330  0.1556 -1.4085
 3784TP3     H223172   4.576   2.254   2.915 -0.6969  1.5401 -0.2602
 3785TP3      O23173   3.733   2.151   9.448  0.2893 -0.2736 -0.2212
 3785TP3     H123174   3.721   2.097   9.526  0.5637  1.7496  1.3126
 3785TP3     H223175   3.778   2.094   9.386  2.0599 -1.3359  1.9133
 3786TP3      O23176   4.231   1.977   8.464  0.1777 -0.2536  0.1959
 3786TP3     H123177   4.141   2.008   8.470 -0.5605 -2.4596  1.0843
 3786TP3     H223178   4.252   1.945   8.551  2.2421  1.1579  0.3066
 3787TP3      O23179   3.429   4.931   7.311  0.3021 -0.2298 -0.3801
 3787TP3     H123180   3.508   4.891   7.275  1.1382  1.8282 -1.0064
 3787TP3     H223181   3.385   4.968   7.234  0.0269  0.7644  0.2388
 3788TP3      O23182   3.446   2.743   2.761  0.5962  0.1447  0.2030
 3788TP3     H123183   3.412   2.810   2.821  1.1621 -0.3167  1.0536
 3788TP3     H223184   3.375   2.679   2.754  0.7707 -0.1288  0.8979
 3789TP3      O23185   4.994   1.331   7.026  0.1967  0.5420 -0.5598
 3789TP3     H123186   4.985   1.331   7.122  0.1097 -1.8748 -0.5228
 3789TP3     H223187   5.018   1.242   7.004  1.8734  1.4464 -2.6943
 3790TP3      O23188   2.065   2.660   0.359 -0.8303 -0.2935 -0.1516
 3790TP3     H123189   2.095   2.715   0.431 -1.0114  0.4596 -0.6386
 3790TP3     H223190   1.971   2.677   0.355 -0.4307  1.8552 -2.3368
 3791TP3      O23191   5.158   1.255   8.086 -0.2044  0.3183  0.3420
 3791TP3     H123192   5.164   1.167   8.122 -0.4976  0.0367 -0.2652
 3791TP3     H223193   5.150   1.312   8.162 -3.3007 -0.4454  0.7351
 3792TP3      O23194   0.359   2.387   0.921 -0.8973 -0.1920 -0.5598
 3792TP3     H123195   0.443   2.368   0.963 -1.0615 -1.5510 -0.8084
 3792TP3     H223196   0.323   2.460   0.971  0.4166  0.3879 -0.4364
 3793TP3      O23197   2.900   0.449   8.083 -0.2439  0.4511 -0.5876
 3793TP3     H123198   2.983   0.419   8.046  0.3297  0.1891  0.8380
 3793TP3     H223199   2.918   0.460   8.177 -2.3606 -1.7207  0.1766
 3794TP3      O23200   4.806   1.105   0.800 -0.3583  0.6293 -0.1775
 3794TP3     H123201   4.793   1.192   0.763 -1.3643  0.2899 -0.6544
 3794TP3     H223202   4.742   1.050   0.755 -0.4817 -0.1355  0.8887
 3795TP3      O23203   0.168   3.044   0.631 -0.6779  0.2438  0.5759
 3795TP3     H123204   0.092   3.058   0.688 -1.7320 -1.0522 -0.4333
 3795TP3     H223205   0.131   3.003   0.553  1.1547 -0.9715  0.3049
 3796TP3      O23206   4.461   2.403   9.559  0.0309  0.1925 -0.0264
 3796TP3     H123207   4.478   2.309   9.555 -0.9137 -0.1201  1.9726
 3796TP3     H223208   4.532   2.443   9.509 -1.2696 -1.6771 -3.8089
 3797TP3      O23209   4.957   2.913   9.172  0.1913  0.4116  0.2362
 3797TP3     H123210   4.931   2.967   9.247 -1.7298  1.7820 -1.3115
 3797TP3     H223211   4.967   2.825   9.209 -0.5982  1.0446  2.1096
 3798TP3      O23212   4.364   1.213   9.741  0.3242  0.0668  0.0271
 3798TP3     H123213   4.293   1.199   9.679 -0.8147  0.9000  1.0782
 3798TP3     H223214   4.394   1.303   9.723  1.0749 -0.2481 -0.3521
 3799TP3      O23215   1.225   2.227   7.377  0.2624 -0.0377  0.0891
 3799TP3     H123216   1.296   2.229   7.313 -0.6061 -0.2174 -0.9228
 3799TP3     H223217   1.149   2.195   7.327 -0.5679  0.3126  1.0867
 3800TP3      O23218   4.429   4.478   1.664 -0.0040 -0.2685 -0.5857
 3800TP3     H123219   4.409   4.570   1.652  0.2992 -0.0946  0.1859
 3800TP3     H223220   4.384   4.434   1.592 -1.0807  0.3563 -0.3221
 3801TP3      O23221   4.170   2.847   2.687 -0.4582 -0.2780 -0.0716
 3801TP3     H123222   4.086   2.846   2.642 -0.9813 -0.3432  0.8896
 3801TP3     H223223   4.208   2.761   2.669  0.4539  0.5213 -2.3829
 3802TP3      O23224   3.488   4.965   2.106 -0.0926  0.0664  0.0298
 3802TP3     H123225   3.490   5.060   2.096 -1.0888  0.0695 -0.2388
 3802TP3     H223226   3.499   4.950   2.200  1.1230  0.3874 -0.0431
 3803TP3      O23227   3.381   1.094   1.496 -0.6967 -0.2005  0.1685
 3803TP3     H123228   3.365   1.052   1.581 -0.8143 -0.8161 -0.1463
 3803TP3     H223229   3.391   1.187   1.516  2.3697 -0.6490  1.2640
 3804TP3      O23230   5.088   3.785   1.666  0.0535  0.2870 -0.0948
 3804TP3     H123231   5.025   3.847   1.703  0.0003 -0.5333  1.2526
 3804TP3     H223232   5.170   3.833   1.663 -0.1678  0.6886  0.1716
 3805TP3      O23233   0.627   2.978   9.491 -0.2584 -0.1586 -0.3549
 3805TP3     H123234   0.562   2.912   9.468 -2.0260  1.2201  0.4398
 3805TP3     H223235   0.590   3.061   9.460 -0.2105  1.0256  2.4122
 3806TP3      O23236   0.877   5.120   2.187  0.1152 -0.2031  0.2924
 3806TP3     H123237   0.870   5.157   2.099 -0.2951  0.3724  0.5642
 3806TP3     H223238   0.940   5.175   2.233 -1.5497  1.0836  1.1435
 3807TP3      O23239   3.106   0.132   1.772 -0.2940  0.1787 -0.0665
 3807TP3     H123240   3.070   0.098   1.855 -1.2988 -1.4282 -1.0996
 3807TP3     H223241   3.078   0.223   1.770 -0.0735  0.3170  1.4483
 3808TP3      O23242   2.091   1.803   3.200 -0.6900 -0.3222 -1.2766
 3808TP3     H123243   2.042   1.749   3.138 -0.9007 -0.0676 -1.3353
 3808TP3     H223244   2.161   1.842   3.148 -1.3546  0.5415 -1.5508
 3809TP3      O23245   3.073   0.536   1.017 -0.0189 -0.2546  0.1266
 3809TP3     H123246   3.160   0.539   1.057 -0.7539  0.0978  1.7569
 3809TP3     H223247   3.069   0.616   0.963  0.8883 -0.6118 -0.5053
 3810TP3      O23248   5.000   1.477   1.801  0.7839 -0.1411  0.2288
 3810TP3     H123249   5.077   1.451   1.750  1.5776  0.5187  1.0450
 3810TP3     H223250   5.024   1.562   1.839 -1.4518  1.4935 -1.7775
 3811TP3      O23251   4.313   2.193   1.567  0.2099 -0.2799 -0.1303
 3811TP3     H123252   4.323   2.107   1.608  1.7397 -1.3965 -2.6352
 3811TP3     H223253   4.382   2.246   1.607 -0.7741 -0.1223  1.4677
 3812TP3      O23254   1.802   3.644   3.023 -0.1013  0.3193  0.0619
 3812TP3     H123255   1.837   3.660   3.111 -2.5758  0.3505  1.1134
 3812TP3     H223256   1.818   3.551   3.007  0.4941  0.3450  0.4773
 3813TP3      O23257   4.174   4.147   8.067  0.3424  0.3909  0.4221
 3813TP3     H123258   4.184   4.233   8.109  4.1653 -0.0405  0.6907
 3813TP3     H223259   4.183   4.165   7.973  0.3823  0.3546  0.4192
 3814TP3      O23260   1.079   5.046   0.614  0.0202  0.2064 -0.3144
 3814TP3     H123261   1.025   4.979   0.657 -2.3141  0.3412 -2.7885
 3814TP3     H223262   1.148   5.065   0.678 -1.3410 -1.8821  1.9752
 3815TP3      O23263   0.285   1.617   7.693  0.4769  0.3876 -0.4146
 3815TP3     H123264   0.372   1.630   7.656  0.1361 -0.7410 -1.7016
 3815TP3     H223265   0.230   1.594   7.618 -0.5843 -0.4527  0.5803
 3816TP3      O23266   4.605   1.574   1.802  0.6182  0.6898  0.3896
 3816TP3     H123267   4.627   1.575   1.709 -1.1541 -0.9278 -0.1136
 3816TP3     H223268   4.510   1.562   1.804  0.3427  2.5694  2.4263
 3817TP3      O23269   2.024   2.990   2.186  0.2777  0.1631  0.0368
 3817TP3     H123270   2.016   2.967   2.094  2.1936 -0.7971  0.0774
 3817TP3     H223271   1.971   2.925   2.232  0.4341 -0.1967 -0.2913
 3818TP3      O23272   3.495   3.913   9.433  0.5680 -0.1964 -0.2572
 3818TP3     H123273   3.472   3.862   9.355  1.4608 -0.2375 -0.5039
 3818TP3     H223274   3.495   3.850   9.504  0.3250 -0.2706 -0.3215
 3819TP3      O23275   4.238   2.355   0.521  0.5243  0.0831 -0.0076
 3819TP3     H123276   4.146   2.330   0.514  0.9634 -1.6390 -0.3646
 3819TP3     H223277   4.238   2.436   0.571 -1.1835  0.1221 -0.0151
 3820TP3      O23278   1.479   1.110   0.386 -0.3604  0.3326 -0.2976
 3820TP3     H123279   1.448   1.171   0.453  1.6557  1.2132 -0.1155
 3820TP3     H223280   1.524   1.165   0.322 -0.1632 -0.7688 -1.1322
 3821TP3      O23281   0.280   2.491   9.567 -0.4322 -0.9219  0.2902
 3821TP3     H123282   0.213   2.541   9.520  2.6141  0.6750 -2.7957
 3821TP3     H223283   0.301   2.545   9.644 -0.7625 -0.0507 -0.2210
 3822TP3      O23284   4.427   3.739   7.522 -0.2738  0.2837 -0.7571
 3822TP3     H123285   4.498   3.746   7.586 -0.1339  1.6879 -1.0337
 3822TP3     H223286   4.464   3.688   7.451 -0.6203 -1.8130  0.4945
 3823TP3      O23287   1.457   3.639   0.509 -0.3073 -0.1683  0.3728
 3823TP3     H123288   1.447   3.636   0.414 -1.3340 -0.7788  0.4891
 3823TP3     H223289   1.412   3.560   0.540  1.0163 -0.5885  1.2895
 3824TP3      O23290   0.762   0.680   6.878 -0.1027  0.6139 -0.0802
 3824TP3     H123291   0.732   0.686   6.969 -1.9564 -0.3901 -0.5614
 3824TP3     H223292   0.681   0.676   6.827  0.9039  0.9314 -1.7673
 3825TP3      O23293   2.870   3.799   1.418 -0.2300 -0.1052 -0.4540
 3825TP3     H123294   2.841   3.851   1.492 -1.2126 -0.8504 -0.2963
 3825TP3     H223295   2.963   3.782   1.435 -0.3150  0.2003  0.3219
 3826TP3      O23296   4.676   3.504   7.396 -0.5596 -0.2354  0.0168
 3826TP3     H123297   4.714   3.416   7.399 -0.3688 -0.2024 -1.1187
 3826TP3     H223298   4.711   3.547   7.474  2.3943  0.0137 -1.3010
 3827TP3      O23299   3.776   4.471   2.004 -0.3598 -0.4781  0.0453
 3827TP3     H123300   3.815   4.438   1.923  1.0330  0.9889  0.0622
 3827TP3     H223301   3.828   4.432   2.074 -1.4497 -1.6028  0.2580
 3828TP3      O23302   1.464   3.292   0.847  0.5074  0.5583  0.0264
 3828TP3     H123303   1.501   3.250   0.769 -1.0131 -0.7924 -0.0184
 3828TP3     H223304   1.395   3.348   0.813  1.2986  1.7162  0.2557
 3829TP3      O23305   2.828   1.754   2.479  0.4003 -0.2055  0.3498
 3829TP3     H123306   2.806   1.722   2.391 -0.2246  0.6495  0.1841
 3829TP3     H223307   2.898   1.817   2.465 -0.6351  0.9620  0.2975
 3830TP3      O23308   4.191   3.937   6.351 -0.1775 -0.2191  0.2945
 3830TP3     H123309   4.165   4.029   6.344 -0.9369 -0.2653  1.9736
 3830TP3     H223310   4.109   3.890   6.363  0.2137 -1.1220 -0.4676
 3831TP3      O23311   3.963   1.238   0.305  0.2719 -0.0512  0.1339
 3831TP3     H123312   4.009   1.154   0.306 -0.8525 -0.8172  4.1075
 3831TP3     H223313   3.881   1.220   0.258  1.1520 -0.4080 -1.3259
 3832TP3      O23314   3.235   2.538   2.754  0.1096 -0.3762 -0.6651
 3832TP3     H123315   3.279   2.454   2.765 -0.5040 -0.6906 -0.5650
 3832TP3     H223316   3.155   2.530   2.805 -0.6129 -0.2274 -1.7445
 3833TP3      O23317   4.676   0.929   8.258  0.4501 -0.2704  0.0456
 3833TP3     H123318   4.746   0.974   8.211  0.4574  1.6484  1.7515
 3833TP3     H223319   4.595   0.965   8.222  0.4036 -0.3106  0.1080
 3834TP3      O23320   4.650   2.460   2.898  0.0722  0.2979  0.5082
 3834TP3     H123321   4.676   2.413   2.976  1.0914 -0.6140 -0.3499
 3834TP3     H223322   4.561   2.429   2.880 -0.0703  0.3283  1.1546
 3835TP3      O23323   3.202   0.074   1.525 -0.0651  0.1992 -0.0342
 3835TP3     H123324   3.249   0.158   1.518  0.0861  0.0491 -0.8251
 3835TP3     H223325   3.172   0.072   1.616  1.3653  0.3532  0.4663
 3836TP3      O23326   1.742   1.786   7.182 -0.2855 -0.2020  0.5303
 3836TP3     H123327   1.656   1.827   7.188 -1.3235 -2.4524  3.0575
 3836TP3     H223328   1.735   1.727   7.107 -0.5916  0.3212  0.1425
 3837TP3      O23329   4.766   1.354   8.633  0.4616  0.3095 -0.0711
 3837TP3     H123330   4.859   1.376   8.641  0.8261 -1.1643 -0.0578
 3837TP3     H223331   4.751   1.287   8.700 -0.4708  0.1018 -0.4721
 3838TP3      O23332   1.733   2.990   0.460 -0.7580 -0.4882  0.1251
 3838TP3     H123333   1.779   2.948   0.533  0.9730  1.8602  0.5255
 3838TP3     H223334   1.646   3.010   0.495  0.4044  1.6336  2.0571
 3839TP3      O23335   2.005   3.669   6.730 -0.0029 -0.3910  0.3450
 3839TP3     H123336   1.951   3.727   6.783  0.2118 -0.2311  0.3911
 3839TP3     H223337   2.036   3.602   6.791 -1.5446 -1.4942 -0.0209
 3840TP3      O23338   4.290   3.774   2.411  0.2647  0.1077 -0.1776
 3840TP3     H123339   4.277   3.859   2.452  0.1522  0.3981 -0.7936
 3840TP3     H223340   4.262   3.787   2.320  0.8074 -0.4212 -0.4307
 3841TP3      O23341   0.303   3.673   3.470  0.0902  0.3896 -0.2147
 3841TP3     H123342   0.374   3.703   3.527  1.0413  0.9274 -1.6447
 3841TP3     H223343   0.308   3.729   3.393 -0.2453 -1.2479 -1.4898
 3842TP3      O23344   1.383   2.200   0.425 -0.2575 -0.4019  0.1816
 3842TP3     H123345   1.308   2.234   0.377 -0.1773  1.0762  1.0467
 3842TP3     H223346   1.448   2.178   0.358 -0.8329 -0.1216 -0.4697
 3843TP3      O23347   1.563   4.051   0.196  0.0989  0.0185 -0.6018
 3843TP3     H123348   1.583   3.968   0.152 -1.5964 -0.8227  0.1257
 3843TP3     H223349   1.613   4.047   0.278  0.5168  0.0128 -0.8530
 3844TP3      O23350   2.341   1.902   0.612  0.7133  0.1326 -0.0190
 3844TP3     H123351   2.401   1.976   0.602  0.7509  0.0902 -0.1081
 3844TP3     H223352   2.255   1.936   0.587  0.5860  0.3682  0.7117
 3845TP3      O23353   4.288   2.953   7.477  0.2238 -0.5091 -0.2808
 3845TP3     H123354   4.293   2.932   7.384  1.3146  0.4153 -0.4600
 3845TP3     H223355   4.377   2.942   7.509  0.0430  0.0546  0.4512
 3846TP3      O23356   1.562   2.744   8.097 -0.2679  0.0448 -0.3585
 3846TP3     H123357   1.654   2.726   8.075 -0.2529  0.0337 -0.2887
 3846TP3     H223358   1.553   2.712   8.187 -0.4611 -0.3810 -0.5245
 3847TP3      O23359   0.221   3.182   1.181  0.3262  0.0321  0.7987
 3847TP3     H123360   0.170   3.103   1.199 -0.0407  0.3305  1.0814
 3847TP3     H223361   0.302   3.150   1.140  0.6172 -0.5648  1.8050
 3848TP3      O23362   2.757   4.804   1.271  0.0274  0.3540 -0.2692
 3848TP3     H123363   2.804   4.748   1.333 -2.1504 -3.4008 -1.6638
 3848TP3     H223364   2.672   4.820   1.314  0.4251  2.3001 -0.1188
 3849TP3      O23365   2.696   2.890   2.399 -0.1318 -0.0265 -0.2783
 3849TP3     H123366   2.709   2.918   2.309 -0.9916  0.0564 -0.3887
 3849TP3     H223367   2.644   2.809   2.391  0.9771 -0.7965  0.0916
 3850TP3      O23368   2.235   0.329   9.849 -0.3878  0.8129  0.1187
 3850TP3     H123369   2.252   0.423   9.854 -0.2353  0.8689 -0.9998
 3850TP3     H223370   2.163   0.321   9.786  0.7609  0.0901 -1.1521
 3851TP3      O23371   1.079   2.191   1.694  0.3365 -0.3069 -0.5000
 3851TP3     H123372   1.033   2.195   1.610  0.3557  1.8974 -0.4414
 3851TP3     H223373   1.166   2.157   1.672  1.0777  2.1890 -1.7787
 3852TP3      O23374   1.632   5.186   2.389 -0.5323 -0.2778 -0.9164
 3852TP3     H123375   1.637   5.104   2.340 -1.4728 -0.0725 -1.3771
 3852TP3     H223376   1.625   5.253   2.322  1.2487  0.2988 -0.5795
 3853TP3      O23377   5.030   4.121   2.624  0.5709 -0.2256  0.5024
 3853TP3     H123378   5.114   4.095   2.588 -0.4464 -2.0646 -0.7401
 3853TP3     H223379   4.993   4.180   2.559  1.4744  1.8509  1.7685
 3854TP3      O23380   2.980   5.154   1.161 -0.1584 -0.3902 -0.3325
 3854TP3     H123381   2.923   5.190   1.229 -1.2927 -2.0479 -0.3507
 3854TP3     H223382   3.048   5.106   1.209  1.3758  1.6397 -0.3073
 3855TP3      O23383   3.987   1.051   1.880  0.5687  0.1439  0.0746
 3855TP3     H123384   3.939   1.114   1.933  0.1019 -0.0066 -0.1636
 3855TP3     H223385   4.051   1.104   1.832  1.0135  0.2750  0.7989
 3856TP3      O23386   0.626   4.914   0.216  0.4323 -0.0274  0.0959
 3856TP3     H123387   0.666   5.001   0.226  1.1595 -0.0966 -1.7827
 3856TP3     H223388   0.544   4.920   0.265 -0.3245  2.2994 -1.2893
 3857TP3      O23389   4.903   0.568   8.747 -0.6606 -0.0150  0.0209
 3857TP3     H123390   4.916   0.663   8.751  1.1552 -0.2475  2.4808
 3857TP3     H223391   4.829   0.556   8.688 -1.6385  2.9990  0.4561
 3858TP3      O23392   4.762   3.109  10.053 -0.2928 -0.0585  0.0169
 3858TP3     H123393   4.821   3.059  10.109  0.3175  1.6516  0.9862
 3858TP3     H223394   4.678   3.064  10.060  0.4609 -1.4840  0.0707
 3859TP3      O23395   2.345   1.075   2.880 -0.8377 -0.1455  0.0693
 3859TP3     H123396   2.287   1.095   2.807 -2.4542  2.1974  1.8463
 3859TP3     H223397   2.430   1.112   2.855 -0.4987 -1.9780 -1.7690
 3860TP3      O23398   0.749   1.774  10.104  0.3317 -0.2393 -0.3406
 3860TP3     H123399   0.822   1.810  10.154  0.9017  0.2445 -1.4796
 3860TP3     H223400   0.685   1.845  10.100 -0.1665 -0.6194  0.5452
 3861TP3      O23401   1.497   4.272   1.388  0.1399  0.1925  0.1251
 3861TP3     H123402   1.472   4.182   1.367 -0.4646  0.6920 -1.3764
 3861TP3     H223403   1.420   4.324   1.368  0.7170  1.1383  0.3026
 3862TP3      O23404   0.466   3.593   9.070 -0.2575 -0.1950 -0.3472
 3862TP3     H123405   0.550   3.627   9.101 -0.4479 -0.3085  0.2907
 3862TP3     H223406   0.412   3.671   9.056 -0.6039 -0.2008  0.8568
 3863TP3      O23407   4.022   1.793   1.656 -0.1917 -0.3546  0.1610
 3863TP3     H123408   4.040   1.710   1.612  0.1977 -0.0227 -0.3067
 3863TP3     H223409   4.011   1.856   1.585  2.6719  0.6701  0.5151
 3864TP3      O23410   3.343   4.456   3.118  0.5562  0.1562  0.5418
 3864TP3     H123411   3.398   4.408   3.179  0.4950  0.1221  0.5712
 3864TP3     H223412   3.300   4.523   3.172 -1.8441 -1.7760  1.1964
 3865TP3      O23413   2.102   1.762   1.101  0.2215  0.0685 -0.0724
 3865TP3     H123414   2.181   1.789   1.055  0.9947 -0.0636  1.1485
 3865TP3     H223415   2.083   1.834   1.161 -0.2028 -0.1798  0.0990
 3866TP3      O23416   4.899   3.016   0.428  1.2848 -0.4539 -0.0947
 3866TP3     H123417   4.955   2.942   0.451  1.1354 -0.6822 -0.4539
 3866TP3     H223418   4.810   2.986   0.449  1.2275 -0.3657 -0.2108
 3867TP3      O23419   3.650   2.957   8.337  0.1531 -0.2904  0.5624
 3867TP3     H123420   3.699   3.036   8.359 -0.3653  0.0517  0.4866
 3867TP3     H223421   3.718   2.890   8.326  0.8421  0.6872 -1.8687
 3868TP3      O23422   1.816   0.054   7.980 -0.2571 -0.7831 -0.2454
 3868TP3     H123423   1.881   0.104   8.030 -0.1067 -0.4057 -0.8048
 3868TP3     H223424   1.852  -0.034   7.975  1.6012  0.0028 -2.8525
 3869TP3      O23425   3.476   1.121   8.633 -0.7239  0.0232  0.8368
 3869TP3     H123426   3.516   1.098   8.549 -2.4037  0.0173  0.0014
 3869TP3     H223427   3.536   1.185   8.672  0.7580 -0.9751  0.2651
 3870TP3      O23428   1.224   4.748   1.031 -0.2547 -0.9519 -0.1443
 3870TP3     H123429   1.292   4.735   1.097  0.1539  0.9044 -0.1463
 3870TP3     H223430   1.264   4.717   0.949 -0.0989 -1.5655  0.1602
 3871TP3      O23431   0.141   4.506   8.057  0.6488 -0.3742 -0.1717
 3871TP3     H123432   0.109   4.435   8.002  1.0568  0.9030 -2.1449
 3871TP3     H223433   0.235   4.490   8.064  0.5513 -0.7163  0.4791
 3872TP3      O23434   0.765   4.741   0.494 -0.2341  0.3560 -0.2190
 3872TP3     H123435   0.778   4.834   0.512  0.8888  0.4144 -1.2237
 3872TP3     H223436   0.673   4.734   0.470  0.1485  1.5979 -2.2301
 3873TP3      O23437   2.293   3.212   9.129  0.1874 -0.2710  0.0501
 3873TP3     H123438   2.248   3.132   9.104  1.0280 -0.9472  0.6692
 3873TP3     H223439   2.366   3.183   9.184  0.5772  0.9035  0.1799
 3874TP3      O23440   3.242   2.736   8.295  0.4955  0.2037 -0.7985
 3874TP3     H123441   3.220   2.717   8.386 -0.0234  1.9020 -0.5192
 3874TP3     H223442   3.164   2.713   8.245  0.1735  0.8211 -0.5833
 3875TP3      O23443   5.262   4.771   1.627  0.2764 -0.1393  0.0158
 3875TP3     H123444   5.208   4.847   1.649 -0.4404 -0.6534  0.0649
 3875TP3     H223445   5.199   4.701   1.612  0.8281 -0.3099 -1.7125
 3876TP3      O23446   0.172   1.343   8.674  0.2395 -0.3997 -0.0148
 3876TP3     H123447   0.227   1.410   8.715  0.8932 -1.5151  0.9987
 3876TP3     H223448   0.232   1.291   8.621  0.2858 -1.8077  1.3284
 3877TP3      O23449   1.052   3.292   0.353  0.3692  1.2688 -0.0024
 3877TP3     H123450   0.993   3.227   0.313  1.4826 -0.8159  1.5413
 3877TP3     H223451   1.012   3.312   0.437  1.8689 -0.3244  1.1518
 3878TP3      O23452   4.630   3.818   9.833 -0.3659  0.3507 -0.3117
 3878TP3     H123453   4.641   3.908   9.864  1.9275  0.7222 -1.9770
 3878TP3     H223454   4.601   3.770   9.911 -1.5776  2.4647  0.6448
 3879TP3      O23455   4.443   1.013   8.162 -0.4631  0.2322  0.0079
 3879TP3     H123456   4.420   1.096   8.120 -0.9524 -0.6948 -1.6695
 3879TP3     H223457   4.360   0.981   8.198 -0.4777  0.0005 -0.2319
 3880TP3      O23458   4.647   1.881   8.193 -0.0169  0.3321  0.6286
 3880TP3     H123459   4.567   1.910   8.237 -1.2296 -0.9396 -0.6017
 3880TP3     H223460   4.651   1.934   8.113  0.1073  0.0541  0.4492
 3881TP3      O23461   0.669   1.586   2.003 -0.0232  0.0452 -0.2470
 3881TP3     H123462   0.750   1.605   1.955  0.1762  2.5905  0.9234
 3881TP3     H223463   0.606   1.651   1.970 -0.4661  0.5091  1.4256
 3882TP3      O23464   1.188   4.779   2.473 -0.5120  0.5125  0.7782
 3882TP3     H123465   1.107   4.748   2.513 -0.4842 -0.5147  0.0739
 3882TP3     H223466   1.171   4.777   2.379  0.7291 -0.9128  0.5585
 3883TP3      O23467   1.071   3.400   7.621  0.2251  0.3179  0.6356
 3883TP3     H123468   0.979   3.391   7.648  0.2908 -0.5858  0.5921
 3883TP3     H223469   1.108   3.312   7.633  0.1087 -0.3741 -2.9297
 3884TP3      O23470   5.257   1.911   9.512 -0.0867 -0.0273  0.1459
 3884TP3     H123471   5.204   1.838   9.481  2.4605 -2.5242  1.2110
 3884TP3     H223472   5.306   1.940   9.434 -1.1194  0.6390 -0.2828
 3885TP3      O23473   4.728   0.431   8.584  0.2098  0.0478  0.4670
 3885TP3     H123474   4.634   0.412   8.580  0.1826  0.3123 -0.3922
 3885TP3     H223475   4.768   0.364   8.527  0.2086  1.8427 -1.7885
 3886TP3      O23476   0.450   4.333   2.015  0.4354  0.0711  0.3822
 3886TP3     H123477   0.406   4.253   1.986  0.6669  0.7723 -2.1262
 3886TP3     H223478   0.433   4.337   2.109 -0.1031 -2.5750  0.4652
 3887TP3      O23479   5.241   0.409   7.605  0.3482 -0.8287 -0.0010
 3887TP3     H123480   5.266   0.365   7.687  0.0676  0.3800  0.7646
 3887TP3     H223481   5.191   0.485   7.634  0.1306 -0.4539 -1.3210
 3888TP3      O23482   5.285   3.508   9.885 -0.1007 -0.1138  0.1228
 3888TP3     H123483   5.256   3.584   9.835 -0.8876 -0.0518  0.6652
 3888TP3     H223484   5.274   3.534   9.977  0.6389 -0.4947  0.3277
 3889TP3      O23485   0.004   0.522   3.083  0.0552  0.3867 -0.4146
 3889TP3     H123486  -0.066   0.554   3.024  0.4467 -0.3667 -1.3063
 3889TP3     H223487   0.046   0.602   3.115 -3.2525  1.1211  2.8145
 3890TP3      O23488   3.113   1.911   8.178  0.3561  0.2578 -0.0189
 3890TP3     H123489   3.141   1.949   8.095 -0.5705 -0.5976 -0.7415
 3890TP3     H223490   3.151   1.969   8.245 -1.6050  2.9505 -1.0554
 3891TP3      O23491   5.080   4.580   1.572 -0.3699 -0.2827  0.0499
 3891TP3     H123492   5.061   4.529   1.493  0.6442  0.7191 -0.8793
 3891TP3     H223493   4.998   4.579   1.621 -1.3397 -0.1298 -1.4889
 3892TP3      O23494   4.001   1.782   9.013 -0.3126 -0.2711 -0.1726
 3892TP3     H123495   4.001   1.864   9.062  1.6876  0.5098 -1.3689
 3892TP3     H223496   3.917   1.740   9.035 -2.5085  3.1258 -1.2561
 3893TP3      O23497   3.017   5.271   8.561 -0.0916  0.1272 -0.1021
 3893TP3     H123498   3.012   5.277   8.465 -0.3239  0.5928 -0.0675
 3893TP3     H223499   3.082   5.204   8.578  0.9065  0.9455 -0.5903
 3894TP3      O23500   1.452   2.616   8.320  0.0062 -0.4844 -0.7686
 3894TP3     H123501   1.412   2.685   8.373  1.2200 -0.6694  0.4321
 3894TP3     H223502   1.468   2.544   8.381  1.9334 -0.5034 -1.2239
 3895TP3      O23503   2.557   4.589   2.210 -0.7201 -0.3293  0.4046
 3895TP3     H123504   2.497   4.555   2.144 -1.2829 -0.9286  1.2071
 3895TP3     H223505   2.565   4.682   2.189 -1.1327 -0.4467 -0.3197
 3896TP3      O23506   3.662   2.267   2.824  0.1834 -0.4464  0.2615
 3896TP3     H123507   3.722   2.295   2.755  1.1125 -0.0636  1.2108
 3896TP3     H223508   3.663   2.339   2.887 -1.0905 -0.5452  0.4178
 3897TP3      O23509   3.946   4.777   3.591 -0.1202 -0.0762  0.1891
 3897TP3     H123510   3.913   4.815   3.672  1.9354 -1.0657  1.5939
 3897TP3     H223511   3.898   4.694   3.582  0.2238 -0.3597  0.8743
 3898TP3      O23512   2.027   4.462  10.007 -0.1658 -0.2938  0.8579
 3898TP3     H123513   2.098   4.523  10.029  0.0769  0.8296 -2.3811
 3898TP3     H223514   1.959   4.479  10.071  0.4887  2.4129  0.9460
 3899TP3      O23515   4.119   2.271   0.998  0.2760 -0.5731  0.2497
 3899TP3     H123516   4.189   2.317   0.953  0.9493 -1.5078  0.3165
 3899TP3     H223517   4.140   2.178   0.987  0.0337 -0.8427  1.8011
 3900TP3      O23518   4.773   2.898   1.497 -0.1720 -0.4301  0.1924
 3900TP3     H123519   4.797   2.805   1.503 -3.8207 -1.6856 -1.9383
 3900TP3     H223520   4.718   2.914   1.574 -0.4765 -0.3595 -0.0386
 3901TP3      O23521   2.046   2.779   1.948  0.2884 -0.1190 -0.6175
 3901TP3     H123522   1.968   2.734   1.979  1.4171 -1.7072  0.0764
 3901TP3     H223523   2.062   2.744   1.861  1.4593 -1.5445  0.1229
 3902TP3      O23524   4.181   3.331   1.298  0.1433  0.1916 -0.1546
 3902TP3     H123525   4.251   3.269   1.317 -1.5977 -2.0864 -0.7362
 3902TP3     H223526   4.125   3.328   1.376 -0.1969  0.6651 -0.3753
 3903TP3      O23527   2.400   2.359   2.561  0.4098 -0.0265  0.0527
 3903TP3     H123528   2.443   2.350   2.646 -1.4142 -0.3775  1.0049
 3903TP3     H223529   2.466   2.333   2.497  1.5337 -0.6799  1.4219
 3904TP3      O23530   4.912   0.857   8.788  0.2592 -0.1938  0.0451
 3904TP3     H123531   4.832   0.910   8.788  0.6973  0.4869 -0.4697
 3904TP3     H223532   4.928   0.836   8.880 -0.9185 -0.9702  0.0873
 3905TP3      O23533   5.265   3.418   9.119  0.1559 -0.7443  0.5366
 3905TP3     H123534   5.300   3.397   9.033 -1.1343  0.6020 -0.3846
 3905TP3     H223535   5.193   3.356   9.132  0.3290 -0.9253  0.6404
 3906TP3      O23536   3.908   2.203   9.119  0.0209  0.9246  0.0386
 3906TP3     H123537   3.834   2.220   9.062 -0.0181  0.5109 -0.0360
 3906TP3     H223538   3.918   2.283   9.171 -1.0502  0.6466  0.6953
 3907TP3      O23539   2.910   2.704   7.206 -0.1494  0.1536  0.7781
 3907TP3     H123540   2.911   2.634   7.272  2.2806 -0.3911  0.2632
 3907TP3     H223541   2.956   2.777   7.248  1.1311 -0.0860 -0.1373
 3908TP3      O23542   0.203   5.084   0.971  0.5125  0.1634 -0.2770
 3908TP3     H123543   0.111   5.100   0.988  0.0121 -2.2914 -0.3926
 3908TP3     H223544   0.230   5.021   1.038  1.4640 -0.9479 -1.6406
 3909TP3      O23545   0.783   2.807   8.716 -0.2392 -0.1880 -0.4119
 3909TP3     H123546   0.809   2.718   8.694 -3.6063 -1.3773 -0.1499
 3909TP3     H223547   0.751   2.801   8.806 -2.4106  0.7672 -1.0538
 3910TP3      O23548   1.691   0.671   2.843 -0.2088 -0.2094  0.1117
 3910TP3     H123549   1.647   0.727   2.908 -2.0777 -0.9616 -0.4475
 3910TP3     H223550   1.619   0.634   2.791  1.1560 -0.9152 -1.3396
 3911TP3      O23551   3.171   4.052   0.327 -0.2534 -0.3711  0.2583
 3911TP3     H123552   3.078   4.041   0.348 -0.3604 -0.6022 -0.3245
 3911TP3     H223553   3.176   4.137   0.283 -0.3532 -0.7955 -0.6035
 3912TP3      O23554   0.830   0.971   0.206 -0.5380 -0.0411  0.0073
 3912TP3     H123555   0.774   1.022   0.147 -1.1099  0.8350  1.2531
 3912TP3     H223556   0.882   1.037   0.253  2.4232 -0.8533 -1.8679
 3913TP3      O23557   4.335   0.543   7.213 -0.1548  0.2034  0.4045
 3913TP3     H123558   4.256   0.492   7.195 -0.3284  0.8967 -0.9895
 3913TP3     H223559   4.362   0.517   7.301 -0.5181 -1.8717 -0.0613
 3914TP3      O23560   1.646   3.663   8.801  0.5060  0.1986  0.0975
 3914TP3     H123561   1.710   3.593   8.809  2.3291  1.7694 -0.1032
 3914TP3     H223562   1.698   3.743   8.790 -1.4975  1.4323 -1.0826
 3915TP3      O23563   4.525   1.132   6.734  0.6077  0.2607  0.1935
 3915TP3     H123564   4.562   1.046   6.755 -0.1769  0.2946  1.8944
 3915TP3     H223565   4.585   1.195   6.773 -0.4759  0.3501  1.8314
 3916TP3      O23566   2.556   4.376   0.024  0.1730  0.6023  0.5077
 3916TP3     H123567   2.471   4.381  -0.020  0.4551 -1.9405 -0.4918
 3916TP3     H223568   2.605   4.451  -0.009 -0.5013  0.1367 -1.6663
 3917TP3      O23569   4.541   0.885   9.348  0.1614 -0.0229  0.2008
 3917TP3     H123570   4.529   0.946   9.276  0.3337  2.1151  1.8898
 3917TP3     H223571   4.636   0.873   9.354  0.4869  2.6262  2.1638
 3918TP3      O23572   5.283   1.400   7.333 -0.4445  0.0056  0.1430
 3918TP3     H123573   5.358   1.458   7.338  0.1961 -0.6295 -1.3993
 3918TP3     H223574   5.314   1.317   7.368 -0.4863 -0.1978 -0.2944
 3919TP3      O23575   3.922   3.320   9.813 -0.3709  0.0833 -0.5383
 3919TP3     H123576   3.932   3.415   9.816 -0.8771  0.1168  0.6320
 3919TP3     H223577   3.993   3.290   9.756 -1.4884  1.3197 -2.6982
 3920TP3      O23578   2.922   0.995   9.807 -0.2958  0.1203  0.0301
 3920TP3     H123579   2.943   0.902   9.816  0.4733 -0.1029 -3.0016
 3920TP3     H223580   2.826   0.998   9.812 -0.3953 -1.0136 -0.7756
 3921TP3      O23581   2.924   0.444   0.717 -0.0061  0.5364 -0.0237
 3921TP3     H123582   2.921   0.539   0.722  0.0452  0.4898  0.9071
 3921TP3     H223583   3.015   0.421   0.734  0.2137  0.3646 -1.2952
 3922TP3      O23584   1.922   1.465   0.032  0.6130  0.3231  0.1597
 3922TP3     H123585   2.004   1.446  -0.013 -0.1434  0.6887 -1.4340
 3922TP3     H223586   1.940   1.543   0.084  1.6187 -0.3492  0.8737
 3923TP3      O23587   0.456   2.634   7.308 -0.2961  0.3628  1.0372
 3923TP3     H123588   0.509   2.662   7.233  1.9678 -0.0859  2.3552
 3923TP3     H223589   0.371   2.611   7.271  0.4300  1.0960 -1.2299
 3924TP3      O23590   4.723   0.854   9.711  0.2639 -0.6446 -0.0576
 3924TP3     H123591   4.744   0.926   9.771 -1.5226 -1.0182  1.0998
 3924TP3     H223592   4.724   0.893   9.624  0.9240  0.3764  0.3934
 3925TP3      O23593   4.023   4.098   7.572 -0.3024  0.5718 -0.1818
 3925TP3     H123594   4.091   4.032   7.557  0.6026  1.2130  0.9077
 3925TP3     H223595   3.951   4.049   7.611  1.3522  0.5001  3.1919
 3926TP3      O23596   4.821   0.172   8.046  0.3948 -0.1922 -0.7728
 3926TP3     H123597   4.826   0.254   8.095  0.1773 -0.3809 -0.4195
 3926TP3     H223598   4.727   0.158   8.034  0.2152 -1.8477  1.7417
 3927TP3      O23599   4.682   1.010   1.157  0.2798  0.4476  0.2151
 3927TP3     H123600   4.615   0.941   1.162  1.5475 -0.7832  0.6404
 3927TP3     H223601   4.633   1.087   1.127 -1.2610 -0.5004  0.1385
 3928TP3      O23602   0.431   0.871   8.907 -0.2062 -0.1947 -0.0905
 3928TP3     H123603   0.427   0.777   8.894 -1.6236 -0.0899 -0.5702
 3928TP3     H223604   0.489   0.883   8.982  0.2425 -1.4225 -0.2319
 3929TP3      O23605   5.154   3.100   2.011 -0.2814  0.5550  0.2346
 3929TP3     H123606   5.224   3.050   1.970  0.1198  0.9410  0.4460
 3929TP3     H223607   5.083   3.037   2.022  0.8922 -0.5039  2.2915
 3930TP3      O23608   3.575   1.256   9.455  0.4348  0.3525 -0.2606
 3930TP3     H123609   3.669   1.239   9.467  0.2268 -1.0025 -0.3657
 3930TP3     H223610   3.549   1.197   9.385 -0.7603 -0.2179  0.6314
 3931TP3      O23611   0.974   4.376   8.013  0.1024 -0.0778  0.1680
 3931TP3     H123612   0.980   4.365   8.107 -0.3511 -0.3902  0.1672
 3931TP3     H223613   0.880   4.371   7.994  0.0822  1.2645 -0.1497
 3932TP3      O23614   3.092   0.200   9.210 -0.1932  0.0901 -0.6600
 3932TP3     H123615   3.150   0.173   9.138 -0.6790 -0.5665 -0.8137
 3932TP3     H223616   3.007   0.162   9.187  0.2244 -2.4291  1.6009
 3933TP3      O23617   0.761   2.430  10.017 -0.5260 -0.0280 -0.0612
 3933TP3     H123618   0.830   2.394   9.962 -1.3062 -0.0607 -1.0447
 3933TP3     H223619   0.796   2.426  10.106  0.2072 -1.2720 -0.3879
 3934TP3      O23620   0.636   1.845   1.667 -0.1395  0.1379 -0.3392
 3934TP3     H123621   0.679   1.765   1.636  0.9316  0.4528  0.2558
 3934TP3     H223622   0.606   1.823   1.755  2.1460  0.9997  0.7479
 3935TP3      O23623   3.499   3.214   3.260  0.7439 -0.5267  0.3981
 3935TP3     H123624   3.444   3.191   3.334 -0.2852 -1.9058 -0.7426
 3935TP3     H223625   3.562   3.142   3.253  2.3550  0.7150  1.2917
 3936TP3      O23626   4.518   1.840   0.446  0.1722 -0.1496 -0.1101
 3936TP3     H123627   4.541   1.856   0.355 -0.9902 -0.4180 -0.4759
 3936TP3     H223628   4.595   1.865   0.496  0.7057  0.3072 -1.1453
 3937TP3      O23629   1.215   0.845   1.801  0.1195  0.1387  0.8208
 3937TP3     H123630   1.224   0.852   1.706  0.7902 -0.1738  0.8572
 3937TP3     H223631   1.129   0.806   1.814  0.7920 -1.6153  0.2732
 3938TP3      O23632   4.199   3.516   2.189  0.0442  0.2500  0.5573
 3938TP3     H123633   4.215   3.611   2.182  1.8346 -0.1182 -2.2102
 3938TP3     H223634   4.111   3.504   2.155  0.6309  0.8007 -1.3119
 3939TP3      O23635   3.626   4.904   2.891 -0.1458  0.1367  0.1080
 3939TP3     H123636   3.634   4.811   2.871 -0.3247  0.0972  0.2126
 3939TP3     H223637   3.532   4.916   2.909  0.2107 -0.1502  2.4414
 3940TP3      O23638   4.628   4.477   0.659 -0.4022 -0.2437  0.2250
 3940TP3     H123639   4.662   4.431   0.737 -0.2330 -1.8059 -0.7187
 3940TP3     H223640   4.661   4.566   0.667 -1.1338 -0.1145  2.3930
 3941TP3      O23641   1.614   0.518   9.935  0.1194  0.5072 -0.6819
 3941TP3     H123642   1.639   0.488   9.848  0.7355 -1.5709  0.1609
 3941TP3     H223643   1.520   0.498   9.942  0.8378 -3.3308  0.5252
 3942TP3      O23644   4.274   0.509   2.569  0.7473 -0.0827  0.1394
 3942TP3     H123645   4.333   0.569   2.523  1.5017  1.0242  2.3831
 3942TP3     H223646   4.228   0.565   2.633 -0.0043 -1.5658  0.9585
 3943TP3      O23647   2.028   1.051   2.410 -0.2900 -0.3448 -0.5280
 3943TP3     H123648   1.966   1.044   2.482 -0.4984 -1.6920 -0.8085
 3943TP3     H223649   2.038   0.962   2.378  1.0808 -0.0119 -1.1013
 3944TP3      O23650   3.588   3.374   3.759  0.3368 -0.6861  0.3318
 3944TP3     H123651   3.641   3.315   3.704 -0.1475 -1.5490  0.7753
 3944TP3     H223652   3.498   3.356   3.733  0.1354 -0.7210  1.0510
 3945TP3      O23653   1.444   4.818   8.598  0.6457  0.2897 -0.0551
 3945TP3     H123654   1.464   4.758   8.670  0.1295  0.4887  0.2566
 3945TP3     H223655   1.421   4.761   8.524  1.3451  0.0805 -0.1178
 3946TP3      O23656   3.913   3.780   8.494 -0.3092  0.0582  0.3021
 3946TP3     H123657   3.942   3.746   8.409 -0.8593  0.7192 -0.1620
 3946TP3     H223658   3.842   3.721   8.520 -0.2089 -0.0844  0.2576
 3947TP3      O23659   5.220   4.744   1.261  0.2724 -0.4133 -0.3552
 3947TP3     H123660   5.259   4.703   1.339  1.7079 -1.1734 -1.4259
 3947TP3     H223661   5.126   4.746   1.280  0.5090 -1.2730  1.0814
 3948TP3      O23662   2.395   0.509   0.353  0.6745 -0.7834 -0.4792
 3948TP3     H123663   2.448   0.462   0.417  0.3779  0.3322  0.6301
 3948TP3     H223664   2.456   0.568   0.310  0.3482  0.7963  1.0812
 3949TP3      O23665   3.425   4.700   9.668 -0.1452  0.3067 -0.6943
 3949TP3     H123666   3.482   4.676   9.596 -0.2329  1.9687 -1.3421
 3949TP3     H223667   3.422   4.621   9.723  1.3968 -0.3689 -1.5174
 3950TP3      O23668   3.047   5.154   8.030 -0.4968  0.1993  0.0092
 3950TP3     H123669   3.045   5.134   7.936 -3.0614 -3.4679  0.6128
 3950TP3     H223670   2.974   5.215   8.043 -0.4559  0.3210 -0.3236
 3951TP3      O23671   2.999   2.855   8.809  0.4486  0.2006 -0.3833
 3951TP3     H123672   3.035   2.837   8.896 -0.0907  0.1317 -0.1682
 3951TP3     H223673   2.916   2.898   8.826  0.3962  0.3003 -0.8699
 3952TP3      O23674   3.770   2.539   8.605 -0.1306 -0.0965 -0.1993
 3952TP3     H123675   3.839   2.479   8.573  1.4686  1.9681 -0.8587
 3952TP3     H223676   3.806   2.576   8.686 -0.5682  0.8073 -0.4042
 3953TP3      O23677   4.505   3.714   9.062  0.3631 -0.5121 -0.3967
 3953TP3     H123678   4.583   3.691   9.012  1.1348  0.1811  0.4465
 3953TP3     H223679   4.435   3.662   9.023  0.8299  0.2950 -2.4776
 3954TP3      O23680   1.363   0.720   6.927 -0.4312 -0.1785 -0.2239
 3954TP3     H123681   1.295   0.715   6.861  0.2506 -0.1095 -0.9462
 3954TP3     H223682   1.398   0.631   6.933  0.0749 -0.0019 -0.5638
 3955TP3      O23683   4.110   4.397   1.317 -0.0258 -0.3966  0.2256
 3955TP3     H123684   4.198   4.418   1.348 -0.5274  0.7974  0.9331
 3955TP3     H223685   4.094   4.461   1.248 -0.4497 -0.4154  0.3048
 3956TP3      O23686   5.132   0.794   8.610  0.7850  0.1647  0.5740
 3956TP3     H123687   5.067   0.848   8.655  0.8285  0.1196  0.6926
 3956TP3     H223688   5.084   0.752   8.538  0.6602  0.0537  0.7211
 3957TP3      O23689   0.660   5.289   8.563  0.1804 -0.0224 -0.4348
 3957TP3     H123690   0.735   5.252   8.518  0.3145 -0.4402  0.1253
 3957TP3     H223691   0.601   5.315   8.492  0.9046  0.4394 -0.8796
 3958TP3      O23692   4.934   1.051   0.533 -0.0820 -0.1337  0.2768
 3958TP3     H123693   4.989   0.973   0.538  0.5388  0.2041 -1.0302
 3958TP3     H223694   4.903   1.064   0.623 -0.8652 -2.3469  0.3933
 3959TP3      O23695   2.935   0.303   6.881 -0.7922 -0.5418 -0.1011
 3959TP3     H123696   2.856   0.356   6.890  0.1397  0.7187  0.8123
 3959TP3     H223697   2.938   0.250   6.961  0.4697  1.0789  0.9758
 3960TP3      O23698   1.731   2.009   9.677 -1.3022 -0.1426  0.4385
 3960TP3     H123699   1.742   1.994   9.771 -2.2542  0.0644  0.5941
 3960TP3     H223700   1.713   1.923   9.640  1.7315 -0.7017 -0.0038
 3961TP3      O23701   4.945   4.450   9.052  0.9499  0.2929  0.5048
 3961TP3     H123702   4.996   4.522   9.017 -0.0769  1.3372  1.0839
 3961TP3     H223703   4.855   4.482   9.052  0.5674 -0.7071  1.4860
 3962TP3      O23704   0.473   3.641   0.713  0.1679 -0.0338 -0.1251
 3962TP3     H123705   0.505   3.599   0.793  0.3958  1.4667  0.6056
 3962TP3     H223706   0.397   3.589   0.687 -0.1793 -0.2946  1.3272
 3963TP3      O23707   0.777   5.116   7.340 -0.0661  0.3113 -0.6612
 3963TP3     H123708   0.693   5.153   7.311 -0.9321 -0.9988  0.0699
 3963TP3     H223709   0.811   5.072   7.262  0.3485  1.4984 -1.1773
 3964TP3      O23710   3.957   1.932   0.660 -0.3312  0.1135 -1.0679
 3964TP3     H123711   4.025   1.869   0.686 -0.2216  1.1663  1.4621
 3964TP3     H223712   3.877   1.880   0.655 -0.2804 -0.2607  1.1748
 3965TP3      O23713   1.210   3.774   9.762 -0.2323 -0.0828  0.0778
 3965TP3     H123714   1.139   3.825   9.802 -0.1775 -1.0799  1.5500
 3965TP3     H223715   1.165   3.704   9.715 -0.2489 -0.8557  1.2109
 3966TP3      O23716   1.106   3.626   8.520  0.5706 -0.0223  0.4199
 3966TP3     H123717   1.165   3.677   8.576  2.2069 -0.9163 -0.4027
 3966TP3     H223718   1.038   3.595   8.579  0.5960  1.4914  1.3052
 3967TP3      O23719   2.626   2.017   9.486  0.0423  0.1090 -0.1513
 3967TP3     H123720   2.681   2.050   9.557 -0.4388 -0.1881  0.3676
 3967TP3     H223721   2.616   2.091   9.427 -0.9630  0.9026  0.9593
 3968TP3      O23722   3.313   1.253   9.239  0.0125  0.0028 -0.2586
 3968TP3     H123723   3.335   1.346   9.240  0.5098 -0.1082  0.9513
 3968TP3     H223724   3.286   1.234   9.330  2.3675 -1.5848  0.1805
 3969TP3      O23725   3.571   4.161  10.135 -0.4042 -0.6507  0.0694
 3969TP3     H123726   3.652   4.182  10.088 -0.1588  0.4892  0.9593
 3969TP3     H223727   3.505   4.158  10.067  0.1326 -0.0866 -0.4955
 3970TP3      O23728   0.694   3.175   2.289 -0.2777 -0.1893  0.7225
 3970TP3     H123729   0.659   3.103   2.235  0.0533 -1.1492  1.7463
 3970TP3     H223730   0.784   3.186   2.258 -0.7068  0.6554 -0.2842
 3971TP3      O23731   1.964   3.099   1.902  0.4290 -0.7454 -0.2318
 3971TP3     H123732   1.877   3.061   1.916 -0.0609  0.3996 -0.0572
 3971TP3     H223733   2.006   3.041   1.839 -0.4783 -1.2833 -0.3559
 3972TP3      O23734   0.001   2.529   0.474  0.4008 -0.3633  0.2872
 3972TP3     H123735  -0.032   2.519   0.384 -1.2682 -0.8886  0.9368
 3972TP3     H223736   0.005   2.439   0.508  1.2654 -0.1902  0.6786
 3973TP3      O23737   1.425   1.159   8.657 -0.2607  0.5228  0.4549
 3973TP3     H123738   1.465   1.225   8.713  0.0630  0.2172  0.5897
 3973TP3     H223739   1.493   1.092   8.646 -0.6231  0.1525  0.4235
 3974TP3      O23740   5.255   2.545   1.033  0.3936 -0.5358 -0.2709
 3974TP3     H123741   5.315   2.574   0.964  0.9832  0.5638  0.6629
 3974TP3     H223742   5.169   2.574   1.003  0.5585 -0.5597 -0.7897
 3975TP3      O23743   2.094   2.855   0.572  0.4275  0.0852  0.8172
 3975TP3     H123744   2.017   2.877   0.623 -1.2502 -0.0161 -1.5002
 3975TP3     H223745   2.098   2.924   0.505  1.3459 -0.8450 -0.1130
 3976TP3      O23746   5.023   2.949   8.475  0.0569  0.8121  0.2862
 3976TP3     H123747   4.947   2.939   8.533 -0.5192 -1.5833 -0.7507
 3976TP3     H223748   5.098   2.928   8.530 -0.2620  0.8499  0.7451
 3977TP3      O23749   4.111   3.905   8.916 -0.4175 -1.0554  0.0630
 3977TP3     H123750   4.096   3.811   8.911  0.1527 -1.1231 -0.5102
 3977TP3     H223751   4.055   3.942   8.848  0.2794 -1.0993 -0.5425
 3978TP3      O23752   2.539   3.491   8.154  0.5105 -0.0544 -0.4352
 3978TP3     H123753   2.530   3.529   8.067  0.1373 -0.9274 -0.7921
 3978TP3     H223754   2.600   3.549   8.199 -0.6152  1.3963 -0.6921
 3979TP3      O23755   4.146   4.066   1.361 -0.9650 -0.0675  0.0237
 3979TP3     H123756   4.091   4.101   1.431  1.5594  0.5052  1.8348
 3979TP3     H223757   4.234   4.094   1.383 -0.0121  0.0831 -3.4000
 3980TP3      O23758   4.427   2.857   8.024 -0.3059  0.4873 -0.1814
 3980TP3     H123759   4.468   2.821   8.102 -1.0502  0.5348  0.2379
 3980TP3     H223760   4.338   2.878   8.051 -0.5981  0.4280 -1.0617
 3981TP3      O23761   2.990   3.702   1.051  0.2848 -0.1303  0.0726
 3981TP3     H123762   2.983   3.628   1.112  1.9125  0.7802  1.4454
 3981TP3     H223763   3.060   3.676   0.991  0.8685  0.2881  0.5655
 3982TP3      O23764   0.279   4.425   9.413  0.3127 -0.2504 -0.0452
 3982TP3     H123765   0.260   4.359   9.347 -1.1424 -0.4991  0.5822
 3982TP3     H223766   0.279   4.508   9.365 -0.1202 -0.4879 -0.4552
 3983TP3      O23767   3.252   2.028   8.845  0.3923  0.1045 -0.4407
 3983TP3     H123768   3.188   2.035   8.774 -0.0718  2.1662  0.0912
 3983TP3     H223769   3.295   2.114   8.846  0.5346  0.0575  1.6118
 3984TP3      O23770   2.104   4.190  10.034 -0.1071 -0.2666 -0.0651
 3984TP3     H123771   2.041   4.224  10.096 -0.0556 -0.7265  0.2395
 3984TP3     H223772   2.055   4.129   9.979  0.2165 -1.1910  0.6416
 3985TP3      O23773   1.039   4.039   9.337 -0.4800 -0.2615 -0.3536
 3985TP3     H123774   0.986   4.081   9.405 -0.6285 -3.1839  1.5395
 3985TP3     H223775   1.129   4.055   9.364 -0.5329 -0.9511  0.2660
 3986TP3      O23776   1.386   3.304   9.623 -0.7447 -0.4509  0.0207
 3986TP3     H123777   1.355   3.394   9.635  0.9873 -0.0537  2.0873
 3986TP3     H223778   1.306   3.251   9.624 -2.0215  1.1403 -3.3391
 3987TP3      O23779   2.731   4.601  10.130 -0.6293 -0.3037 -0.1553
 3987TP3     H123780   2.678   4.651  10.194 -1.2215 -0.2790 -0.6561
 3987TP3     H223781   2.821   4.629  10.148 -0.7045 -0.8055  1.1268
 3988TP3      O23782   2.064   4.921   1.469  0.4500  0.6940 -0.2150
 3988TP3     H123783   2.014   4.840   1.475  0.8072  0.3853 -1.1955
 3988TP3     H223784   2.022   4.980   1.532  0.4609 -0.3876  0.8335
 3989TP3      O23785   4.860   3.148   2.774 -0.4355  0.6841 -0.3245
 3989TP3     H123786   4.907   3.228   2.796  1.3737 -0.5190  0.4399
 3989TP3     H223787   4.866   3.094   2.853 -2.8213  0.2896 -0.3250
 3990TP3      O23788   2.015   1.867   1.586  0.2521 -0.4561  0.5665
 3990TP3     H123789   2.101   1.834   1.563  0.7732  0.7351  0.7169
 3990TP3     H223790   2.032   1.944   1.640 -0.8150  1.6729 -1.9359
 3991TP3      O23791   3.930   3.660   7.496  0.2692  0.0313 -0.1526
 3991TP3     H123792   3.940   3.755   7.488  1.0222  0.1494  1.7887
 3991TP3     H223793   4.020   3.627   7.499  0.0089 -0.7198 -0.5079
 3992TP3      O23794   2.108   4.792   0.725 -0.7266 -0.2999  0.2927
 3992TP3     H123795   2.024   4.791   0.771 -0.9185 -1.7977 -0.0428
 3992TP3     H223796   2.110   4.710   0.676  0.1910  0.5099 -1.0915
 3993TP3      O23797   2.336   0.107   7.900 -0.0210  0.4163 -0.1568
 3993TP3     H123798   2.423   0.069   7.913  0.4164  0.9276 -1.4351
 3993TP3     H223799   2.300   0.059   7.826 -1.0751 -0.1686  0.7056
 3994TP3      O23800   3.424   4.875   6.299  0.3518 -0.0287 -0.1736
 3994TP3     H123801   3.486   4.936   6.338  1.1706 -0.1108 -1.2998
 3994TP3     H223802   3.349   4.930   6.274 -0.9246 -0.1933  2.8414
 3995TP3      O23803   2.534   4.885   3.817  0.2762  0.3042  0.2648
 3995TP3     H123804   2.494   4.917   3.736  1.8788  0.4368 -0.5092
 3995TP3     H223805   2.480   4.809   3.842 -0.8307  0.8632 -0.3614
 3996TP3      O23806   0.622   0.091   0.255  0.6476  0.1479 -0.1299
 3996TP3     H123807   0.661   0.005   0.238  0.8234  0.2977 -0.4769
 3996TP3     H223808   0.671   0.152   0.200 -0.6592  0.2150 -1.2988
 3997TP3      O23809   1.552   0.522   2.475 -0.0072  0.0754 -0.4618
 3997TP3     H123810   1.508   0.531   2.560  0.8243 -0.5213  0.0398
 3997TP3     H223811   1.536   0.605   2.432  2.1592  1.6350  1.5138
 3998TP3      O23812   0.360   4.451   7.678 -0.1584 -0.5901 -0.3375
 3998TP3     H123813   0.416   4.497   7.741  1.2059 -2.1510 -0.3216
 3998TP3     H223814   0.282   4.505   7.671  0.4514  0.5863  1.2774
 3999TP3      O23815   0.031   1.680   9.973 -0.2976  0.4239 -0.7194
 3999TP3     H123816   0.074   1.596   9.991 -0.1431  1.0954  2.7980
 3999TP3     H223817   0.028   1.685   9.878  1.1595 -2.8027 -1.0906
 4000TP3      O23818   4.613   2.023   9.952  0.1480  0.7638 -0.4636
 4000TP3     H123819   4.530   1.976   9.960 -0.3708  1.9298  2.0488
 4000TP3     H223820   4.587   2.113   9.930  0.9105  0.7094 -1.6772
 4001TP3      O23821   0.348   2.052   0.825  0.3680 -0.1012 -0.0485
 4001TP3     H123822   0.360   2.134   0.777  3.0818 -0.3117  0.0825
 4001TP3     H223823   0.272   2.011   0.783 -0.4042  1.9617 -0.8248
 4002TP3      O23824   2.803   1.796   7.907 -0.6833 -0.3660  0.7970
 4002TP3     H123825   2.751   1.841   7.973 -0.3319  0.0141  0.8178
 4002TP3     H223826   2.880   1.852   7.894 -0.7689 -0.4035  0.0376
 4003TP3      O23827   2.034   4.361   8.661 -0.1763  0.1375 -0.6403
 4003TP3     H123828   2.033   4.268   8.641  0.1200 -0.1337  0.5383
 4003TP3     H223829   1.962   4.373   8.723  1.6544  0.0838  1.6459
 4004TP3      O23830   1.783   2.407   7.661 -0.2785 -0.8590  0.0293
 4004TP3     H123831   1.852   2.473   7.656  0.5133 -1.7394 -1.2869
 4004TP3     H223832   1.707   2.454   7.696  1.2301 -0.1042  2.5317
 4005TP3      O23833   3.194   0.349   2.028 -0.4200 -0.0376  0.3345
 4005TP3     H123834   3.285   0.340   1.999  0.1155  1.6329  1.3661
 4005TP3     H223835   3.142   0.347   1.948  0.6443  0.2656 -0.3713
 4006TP3      O23836   3.281   2.857   0.403  0.5965  0.0152  0.4481
 4006TP3     H123837   3.333   2.889   0.329  1.2375 -1.2806  0.3029
 4006TP3     H223838   3.218   2.797   0.364  0.0164  0.3693  0.8141
 4007TP3      O23839   4.747   3.945   2.471 -0.4861 -0.3411 -0.2828
 4007TP3     H123840   4.753   3.850   2.461 -0.4924 -0.3706 -0.0252
 4007TP3     H223841   4.818   3.980   2.417  0.7924 -0.5835  1.1792
 4008TP3      O23842   0.200   2.235   0.440 -0.7702  0.2260  0.1980
 4008TP3     H123843   0.272   2.197   0.491  0.2837  1.2695 -0.4515
 4008TP3     H223844   0.125   2.232   0.499 -0.4406 -1.7396  0.5628
 4009TP3      O23845   4.853   3.171   0.700  0.1314  0.1174  0.6080
 4009TP3     H123846   4.894   3.239   0.754  0.6475  0.4361 -0.1639
 4009TP3     H223847   4.909   3.166   0.622  0.0305 -1.1037  0.6003
 4010TP3      O23848   2.458   3.804   8.376 -0.2827 -0.9443 -0.0879
 4010TP3     H123849   2.364   3.820   8.370 -0.0727  0.5917  0.3578
 4010TP3     H223850   2.470   3.757   8.459 -0.6850 -1.5717 -0.3735
 4011TP3      O23851   5.057   4.213   9.787  0.2181  0.0473 -0.0934
 4011TP3     H123852   5.138   4.245   9.825  0.7015 -1.6688  0.3957
 4011TP3     H223853   5.043   4.127   9.827 -2.2436  0.5917  0.4281
 4012TP3      O23854   3.950   4.295   7.406 -0.1157  0.0263 -0.4457
 4012TP3     H123855   3.982   4.227   7.465  0.3365  0.6167  0.0042
 4012TP3     H223856   3.959   4.376   7.456 -0.6794  0.4156 -0.9613
 4013TP3      O23857   3.770   0.605   2.568  0.3141  0.1677  0.2877
 4013TP3     H123858   3.803   0.694   2.583  0.8878 -0.1299  0.7939
 4013TP3     H223859   3.744   0.574   2.654  1.4098 -0.6678  0.3264
 4014TP3      O23860   5.259   0.581   9.103 -0.2532  0.1667  0.2101
 4014TP3     H123861   5.322   0.541   9.044 -0.3506 -0.4347  0.5074
 4014TP3     H223862   5.174   0.563   9.063 -0.2390  1.0930 -0.2614
 4015TP3      O23863   0.806   3.640   0.904  0.5164 -0.1115  0.0303
 4015TP3     H123864   0.749   3.563   0.892 -1.0222  0.8759  0.6951
 4015TP3     H223865   0.807   3.682   0.818 -0.8225  0.5378  0.3048
 4016TP3      O23866   3.542   1.838   3.938 -0.1797 -0.3889 -0.4619
 4016TP3     H123867   3.591   1.920   3.948  1.1015 -1.2980  1.3069
 4016TP3     H223868   3.481   1.855   3.866 -1.6740  2.9127  1.3919
 4017TP3      O23869   0.113   3.272   1.963  0.1178  0.2340  0.2445
 4017TP3     H123870   0.119   3.339   1.895 -1.8618  0.8280  0.5989
 4017TP3     H223871   0.045   3.212   1.932  1.8148 -1.6630 -0.0469
 4018TP3      O23872   3.588   1.491   8.520  0.3308  0.4903  0.3149
 4018TP3     H123873   3.676   1.480   8.485 -0.6560 -2.5477 -1.6143
 4018TP3     H223874   3.576   1.418   8.580  0.2128  2.8420  3.3768
 4019TP3      O23875   3.725   1.145   0.784 -0.0043 -0.4800  0.3244
 4019TP3     H123876   3.694   1.189   0.863  0.7478 -0.5502  0.6615
 4019TP3     H223877   3.697   1.202   0.712 -1.2152 -0.7133  0.5839
 4020TP3      O23878   0.948   5.059   8.966 -0.1536  0.0357  0.1613
 4020TP3     H123879   0.906   4.974   8.983  0.5114 -0.3971 -0.2823
 4020TP3     H223880   0.889   5.103   8.904 -1.1501  0.4459  1.3565
 4021TP3      O23881   1.633   2.621   3.223 -0.5074  0.0090 -0.8219
 4021TP3     H123882   1.674   2.670   3.294 -1.8168 -1.5530  1.1177
 4021TP3     H223883   1.541   2.649   3.225 -0.5675 -0.0592 -1.9356
 4022TP3      O23884   3.369   0.245   1.654 -0.7915 -0.0212  0.5005
 4022TP3     H123885   3.427   0.317   1.676 -1.4370  0.9133 -0.7564
 4022TP3     H223886   3.416   0.167   1.684  0.7941  0.7600  0.1683
 4023TP3      O23887   2.800   2.543   8.808  0.5074 -0.4385 -0.1006
 4023TP3     H123888   2.747   2.623   8.811  1.2806  0.1748 -1.5144
 4023TP3     H223889   2.736   2.472   8.814 -0.3111  0.2802 -0.0247
 4024TP3      O23890   2.117   1.465   9.410  0.3289  1.0736 -0.4152
 4024TP3     H123891   2.111   1.528   9.482  2.2096 -0.7736  1.4837
 4024TP3     H223892   2.187   1.499   9.355 -1.3369  2.6699 -1.6660
 4025TP3      O23893   3.299   4.113   9.350  0.4589 -0.0445  0.5013
 4025TP3     H123894   3.302   4.102   9.255 -1.3963 -0.5583  0.4755
 4025TP3     H223895   3.357   4.045   9.384  0.7367 -0.1843 -0.2322
 4026TP3      O23896   0.590   4.371   0.573 -0.5098  0.7249 -0.3219
 4026TP3     H123897   0.557   4.416   0.651  2.3737  0.2330  1.2931
 4026TP3     H223898   0.559   4.281   0.582 -0.8242  0.8445 -0.1833
 4027TP3      O23899   1.668   4.729   0.301 -0.3516  0.1703 -0.0774
 4027TP3     H123900   1.615   4.783   0.359  0.2902  1.9646 -1.0900
 4027TP3     H223901   1.719   4.674   0.359 -1.1350  0.5476  0.9917
 4028TP3      O23902   0.567   1.249   8.846 -0.2002  0.3355  0.1839
 4028TP3     H123903   0.568   1.337   8.883 -1.0479  0.0737  0.8805
 4028TP3     H223904   0.605   1.259   8.759  1.0123  1.1300  0.7844
 4029TP3      O23905   4.363   1.883   1.575  0.1707  0.5245 -0.2239
 4029TP3     H123906   4.459   1.876   1.583  0.0155 -1.3456  0.6364
 4029TP3     H223907   4.331   1.798   1.606 -1.8088  1.3065 -0.0133
 4030TP3      O23908   5.095   0.838   1.509  0.6200 -0.0602 -0.3740
 4030TP3     H123909   5.054   0.922   1.529 -0.4355 -0.5848 -0.2965
 4030TP3     H223910   5.177   0.838   1.559  1.5553  1.6866 -1.7875
 4031TP3      O23911   3.963   0.343   8.820  0.3413  0.0875 -0.1324
 4031TP3     H123912   3.939   0.274   8.881  0.2024 -0.0480 -0.3388
 4031TP3     H223913   4.012   0.406   8.873 -2.2846  1.4554  0.8101
 4032TP3      O23914   2.442   5.236   1.766  0.2036 -0.4065 -0.0663
 4032TP3     H123915   2.522   5.287   1.781  0.1135 -0.5293  0.9429
 4032TP3     H223916   2.450   5.205   1.676  1.0586  0.0026 -0.1445
 4033TP3      O23917   2.932   4.951   1.698 -0.2807 -0.5910  0.2091
 4033TP3     H123918   2.976   4.997   1.626 -4.6472 -0.8221 -2.9859
 4033TP3     H223919   2.942   4.858   1.676 -0.7959 -0.7066  0.4588
 4034TP3      O23920   2.798   2.168   7.279  0.4179 -0.2444 -0.2211
 4034TP3     H123921   2.709   2.141   7.302  0.2757  0.6061  0.2651
 4034TP3     H223922   2.791   2.202   7.190 -0.0232  1.0682  0.2948
 4035TP3      O23923   2.162   4.133   2.294 -0.2945 -0.3068 -0.1266
 4035TP3     H123924   2.140   4.157   2.384  0.4553  2.1930 -0.5158
 4035TP3     H223925   2.250   4.096   2.299 -0.8974 -1.7161  0.3358
 4036TP3      O23926   1.601   1.803   7.932 -0.3971  0.4005 -0.8923
 4036TP3     H123927   1.554   1.743   7.990 -0.9051  1.2188 -0.4547
 4036TP3     H223928   1.532   1.854   7.889  0.0524  1.0316 -0.8754
 4037TP3      O23929   0.066   2.608   0.779 -0.5918 -0.1873 -0.4333
 4037TP3     H123930   0.149   2.649   0.754 -0.9905 -0.1240 -1.7267
 4037TP3     H223931   0.031   2.573   0.697 -1.1261 -1.5432  0.3385
 4038TP3      O23932   0.800   4.875   8.081  0.3108  0.4586  0.1800
 4038TP3     H123933   0.838   4.833   8.158  0.0351  1.6769  1.0225
 4038TP3     H223934   0.872   4.880   8.018  0.9961  0.8590  0.9733
 4039TP3      O23935   4.121   4.559   2.091 -0.1793  0.1446  0.3678
 4039TP3     H123936   4.139   4.651   2.073 -0.4798 -0.0698 -1.1838
 4039TP3     H223937   4.176   4.511   2.029  1.3554 -0.8067  2.3764
 4040TP3      O23938   3.228   3.485   9.858  0.1625  0.0246  0.4987
 4040TP3     H123939   3.293   3.540   9.902 -1.1456  1.3221  0.8702
 4040TP3     H223940   3.145   3.530   9.871 -0.5984 -0.7049 -1.4166
 4041TP3      O23941   4.866   3.068   6.466 -0.9997  0.9809 -0.9558
 4041TP3     H123942   4.869   2.976   6.492  0.5151  1.2921  0.1280
 4041TP3     H223943   4.773   3.090   6.465 -1.3753 -0.5203 -1.1110
 4042TP3      O23944   5.034   4.662   8.902 -0.4272  0.3688  0.0463
 4042TP3     H123945   5.056   4.607   8.826 -1.4734  1.7102 -1.2841
 4042TP3     H223946   4.960   4.715   8.872 -1.1348  0.6543  2.1693
 4043TP3      O23947   1.585   3.277   7.525 -0.2969 -0.7667  0.2185
 4043TP3     H123948   1.592   3.371   7.511 -1.1621 -0.5970  0.8292
 4043TP3     H223949   1.544   3.269   7.611 -0.2280 -1.7010  0.1734
 4044TP3      O23950   0.344   3.081   9.592  0.8149  0.1288 -0.2281
 4044TP3     H123951   0.312   3.067   9.503  0.6195 -0.6405 -0.0397
 4044TP3     H223952   0.265   3.085   9.646  0.9395  0.4689 -0.0667
 4045TP3      O23953   4.497   0.228   6.819  0.7090  0.0902 -0.2021
 4045TP3     H123954   4.477   0.321   6.824  0.4797  0.1008 -1.2080
 4045TP3     H223955   4.571   0.223   6.759  1.6972 -0.2502  1.0043
 4046TP3      O23956   1.938   3.380   0.022 -0.4100  0.2995  0.3708
 4046TP3     H123957   1.890   3.299   0.007 -1.0369  0.5496  0.9535
 4046TP3     H223958   1.947   3.420  -0.065 -0.8619  0.0276  0.1984
 4047TP3      O23959   0.947   0.157   1.819 -0.1175 -0.7133 -0.7583
 4047TP3     H123960   0.872   0.099   1.804 -0.3624 -0.6296  0.1165
 4047TP3     H223961   0.950   0.212   1.741  0.1151 -1.8953 -1.6033
 4048TP3      O23962   4.527   2.995   7.129 -0.0002  0.0040  0.0970
 4048TP3     H123963   4.588   2.979   7.057  1.2003 -1.2864  1.3447
 4048TP3     H223964   4.529   3.090   7.140  1.2627  0.0555 -0.3437
 4049TP3      O23965   0.789   4.225   7.089 -0.5148  0.2184  0.1671
 4049TP3     H123966   0.825   4.221   7.001  0.0362 -0.8445  0.4205
 4049TP3     H223967   0.817   4.310   7.123  1.5050 -0.4256  0.2365
 4050TP3      O23968   2.508   2.870   9.048 -0.0739 -0.0409  0.1602
 4050TP3     H123969   2.501   2.836   9.138  0.0082  1.6007  0.8233
 4050TP3     H223970   2.419   2.864   9.014 -0.5210  1.0279  1.0427
 4051TP3      O23971   3.053   1.705   2.763 -0.2934  0.2798  0.2830
 4051TP3     H123972   3.108   1.656   2.701  0.2180 -0.2553  1.1346
 4051TP3     H223973   3.075   1.797   2.746  1.0442  0.0754  0.7337
 4052TP3      O23974   3.636   4.638   2.799  0.0985 -0.4241 -0.2453
 4052TP3     H123975   3.564   4.619   2.739 -0.7386 -0.1954  0.6431
 4052TP3     H223976   3.633   4.567   2.863  0.9122 -0.6129 -0.4052
 4053TP3      O23977   0.438   1.678   9.830 -0.0402 -0.1984  0.1844
 4053TP3     H123978   0.423   1.765   9.867  0.8772  0.7439 -1.5277
 4053TP3     H223979   0.532   1.665   9.836  0.1290 -0.0595 -1.6179
 4054TP3      O23980   3.423   3.466   0.823  0.2885 -0.4622 -0.4682
 4054TP3     H123981   3.355   3.416   0.778  0.4646 -0.3280 -0.8864
 4054TP3     H223982   3.411   3.445   0.916  0.6770 -1.6906 -0.6735
 4055TP3      O23983   3.824   0.072   9.379 -0.2062 -0.2539  0.8537
 4055TP3     H123984   3.869   0.024   9.449 -2.2261 -1.6152  1.2974
 4055TP3     H223985   3.773   0.139   9.424 -2.1795 -1.6712  0.8545
 4056TP3      O23986   3.249   2.928   9.182 -0.0135 -0.0367 -0.2121
 4056TP3     H123987   3.338   2.912   9.148  0.2592 -0.1305  0.5173
 4056TP3     H223988   3.245   3.022   9.195 -0.2912  0.0605 -0.9479
 4057TP3      O23989   2.538   3.374   3.086  0.2951  0.4484 -0.6492
 4057TP3     H123990   2.556   3.296   3.137  1.0167  1.3363  0.5132
 4057TP3     H223991   2.506   3.438   3.150  0.3506  1.3199 -1.4588
 4058TP3      O23992   1.067   1.157   0.376  0.1031 -0.6969 -0.0698
 4058TP3     H123993   1.005   1.230   0.384  0.3735 -0.5403  0.6096
 4058TP3     H223994   1.131   1.188   0.312 -2.3581 -2.1680 -3.5448
 4059TP3      O23995   0.412   5.158   0.149  0.3884 -0.6691  0.3159
 4059TP3     H123996   0.363   5.082   0.180  0.7730 -1.1669 -0.2604
 4059TP3     H223997   0.418   5.216   0.225 -1.2319 -0.5049  0.3535
 4060TP3      O23998   2.098   4.511   0.537  0.4181 -0.1935  0.3633
 4060TP3     H123999   2.189   4.487   0.523  1.1051  1.6085  1.5072
 4060TP3     H224000   2.066   4.448   0.601 -0.4546 -3.4694 -2.9418
 4061TP3      O24001   5.197   2.612   8.562  0.3147  0.8091 -0.1146
 4061TP3     H124002   5.178   2.587   8.472  0.5137  0.4036 -0.0506
 4061TP3     H224003   5.185   2.707   8.565 -2.7616  0.5114  0.1855
 4062TP3      O24004   2.272   1.190   7.747  0.5590  0.0271  0.2026
 4062TP3     H124005   2.261   1.241   7.827 -2.4717  0.4345 -0.3567
 4062TP3     H224006   2.346   1.132   7.766  0.1734  0.3370  3.1698
 4063TP3      O24007   1.288   4.038   7.298 -0.5002 -0.0356  0.2617
 4063TP3     H124008   1.367   3.985   7.283 -0.5573 -0.5232  1.5523
 4063TP3     H224009   1.224   4.003   7.236 -0.8599 -2.2240  1.7290
 4064TP3      O24010   2.427   0.243   0.121 -0.4036 -0.0503  0.1354
 4064TP3     H124011   2.415   0.325   0.073 -0.6649  0.8578  1.6709
 4064TP3     H224012   2.401   0.175   0.059  1.6827  0.8464 -1.8649
 4065TP3      O24013   3.245   4.787   0.636 -1.1512 -0.2933  0.2251
 4065TP3     H124014   3.222   4.825   0.721  0.0555  0.8706  0.0605
 4065TP3     H224015   3.309   4.719   0.657 -0.3456  0.4445  0.2178
 4066TP3      O24016   1.874   3.051   8.879  0.3564 -0.6909  0.2301
 4066TP3     H124017   1.879   2.970   8.929 -0.3890 -0.5055  0.6223
 4066TP3     H224018   1.941   3.042   8.811  0.7348 -1.3412  0.6850
 4067TP3      O24019   3.635   2.629   9.729 -0.6059  0.3228  0.0834
 4067TP3     H124020   3.556   2.576   9.735 -0.0201 -0.7099 -0.8906
 4067TP3     H224021   3.605   2.713   9.694 -1.4633  0.4561  1.0854
 4068TP3      O24022   4.503   0.000   3.269 -0.4528 -0.0177 -0.9853
 4068TP3     H124023   4.426   0.029   3.220  0.9483  1.0587 -2.7130
 4068TP3     H224024   4.561  -0.038   3.203 -0.8268 -4.0820  0.7375
 4069TP3      O24025   2.136   0.465   2.515  0.1892  0.2621  0.3796
 4069TP3     H124026   2.212   0.459   2.458  0.3022  0.5735  0.4967
 4069TP3     H224027   2.170   0.443   2.602  0.4739  1.8450  0.7056
 4070TP3      O24028   1.721   2.068   0.652  0.0264  0.2260 -0.1246
 4070TP3     H124029   1.786   2.137   0.657  0.5519 -0.1818 -1.0933
 4070TP3     H224030   1.706   2.042   0.744 -0.2088  1.6196  0.2522
 4071TP3      O24031   2.776   5.081   2.399  0.4103  0.7888 -0.1460
 4071TP3     H124032   2.743   5.054   2.313 -1.4805 -1.0342  1.0778
 4071TP3     H224033   2.848   5.021   2.417 -1.3911 -1.1444  0.9528
 4072TP3      O24034   2.400   3.838   7.177 -0.4113  0.4869 -0.5970
 4072TP3     H124035   2.339   3.792   7.120 -0.3723 -0.3307  0.0019
 4072TP3     H224036   2.362   3.925   7.187 -0.2016  0.7881 -2.1916
 4073TP3      O24037   2.453   5.174   2.789 -0.1692 -0.0297  0.1323
 4073TP3     H124038   2.479   5.159   2.698 -2.0580 -2.5374 -0.0894
 4073TP3     H224039   2.371   5.224   2.783 -0.4410 -0.4326  0.4383
 4074TP3      O24040   0.671   4.338   0.948  0.3826  0.2631  0.1757
 4074TP3     H124041   0.713   4.375   1.026 -2.1184 -0.7207  2.1035
 4074TP3     H224042   0.623   4.262   0.980  0.9962 -1.5179 -2.7425
 4075TP3      O24043   3.179   4.303   0.198 -0.6434 -0.0956 -0.4401
 4075TP3     H124044   3.147   4.313   0.108  0.0268  0.7914 -0.5886
 4075TP3     H224045   3.267   4.340   0.197 -1.2250  1.4910  0.9543
 4076TP3      O24046   4.417   0.691   2.416 -0.3132  0.3182  0.3644
 4076TP3     H124047   4.508   0.722   2.406 -0.1736  0.0645  0.8323
 4076TP3     H224048   4.369   0.769   2.443 -0.5754  0.8657 -1.5488
 4077TP3      O24049   4.205   2.570   0.674  0.3712 -0.7315  0.2193
 4077TP3     H124050   4.259   2.597   0.749 -1.9336 -0.3478  1.8696
 4077TP3     H224051   4.115   2.576   0.707 -0.8936  0.9474 -3.0660
 4078TP3      O24052   0.534   4.948   0.706 -0.7339 -0.4074 -0.4841
 4078TP3     H124053   0.570   4.937   0.618 -0.6438  2.6838 -0.9498
 4078TP3     H224054   0.608   4.931   0.764 -0.0826  0.0474 -1.1618
 4079TP3      O24055   5.169   4.368   1.062  0.5275  0.2451  0.1938
 4079TP3     H124056   5.124   4.290   1.093  1.3190 -0.9076 -1.3891
 4079TP3     H224057   5.179   4.354   0.968  0.1113  2.5800 -0.2620
 4080TP3      O24058   4.504   3.238   0.323  0.2499  0.1650 -0.2936
 4080TP3     H124059   4.462   3.162   0.363  1.0495  0.3789  0.9999
 4080TP3     H224060   4.464   3.313   0.367 -1.6936  0.6372 -2.6532
 4081TP3      O24061   1.798   3.878   8.689 -0.0969 -0.1044 -0.0173
 4081TP3     H124062   1.726   3.906   8.633 -0.2951 -0.6080 -0.0210
 4081TP3     H224063   1.866   3.944   8.677  0.0815 -0.4990 -1.2793
 4082TP3      O24064   2.928   3.407   8.545  0.5027 -0.1638  0.4011
 4082TP3     H124065   2.995   3.358   8.593  0.9700 -0.2520 -0.3272
 4082TP3     H224066   2.915   3.358   8.464  0.4006  0.4796  0.0177
 4083TP3      O24067   3.043   1.626   8.176 -0.1058 -0.1710 -0.9179
 4083TP3     H124068   2.958   1.669   8.178  0.8988  2.0419  2.4746
 4083TP3     H224069   3.107   1.696   8.162  1.3752 -1.0452  0.9418
 4084TP3      O24070   3.156   0.585   7.545  0.4145 -0.2242  0.5653
 4084TP3     H124071   3.149   0.539   7.461  0.9294  1.3407 -0.3876
 4084TP3     H224072   3.168   0.516   7.609 -1.1843 -1.5536 -0.4835
 4085TP3      O24073   3.840   5.117   2.934 -0.3453 -0.1404  0.2193
 4085TP3     H124074   3.777   5.050   2.908  0.2486 -1.1259  1.2650
 4085TP3     H224075   3.791   5.174   2.993 -0.6346 -0.0907 -0.0640
 4086TP3      O24076   0.046   3.183   1.519 -0.0688 -0.3230  0.1824
 4086TP3     H124077   0.018   3.274   1.515  2.2051  0.3947 -2.6327
 4086TP3     H224078  -0.035   3.133   1.507 -1.1348  1.3465  0.0848
 4087TP3      O24079   0.173   1.894   3.003  0.3491 -0.4723 -0.0080
 4087TP3     H124080   0.227   1.854   2.935 -0.7405 -1.2382 -0.4644
 4087TP3     H224081   0.187   1.839   3.080  0.7476 -0.2538  0.0775
 4088TP3      O24082   3.444   5.284   0.627 -0.4565 -0.2779 -0.1476
 4088TP3     H124083   3.423   5.192   0.644  0.8522 -0.3319  1.5325
 4088TP3     H224084   3.518   5.281   0.566  0.6130 -0.4650  1.0881
 4089TP3      O24085   1.545   1.059   1.572  0.2877 -0.5147 -0.0619
 4089TP3     H124086   1.548   1.145   1.614 -2.3130 -0.4450  0.1555
 4089TP3     H224087   1.581   0.999   1.637 -0.1314  0.0935  0.7448
 4090TP3      O24088   0.760   4.734   3.480  0.1570 -0.3265 -0.2249
 4090TP3     H124089   0.810   4.687   3.547 -0.4330  0.5253  0.8522
 4090TP3     H224090   0.806   4.818   3.471 -0.7375  0.2478  0.3812
 4091TP3      O24091   2.597   0.929   2.189 -0.4529  0.8164 -0.1392
 4091TP3     H124092   2.557   0.842   2.189  0.7528  0.2406  0.3346
 4091TP3     H224093   2.581   0.962   2.278  0.1708  0.5596  0.0700
 4092TP3      O24094   4.108   0.135   1.621 -0.0336  0.1640  0.3477
 4092TP3     H124095   4.067   0.055   1.655  1.0783 -1.3182 -1.5865
 4092TP3     H224096   4.193   0.138   1.663  0.0148  0.1978  0.2480
 4093TP3      O24097   0.029   1.586   2.721 -0.3963 -0.4272  0.1603
 4093TP3     H124098  -0.065   1.568   2.725 -0.4694 -0.0942 -0.0443
 4093TP3     H224099   0.070   1.501   2.740 -0.7356 -0.5548  0.3395
 4094TP3      O24100   1.833   0.743   1.825 -0.3113  0.3237 -1.0711
 4094TP3     H124101   1.849   0.652   1.848 -1.3461  0.5265  0.5986
 4094TP3     H224102   1.899   0.793   1.874 -0.4880  0.5486 -1.0590
 4095TP3      O24103   2.260   2.633   7.664  0.3787  0.3910  0.2440
 4095TP3     H124104   2.216   2.554   7.696  0.7472  0.2106  0.3136
 4095TP3     H224105   2.222   2.649   7.578 -1.7515  1.7563  1.3351
 4096TP3      O24106   2.406   4.749   0.363 -0.4780  0.0013  0.0372
 4096TP3     H124107   2.376   4.781   0.448 -0.3581 -1.2676  0.5753
 4096TP3     H224108   2.335   4.773   0.303 -0.1989  1.6387  0.3155
 4097TP3      O24109   1.431   3.184   9.953  0.2883  0.4889  0.3186
 4097TP3     H124110   1.424   3.127   9.876  0.2703  2.6732 -1.4019
 4097TP3     H224111   1.525   3.199   9.962  0.1874  2.4841 -1.1453
 4098TP3      O24112   3.365   0.860   1.682  0.2746  0.1723 -0.0002
 4098TP3     H124113   3.280   0.848   1.640  0.7181  0.9145 -1.1529
 4098TP3     H224114   3.345   0.862   1.776 -1.4906  3.6926 -0.2900
 4099TP3      O24115   5.277   2.630   1.959  0.4058  0.2209 -0.0663
 4099TP3     H124116   5.233   2.613   1.876 -1.2774  0.7188  0.6891
 4099TP3     H224117   5.251   2.719   1.983 -0.0449 -0.3070  1.5291
 4100TP3      O24118   4.485   3.520   8.611  0.1518  0.0888  0.4622
 4100TP3     H124119   4.452   3.587   8.550  1.8892  0.0269 -0.6135
 4100TP3     H224120   4.569   3.555   8.642  1.7236 -2.0604 -1.1013
 4101TP3      O24121   2.836   3.991   9.052  0.4212  0.2378  0.2175
 4101TP3     H124122   2.805   4.032   9.132  0.6570  0.2892  0.2844
 4101TP3     H224123   2.795   3.904   9.051 -1.0643  0.9052 -0.5345
 4102TP3      O24124   5.060   1.542   2.461 -0.2249  0.0604  0.1016
 4102TP3     H124125   5.028   1.504   2.543  0.4659  0.3127  0.4933
 4102TP3     H224126   5.155   1.533   2.465 -0.0839  1.2570 -0.0695
 4103TP3      O24127   1.223   0.895   2.319 -1.0696  0.1975 -1.2154
 4103TP3     H124128   1.257   0.825   2.264  0.6925  1.1172 -1.3630
 4103TP3     H224129   1.225   0.858   2.408  2.3148  0.8180 -0.9156
 4104TP3      O24130   0.842   0.582   9.545  0.2050 -0.0688  0.4079
 4104TP3     H124131   0.825   0.607   9.636 -1.5620  1.1081 -0.1838
 4104TP3     H224132   0.805   0.494   9.537  0.4684 -0.2220  0.8461
 4105TP3      O24133   3.381   3.727   9.903 -0.7657 -0.0262 -0.2508
 4105TP3     H124134   3.476   3.722   9.893 -0.9361 -0.1281 -2.1842
 4105TP3     H224135   3.365   3.815   9.938  0.0379 -0.1390  0.4370
 4106TP3      O24136   2.957   1.146   8.151 -0.2289  0.3804 -0.3157
 4106TP3     H124137   2.915   1.162   8.066  0.0192  0.9973 -0.3258
 4106TP3     H224138   2.894   1.092   8.198 -1.7472  2.4838  0.2189
 4107TP3      O24139   2.866   3.200   6.917 -0.0228  0.1705  0.2425
 4107TP3     H124140   2.948   3.201   6.966  0.4818  0.4983 -0.6084
 4107TP3     H224141   2.858   3.288   6.881  1.4931 -0.9841 -3.3640
 4108TP3      O24142   1.935   4.068   1.538  0.0369 -0.1725 -0.3515
 4108TP3     H124143   1.876   4.029   1.474  0.2005 -1.1187  0.0531
 4108TP3     H224144   2.003   4.110   1.486 -1.6039  2.0357 -0.8756
 4109TP3      O24145   4.040   1.446   9.596 -0.1638 -0.2156  0.8060
 4109TP3     H124146   4.059   1.477   9.508  0.6181 -0.8229  0.7613
 4109TP3     H224147   4.056   1.352   9.593 -0.3388 -0.2737  1.5443
 4110TP3      O24148   4.774   4.387   1.380 -0.0161  0.1838 -0.4449
 4110TP3     H124149   4.803   4.298   1.397 -3.5424 -1.2062 -0.8593
 4110TP3     H224150   4.760   4.425   1.467  0.6063  0.0023 -0.2635
 4111TP3      O24151   5.195   1.138   1.820 -0.7601 -0.3609 -0.1157
 4111TP3     H124152   5.246   1.120   1.899  0.5906  1.5280 -0.4834
 4111TP3     H224153   5.248   1.102   1.749 -0.5878  0.4131 -0.3866
 4112TP3      O24154   1.445   0.452   1.587 -0.6887 -0.4059 -0.1756
 4112TP3     H124155   1.524   0.401   1.607  0.3009  1.1921  0.1197
 4112TP3     H224156   1.392   0.447   1.667 -0.4230 -0.6445 -0.0134
 4113TP3      O24157   1.178   3.257   9.827  0.2723  0.1598 -0.6585
 4113TP3     H124158   1.163   3.333   9.882  2.1081 -0.8962  1.4607
 4113TP3     H224159   1.258   3.218   9.861 -0.6711 -2.8329 -1.5377
 4114TP3      O24160   0.860   0.623   9.040  0.2524 -0.3326 -0.4930
 4114TP3     H124161   0.852   0.717   9.055  1.5913 -0.3874  0.7903
 4114TP3     H224162   0.777   0.587   9.071  0.2968  0.2923  0.3900
 4115TP3      O24163   1.044   0.494   2.084  0.3924  0.0408 -0.1055
 4115TP3     H124164   1.101   0.563   2.050  1.9491 -1.5756 -0.9736
 4115TP3     H224165   1.014   0.447   2.006 -1.2811  0.1692  0.4161
 4116TP3      O24166   1.129   0.161  10.115  0.3547 -0.3810 -0.5359
 4116TP3     H124167   1.128   0.225  10.186 -1.1190 -2.0764  1.0720
 4116TP3     H224168   1.167   0.208  10.041  1.6560  1.5711  1.2577
 4117TP3      O24169   0.611   4.214   1.734 -0.4468  0.3167 -0.3690
 4117TP3     H124170   0.611   4.173   1.821  1.1494 -0.3550 -0.6507
 4117TP3     H224171   0.581   4.146   1.675  3.3497 -1.0036 -1.0075
 4118TP3      O24172   2.861   3.932   1.147  0.6491 -0.0087  0.3255
 4118TP3     H124173   2.876   3.917   1.240 -0.5016 -0.6395  0.4215
 4118TP3     H224174   2.896   3.854   1.104 -0.9470 -0.8187  0.4370
 4119TP3      O24175   2.202   1.538   1.237  0.4360 -0.2993 -1.0553
 4119TP3     H124176   2.195   1.624   1.195 -0.3848 -0.1619 -0.6597
 4119TP3     H224177   2.293   1.512   1.223  1.2044  1.4181  0.3150
 4120TP3      O24178   2.662   3.469   7.233  0.2561  0.3821 -0.0884
 4120TP3     H124179   2.734   3.484   7.295 -0.6670 -1.7557  1.6513
 4120TP3     H224180   2.672   3.378   7.207 -0.8639  0.5489 -1.1786
 4121TP3      O24181   4.735   2.006   3.147  0.5828 -0.1127  0.5926
 4121TP3     H124182   4.731   2.082   3.089 -1.0875  0.6459  1.6303
 4121TP3     H224183   4.687   1.937   3.101  1.3818 -0.3002  0.0194
 4122TP3      O24184   1.176   0.891   0.812 -0.4657  0.3042  0.4595
 4122TP3     H124185   1.092   0.848   0.799  1.7182 -3.6714 -2.4658
 4122TP3     H224186   1.184   0.952   0.738 -0.8975  1.0000  0.9763
 4123TP3      O24187   3.918   0.275   0.231  0.0313  0.6195  0.0685
 4123TP3     H124188   3.953   0.343   0.289 -0.5659  1.2599 -0.3155
 4123TP3     H224189   3.964   0.289   0.148 -1.3945  1.7127 -0.5580
 4124TP3      O24190   1.316   4.584   9.142 -0.6283  0.0417 -0.0351
 4124TP3     H124191   1.287   4.509   9.089  0.9331 -0.1081 -0.7044
 4124TP3     H224192   1.347   4.544   9.224  0.8970 -0.1545 -0.6761
 4125TP3      O24193   2.207   4.519   1.982  0.2303  0.1417 -0.3750
 4125TP3     H124194   2.204   4.483   2.071  1.3283  1.1146  0.0756
 4125TP3     H224195   2.126   4.488   1.941 -0.5899  0.1576  1.1585
 4126TP3      O24196   4.158   2.418   1.834 -0.2429 -0.0229 -0.2573
 4126TP3     H124197   4.244   2.404   1.873 -0.6706 -0.1738  0.6633
 4126TP3     H224198   4.176   2.458   1.750  0.7946 -1.3155 -0.6888
 4127TP3      O24199   3.401   1.683   9.626 -0.8460  0.4934  0.0876
 4127TP3     H124200   3.435   1.772   9.638  2.1914 -0.6818  1.2989
 4127TP3     H224201   3.392   1.649   9.715 -0.8342 -0.7710 -0.3746
 4128TP3      O24202   1.269   3.694   7.190  0.1231  0.7381  0.4406
 4128TP3     H124203   1.234   3.616   7.234 -1.4578  0.4073 -1.2328
 4128TP3     H224204   1.364   3.688   7.202  0.2036 -2.1686 -0.6259
 4129TP3      O24205   4.707   3.965   7.580  0.4973 -0.4588 -0.4823
 4129TP3     H124206   4.661   3.881   7.581  0.5764 -0.5004 -0.3494
 4129TP3     H224207   4.643   4.028   7.615  0.6166 -0.5551 -0.0904
 4130TP3      O24208   2.871   2.235   2.521 -0.8492 -0.6240 -0.0183
 4130TP3     H124209   2.939   2.300   2.502 -0.4077 -0.7850  0.9551
 4130TP3     H224210   2.914   2.150   2.505 -0.5827 -0.7492  1.2676
 4131TP3      O24211   3.865   4.031   9.872 -0.6329  0.0270  0.2803
 4131TP3     H124212   3.897   3.957   9.923 -1.5520 -0.1682  0.5783
 4131TP3     H224213   3.882   4.006   9.781  1.3427  0.5283  0.4547
 4132TP3      O24214   0.937   0.595   8.765  0.5483 -0.5858  0.2968
 4132TP3     H124215   0.877   0.528   8.731 -1.6564  1.6656 -0.6091
 4132TP3     H224216   0.904   0.614   8.852  1.4250 -0.9342  0.7139
 4133TP3      O24217   4.735   1.207   0.307  0.3895  0.1385  0.2582
 4133TP3     H124218   4.730   1.290   0.354  1.7254  0.1009  0.5061
 4133TP3     H224219   4.734   1.141   0.376  1.5045  0.0489  0.2024
 4134TP3      O24220   4.232   1.741   8.303 -0.1135 -0.8208  0.2859
 4134TP3     H124221   4.203   1.660   8.345  0.0030 -0.7626  0.4786
 4134TP3     H224222   4.217   1.809   8.369  3.1632 -1.1522  1.5496
 4135TP3      O24223   4.617   3.002   2.010 -0.1155  0.0642  0.2885
 4135TP3     H124224   4.586   2.995   2.100 -0.5748  0.4138  0.1659
 4135TP3     H224225   4.696   3.055   2.016  0.6697 -1.1147  0.6470
 4136TP3      O24226   0.856   2.287   0.585  1.1536  0.1476 -0.0205
 4136TP3     H124227   0.912   2.360   0.558 -0.0340  0.7461 -0.9886
 4136TP3     H224228   0.769   2.311   0.553  0.0687 -0.1688  2.4689
 4137TP3      O24229   1.046   3.487   1.786 -0.6879 -0.1575  0.6518
 4137TP3     H124230   1.113   3.508   1.721 -2.2550 -0.3221 -1.1060
 4137TP3     H224231   0.996   3.568   1.797 -1.3929 -0.5476  0.4297
 4138TP3      O24232   0.095   0.923   2.192  0.7234  0.0669  0.1993
 4138TP3     H124233   0.158   0.915   2.263 -0.2035 -0.3910  1.0118
 4138TP3     H224234   0.010   0.922   2.236  0.1322  0.0439 -0.9004
 4139TP3      O24235   2.837   4.308   9.686 -0.3486 -0.2238 -0.1297
 4139TP3     H124236   2.750   4.347   9.686 -0.6359 -0.8643  0.0600
 4139TP3     H224237   2.891   4.371   9.735 -1.1256 -0.7539  1.4677
 4140TP3      O24238   0.201   2.543   7.193  0.5333 -0.3005 -0.3646
 4140TP3     H124239   0.201   2.593   7.112  0.9927  0.4534  0.0861
 4140TP3     H224240   0.242   2.460   7.170  0.5252 -0.1538 -0.9323
 4141TP3      O24241   2.261   2.494   0.042 -0.9102 -0.5685  0.3613
 4141TP3     H124242   2.343   2.510   0.088 -1.2397 -0.9346  1.0910
 4141TP3     H224243   2.287   2.456  -0.042 -0.2556  1.1074 -0.2234
 4142TP3      O24244   3.712   0.566   9.017  1.1640  0.2980 -0.1175
 4142TP3     H124245   3.628   0.524   8.998  0.6783  0.8777  0.6618
 4142TP3     H224246   3.754   0.509   9.081  0.0700  1.4386  1.6982
 4143TP3      O24247   0.172   4.581   0.439  0.6647 -0.4874 -0.1135
 4143TP3     H124248   0.186   4.572   0.533 -2.5783  1.5201  0.7201
 4143TP3     H224249   0.121   4.504   0.415  0.6101 -0.4899  0.0112
 4144TP3      O24250   3.657   2.061   3.407 -0.4052 -0.1581  0.0585
 4144TP3     H124251   3.633   2.095   3.493 -0.3169  0.7476 -0.2691
 4144TP3     H224252   3.743   2.099   3.389 -1.2943  1.2921 -1.3026
 4145TP3      O24253   1.816   2.860   7.564  0.2754 -0.3902 -0.1352
 4145TP3     H124254   1.795   2.908   7.484 -1.0049  0.8287  0.8745
 4145TP3     H224255   1.789   2.918   7.635  1.8250 -1.2272  1.2203
 4146TP3      O24256   0.146   2.221   2.094  0.6647 -0.0721  0.2306
 4146TP3     H124257   0.146   2.150   2.030  0.4718  0.3836 -0.2794
 4146TP3     H224258   0.238   2.232   2.116  1.0483  1.3949 -1.8172
 4147TP3      O24259   3.822   0.928   3.535 -0.3310  0.2851  0.4245
 4147TP3     H124260   3.839   1.011   3.492 -1.5291 -0.6762 -2.0888
 4147TP3     H224261   3.741   0.895   3.495  0.2176 -2.2055  1.1390
 4148TP3      O24262   2.223   2.485   2.146  0.3100  0.5754  0.1684
 4148TP3     H124263   2.158   2.457   2.210  1.6777 -0.4396  1.1738
 4148TP3     H224264   2.263   2.563   2.185  0.9327  0.1375  0.4025
 4149TP3      O24265   2.419   3.319   1.792 -0.2236  0.1240  0.2080
 4149TP3     H124266   2.422   3.400   1.741 -1.6240  0.6083  0.8468
 4149TP3     H224267   2.359   3.262   1.743  3.5757 -2.1122 -2.3386
 4150TP3      O24268   3.551   4.746   0.417 -0.3945  0.3334  0.2027
 4150TP3     H124269   3.571   4.768   0.508 -1.3196  1.5816  0.1261
 4150TP3     H224270   3.607   4.670   0.398  2.1619  1.9417  0.8403
 4151TP3      O24271   3.603   4.432   1.477 -0.4951  0.3991 -0.3042
 4151TP3     H124272   3.637   4.522   1.476  1.0992 -0.1485  0.6581
 4151TP3     H224273   3.533   4.433   1.412 -0.5602  2.3511 -0.2803
 4152TP3      O24274   5.066   1.493   2.721  0.2386  0.6008  0.3929
 4152TP3     H124275   5.061   1.420   2.783  0.2393 -0.0296 -0.3389
 4152TP3     H224276   4.978   1.530   2.722  0.5788  1.4762  1.7863
 4153TP3      O24277   3.168   4.374   1.233  0.3341  0.5776 -0.5561
 4153TP3     H124278   3.138   4.373   1.142 -0.5508  0.0677 -0.2778
 4153TP3     H224279   3.178   4.281   1.256 -2.6223  0.4611  0.8151
 4154TP3      O24280   3.436   4.403   9.196  0.1673 -0.1755 -0.0765
 4154TP3     H124281   3.421   4.353   9.277 -1.6494 -0.8432 -0.7726
 4154TP3     H224282   3.530   4.418   9.195  0.5128 -1.8940  1.1692
 4155TP3      O24283   0.001   1.703   0.648  0.1892  0.1970  0.4597
 4155TP3     H124284   0.063   1.642   0.688  0.1289 -0.2906 -0.1677
 4155TP3     H224285  -0.017   1.666   0.562  2.1872  2.4081 -1.0516
 4156TP3      O24286   3.537   4.773   9.973  0.3204  0.0145 -0.1165
 4156TP3     H124287   3.610   4.811   9.925  0.1354  1.6181  0.7851
 4156TP3     H224288   3.460   4.791   9.919  0.1050  1.8637  0.7129
 4157TP3      O24289   4.927   5.234   8.366 -0.0691 -0.2673  0.4150
 4157TP3     H124290   4.900   5.217   8.276 -2.0334  0.9868  0.7087
 4157TP3     H224291   4.900   5.156   8.415  0.0866 -0.5254  0.0884
 4158TP3      O24292   2.173   5.104   3.298  0.3683 -0.3031 -0.7430
 4158TP3     H124293   2.253   5.061   3.330 -0.8377 -0.0064  3.3016
 4158TP3     H224294   2.205   5.184   3.256  2.2679 -0.1435  0.8336
 4159TP3      O24295   3.583   1.375   9.027 -0.1881 -0.3103 -0.0254
 4159TP3     H124296   3.653   1.399   9.088 -3.3042  0.0837  3.7149
 4159TP3     H224297   3.535   1.456   9.012  0.6410 -0.2993 -3.5209
 4160TP3      O24298   3.368   1.372   0.773 -0.2093 -0.3097  0.0290
 4160TP3     H124299   3.285   1.338   0.806 -0.9407  2.8508  1.8715
 4160TP3     H224300   3.364   1.358   0.679 -2.4229 -1.0066  0.1806
 4161TP3      O24301   2.952   2.693   2.926  0.3407 -0.7442 -0.1415
 4161TP3     H124302   2.891   2.626   2.955 -1.4286  1.1609  0.7716
 4161TP3     H224303   3.022   2.692   2.992  0.0441 -1.3084  0.1667
 4162TP3      O24304   4.208   3.806   1.797  0.1337  0.6700  0.2297
 4162TP3     H124305   4.285   3.784   1.850 -2.2047  0.5956  3.9615
 4162TP3     H224306   4.244   3.854   1.723  3.7973  0.3147  1.5354
 4163TP3      O24307   3.048   4.493   8.924  0.0630  0.1633 -0.2051
 4163TP3     H124308   3.128   4.524   8.881 -0.6116  0.3232 -1.3811
 4163TP3     H224309   2.984   4.562   8.908 -0.5142 -0.3011  0.0889
 4164TP3      O24310   3.245   1.301   7.099  0.0881  1.1457  0.6505
 4164TP3     H124311   3.274   1.360   7.169  0.1236 -0.4864  2.0726
 4164TP3     H224312   3.259   1.213   7.134  1.4789  0.1960 -1.9548
 4165TP3      O24313   2.909   2.943   8.110 -0.2560 -0.5091  0.0713
 4165TP3     H124314   2.952   2.862   8.137 -0.0884  0.0048  1.4475
 4165TP3     H224315   2.961   3.013   8.150 -1.3844  0.1977  0.3551
 4166TP3      O24316   3.677   2.858   1.674  0.6153  0.1693  0.8916
 4166TP3     H124317   3.669   2.948   1.639  0.5065 -0.4985 -0.9404
 4166TP3     H224318   3.746   2.864   1.740  1.7492  1.3246 -0.3162
 4167TP3      O24319   4.749   1.130   9.565 -0.3726  0.2006 -0.2205
 4167TP3     H124320   4.718   1.124   9.655 -0.9271 -0.6494 -0.4474
 4167TP3     H224321   4.758   1.223   9.548 -0.9797  0.3959  0.4866
 4168TP3      O24322   0.903   4.488   9.135  0.8193 -0.1898  0.2033
 4168TP3     H124323   0.878   4.395   9.128 -1.1087  0.2182  0.9677
 4168TP3     H224324   0.863   4.529   9.058  2.4977 -0.1266 -0.6602
 4169TP3      O24325   2.782   3.431   9.104 -0.4233  0.3383  0.7721
 4169TP3     H124326   2.840   3.414   9.178  0.1160  0.7062  0.4378
 4169TP3     H224327   2.822   3.384   9.031 -0.3291  0.9167  0.4471
 4170TP3      O24328   1.644   0.627   8.631 -0.0304  0.5915 -0.2740
 4170TP3     H124329   1.628   0.539   8.663  1.0827  0.7771  0.8445
 4170TP3     H224330   1.738   0.630   8.614  0.2219  2.0227  1.1831
 4171TP3      O24331   2.060   3.318   0.728  0.1632  0.5138  0.1405
 4171TP3     H124332   1.965   3.331   0.719  0.1264 -0.4607 -1.1131
 4171TP3     H224333   2.099   3.388   0.676  0.1151  0.4201 -0.0220
 4172TP3      O24334   5.110   0.922   2.312  0.1995 -0.3559 -0.6315
 4172TP3     H124335   5.056   0.928   2.233  0.5836 -1.9119 -1.0496
 4172TP3     H224336   5.054   0.878   2.376  0.0881  0.3858 -0.2070
 4173TP3      O24337   0.690   2.959   0.988  0.3024 -0.3327  0.2735
 4173TP3     H124338   0.599   2.962   0.959 -0.2628 -0.6017  1.8847
 4173TP3     H224339   0.684   2.960   1.084  2.0438  0.8545  0.4223
 4174TP3      O24340   1.946   0.454   1.054 -0.5628  0.1721 -0.0093
 4174TP3     H124341   1.931   0.469   1.148 -0.1344  1.7628 -0.1604
 4174TP3     H224342   2.039   0.431   1.049 -0.1382  1.8105 -0.1827
 4175TP3      O24343   4.648   0.312   7.750 -0.3491  0.4336  0.5549
 4175TP3     H124344   4.599   0.286   7.672 -0.1368  1.1955  0.1627
 4175TP3     H224345   4.587   0.298   7.822  0.5430 -3.6569  0.7501
 4176TP3      O24346   4.300   2.240   0.201 -0.0853  0.4084 -0.0450
 4176TP3     H124347   4.217   2.248   0.249  0.8195 -0.0495  1.6704
 4176TP3     H224348   4.273   2.222   0.111 -1.8853 -1.3956  0.7671
 4177TP3      O24349   2.760   3.425   1.396  0.3503 -0.5637  0.3277
 4177TP3     H124350   2.711   3.505   1.382  0.1871 -0.7506 -0.1889
 4177TP3     H224351   2.711   3.378   1.464 -1.1680 -1.5303 -1.3568
 4178TP3      O24352   4.356   2.275   9.004 -0.3697  0.1910  0.2667
 4178TP3     H124353   4.435   2.261   8.952 -0.4390  0.2920  0.1328
 4178TP3     H224354   4.287   2.230   8.955 -0.4818  0.4920  0.1421
 4179TP3      O24355   4.794   4.544   2.516  0.2084  0.3167 -0.3757
 4179TP3     H124356   4.712   4.575   2.476  0.5634  1.5760 -0.1728
 4179TP3     H224357   4.774   4.455   2.545 -0.9907  0.4790 -0.6450
 4180TP3      O24358   3.145   1.806   9.798  0.5278 -0.1169  0.7217
 4180TP3     H124359   3.079   1.822   9.731 -1.0199 -1.4591  1.8544
 4180TP3     H224360   3.226   1.843   9.761 -0.6804  0.9603 -0.9927
 4181TP3      O24361   2.436   4.508   9.157  0.5609  0.1977 -0.2668
 4181TP3     H124362   2.351   4.472   9.133  1.0741  0.0396 -1.9983
 4181TP3     H224363   2.477   4.440   9.210  0.7774 -1.0507 -1.9526
 4182TP3      O24364   1.573   3.539   7.461 -0.4905 -0.1198 -0.3175
 4182TP3     H124365   1.566   3.573   7.372 -0.8393 -0.0924 -0.2816
 4182TP3     H224366   1.580   3.617   7.516 -1.4252 -0.0954 -0.2234
 4183TP3      O24367   0.609   0.162  10.032  0.1430  0.3065  0.0143
 4183TP3     H124368   0.614   0.066  10.026  3.4615  0.4516 -3.4553
 4183TP3     H224369   0.665   0.184  10.106  1.1629 -0.3901 -0.5307
 4184TP3      O24370   5.089   4.206   7.139  0.1475  0.0111 -0.2253
 4184TP3     H124371   5.056   4.227   7.052  2.1069  1.0725 -0.7636
 4184TP3     H224372   5.170   4.256   7.147  2.1988 -3.1803  0.6421
 4185TP3      O24373   2.679   1.296   0.611  0.2878 -0.0338  0.2782
 4185TP3     H124374   2.755   1.276   0.666  0.0910  0.3489  0.6974
 4185TP3     H224375   2.643   1.377   0.648 -0.1172 -0.0184 -0.1355
 4186TP3      O24376   5.033   1.961   1.810 -0.0457  0.2374 -0.1550
 4186TP3     H124377   5.022   1.928   1.721  1.0203 -3.0504  0.7623
 4186TP3     H224378   4.944   1.979   1.840 -0.8055 -2.0562 -0.7921
 4187TP3      O24379   2.459   2.932  10.036  0.3304  0.0205 -0.1113
 4187TP3     H124380   2.491   2.933   9.945 -2.1406 -0.0926 -1.0604
 4187TP3     H224381   2.393   3.001  10.039 -0.6037 -0.8880  1.2003
 4188TP3      O24382   2.023   1.302   2.303 -0.0145  0.7034 -0.4773
 4188TP3     H124383   2.025   1.207   2.303 -0.9241  0.6693 -0.8422
 4188TP3     H224384   2.061   1.327   2.387  0.1270  0.0169 -0.3344
 4189TP3      O24385   4.401   0.500   7.490  0.3431  0.4574  0.6160
 4189TP3     H124386   4.307   0.482   7.496  0.4882 -0.3113  0.8496
 4189TP3     H224387   4.441   0.413   7.490  1.0522  0.7783  0.4745
 4190TP3      O24388   4.668   4.296   9.234  0.3619 -0.2118 -0.4095
 4190TP3     H124389   4.663   4.332   9.323  3.4390 -0.5949  0.0388
 4190TP3     H224390   4.722   4.217   9.244  1.1157 -0.0373 -2.6554
 4191TP3      O24391   4.053   1.747   0.318  0.4232 -0.1034  0.4009
 4191TP3     H124392   4.000   1.674   0.348  0.7255 -0.0762  1.0160
 4191TP3     H224393   4.142   1.726   0.346  0.7451 -0.1478 -0.6192
 4192TP3      O24394   4.886   4.399   3.204 -0.3885  0.2252 -0.0762
 4192TP3     H124395   4.936   4.393   3.285  1.0171  1.8534 -0.7600
 4192TP3     H224396   4.794   4.399   3.233  0.0616  0.1449  1.4497
 4193TP3      O24397   4.527   3.111   8.742  0.5191 -0.3968 -0.4271
 4193TP3     H124398   4.617   3.092   8.714  1.0510 -0.0422  0.9676
 4193TP3     H224399   4.536   3.181   8.807 -0.8603  0.2834 -0.9222
 4194TP3      O24400   0.611   2.598   0.726  0.3422  0.1188 -0.4550
 4194TP3     H124401   0.518   2.607   0.702  0.1250 -0.7301  0.0311
 4194TP3     H224402   0.654   2.573   0.645  0.0700  0.0505 -0.5809
 4195TP3      O24403   5.270   5.056   0.360 -0.3440  0.5492 -0.2253
 4195TP3     H124404   5.204   4.991   0.385  0.4893 -0.6850 -1.1037
 4195TP3     H224405   5.332   5.056   0.433  0.0463 -0.2290 -0.5339
 4196TP3      O24406   5.276   4.947   3.123  0.1232 -0.5681 -0.1714
 4196TP3     H124407   5.316   4.887   3.187 -0.2993 -0.1712  0.4846
 4196TP3     H224408   5.310   5.033   3.147 -0.4057 -0.3531 -0.1808
 4197TP3      O24409   0.337   2.922   8.342 -0.3749  0.1528  0.0893
 4197TP3     H124410   0.277   2.917   8.268 -0.6003  0.2964  0.2652
 4197TP3     H224411   0.349   2.831   8.369  2.3673 -0.3726 -2.2641
 4198TP3      O24412   0.119   4.955   8.271 -0.0408  0.1718  0.2344
 4198TP3     H124413   0.049   4.914   8.221  0.4630 -0.3464 -0.0452
 4198TP3     H224414   0.195   4.954   8.213  0.6945 -0.9151  1.1852
 4199TP3      O24415   4.208   4.931   9.935 -0.1040  0.0988  0.1384
 4199TP3     H124416   4.294   4.891   9.947 -0.0840 -0.1975 -0.9245
 4199TP3     H224417   4.226   5.012   9.888 -0.4612 -0.2379 -0.5763
 4200TP3      O24418   3.850   0.006   1.380  0.2224 -0.0403  0.0943
 4200TP3     H124419   3.922   0.027   1.320 -0.0533  2.1210  0.4591
 4200TP3     H224420   3.796  -0.057   1.331  0.9141  0.3637 -1.2348
 4201TP3      O24421   3.912   2.977   2.601  0.5656  0.0984  0.0872
 4201TP3     H124422   3.891   3.066   2.629  2.9805  1.1489 -1.0531
 4201TP3     H224423   3.832   2.927   2.615 -1.0732  2.5815  0.1990
 4202TP3      O24424   2.927   4.355   7.679 -0.6599  0.2655  0.1714
 4202TP3     H124425   2.902   4.411   7.752  2.1277 -0.2257  1.6323
 4202TP3     H224426   3.021   4.367   7.670 -0.5747 -1.3567 -1.9309
 4203TP3      O24427   3.633   4.511   3.046  0.4001 -0.7728 -0.2496
 4203TP3     H124428   3.543   4.494   3.073 -0.2269  0.8395 -1.1868
 4203TP3     H224429   3.684   4.441   3.087 -1.3154 -1.9450 -0.0170
 4204TP3      O24430   1.110   0.907   8.283  0.1714  0.3113 -0.1414
 4204TP3     H124431   1.094   0.981   8.224 -2.4024  0.1626  0.2693
 4204TP3     H224432   1.140   0.949   8.364  0.7236  0.7389 -0.5562
 4205TP3      O24433   2.424   0.424   7.323 -0.2429  0.4527  0.7670
 4205TP3     H124434   2.458   0.482   7.256 -1.5453  1.0124  0.5601
 4205TP3     H224435   2.390   0.349   7.275  0.1833  0.1553  0.9260
 4206TP3      O24436   3.887   5.234   9.160 -0.4624 -0.7116 -0.7278
 4206TP3     H124437   3.857   5.299   9.223 -0.4254 -1.3213 -0.0766
 4206TP3     H224438   3.872   5.275   9.075  1.1558  0.8806 -0.3244
 4207TP3      O24439   1.271   3.030   0.012  0.1075 -0.1094 -0.1130
 4207TP3     H124440   1.319   3.035  -0.071 -0.2039 -0.6271 -0.3265
 4207TP3     H224441   1.336   3.055   0.078  0.5559 -0.3781 -0.4443
 4208TP3      O24442   3.179   1.293   2.297  0.3187 -0.1475  0.7466
 4208TP3     H124443   3.203   1.204   2.270 -1.4038 -0.1675 -0.9299
 4208TP3     H224444   3.212   1.349   2.226 -0.4699  0.3142  0.7356
 4209TP3      O24445   4.745   2.024   1.412  0.6399 -0.1730  0.2881
 4209TP3     H124446   4.804   2.050   1.341  0.8352 -0.1256  0.4664
 4209TP3     H224447   4.663   2.069   1.391  0.5934 -0.4241 -0.0856
 4210TP3      O24448   4.827   2.401   0.678  1.0362 -0.2567 -0.2688
 4210TP3     H124449   4.787   2.471   0.729  0.0676 -0.1016 -1.2363
 4210TP3     H224450   4.888   2.360   0.740 -0.2174 -0.1756  1.0797
 4211TP3      O24451   4.373   3.065   3.765  0.2950  0.1240 -0.0569
 4211TP3     H124452   4.280   3.044   3.760  0.6701 -1.2804 -2.7026
 4211TP3     H224453   4.415   3.006   3.702  3.0723  0.3039  1.4446
 4212TP3      O24454   4.840   2.639   1.533 -0.0998 -0.0826  0.1427
 4212TP3     H124455   4.868   2.611   1.446 -0.8590 -0.8262  0.1261
 4212TP3     H224456   4.854   2.562   1.589 -3.7408 -1.2097 -0.2246
 4213TP3      O24457   3.849   4.867  10.094  0.7732  0.6849 -0.6057
 4213TP3     H124458   3.789   4.874  10.168  1.5223  2.4489 -0.1108
 4213TP3     H224459   3.935   4.852  10.134  0.9093 -0.2214 -1.2207
 4214TP3      O24460   2.598   4.183   2.441 -0.1240 -0.1663  0.5230
 4214TP3     H124461   2.675   4.190   2.384 -0.3981  0.1778  0.1916
 4214TP3     H224462   2.628   4.131   2.515 -0.1917 -2.0338 -0.6938
 4215TP3      O24463   0.396   2.639   1.935 -0.1635 -0.2665  0.1291
 4215TP3     H124464   0.392   2.544   1.922  0.8373 -0.2067 -0.7016
 4215TP3     H224465   0.445   2.672   1.860 -0.7949  0.9565  0.2258
 4216TP3      O24466   4.664   0.558   0.216  0.3142 -0.1952  0.6256
 4216TP3     H124467   4.746   0.523   0.183  0.5519  0.1292  0.8666
 4216TP3     H224468   4.612   0.480   0.239  0.9937 -0.3855  1.5471
 4217TP3      O24469   4.705   2.459   9.392 -0.3030  0.1364 -0.5571
 4217TP3     H124470   4.776   2.519   9.415 -0.8439  1.0426 -1.2237
 4217TP3     H224471   4.749   2.388   9.345  0.2477  0.3664 -0.3969
 4218TP3      O24472   1.334   4.895   8.165  0.2145 -0.0526  0.1634
 4218TP3     H124473   1.282   4.819   8.138  1.8267 -1.2463  0.2446
 4218TP3     H224474   1.357   4.939   8.083  0.5376 -0.5350 -0.0095
 4219TP3      O24475   3.512   1.853   3.325  0.6751  0.0377  0.4335
 4219TP3     H124476   3.447   1.842   3.395 -1.0055 -1.0761 -1.1966
 4219TP3     H224477   3.556   1.935   3.345 -1.1236  0.7452  1.7144
 4220TP3      O24478   3.855   4.835   0.821  0.1880 -0.7093  0.1583
 4220TP3     H124479   3.816   4.816   0.906  2.0201  0.8329  1.4408
 4220TP3     H224480   3.834   4.927   0.806  0.1179 -0.8985 -0.9580
 4221TP3      O24481   3.650   1.426   3.176  0.3976 -0.1651 -0.0415
 4221TP3     H124482   3.661   1.380   3.259  2.4580 -0.4043 -0.4063
 4221TP3     H224483   3.698   1.373   3.113 -0.6968  0.2969 -1.3136
 4222TP3      O24484   4.377   1.162   3.004  0.3133  0.4870 -0.7665
 4222TP3     H124485   4.377   1.088   3.064  1.0490 -0.3421 -1.7625
 4222TP3     H224486   4.440   1.224   3.042  0.7264 -0.0050 -0.6386
 4223TP3      O24487   3.139   0.172   3.299 -0.2548  0.1030  0.4824
 4223TP3     H124488   3.097   0.106   3.243  0.2910  1.3056 -1.4081
 4223TP3     H224489   3.097   0.254   3.276  0.5932  0.7756  1.2401
 4224TP3      O24490   4.144   0.935   9.705 -0.2712 -0.2192 -0.1000
 4224TP3     H124491   4.133   0.854   9.655  0.0838  0.1714 -0.8228
 4224TP3     H224492   4.162   0.906   9.794  2.5235 -1.0250 -0.8233
 4225TP3      O24493   2.259   0.427   8.189 -0.0197 -0.2631  0.3296
 4225TP3     H124494   2.296   0.401   8.274 -1.8498  0.3801  1.3914
 4225TP3     H224495   2.326   0.404   8.125  0.9209 -1.8918  1.8239
 4226TP3      O24496   4.229   3.630   0.665 -0.2869 -0.1935  0.1082
 4226TP3     H124497   4.308   3.608   0.614  0.1690  0.5226  0.4834
 4226TP3     H224498   4.232   3.570   0.739  0.7205  0.7786  0.9014
 4227TP3      O24499   0.852   5.164   9.690  0.2693  0.2473 -0.2935
 4227TP3     H124500   0.872   5.240   9.745 -0.5213  1.6098 -1.8328
 4227TP3     H224501   0.907   5.176   9.612 -2.0740  0.9720 -1.9628
 4228TP3      O24502   3.232   3.764   1.339 -0.1592  0.6192 -0.4492
 4228TP3     H124503   3.298   3.831   1.319  0.6984  0.2527  1.0383
 4228TP3     H224504   3.244   3.697   1.272  1.8941 -0.0563  0.5230
 4229TP3      O24505   3.499   1.625   2.999  0.0768  0.6780 -0.1916
 4229TP3     H124506   3.569   1.662   2.946  0.3507 -1.3546 -1.3069
 4229TP3     H224507   3.544   1.578   3.070  0.0260 -2.0626 -1.8409
 4230TP3      O24508   2.521   1.713   8.111 -0.1392  0.6632  0.1139
 4230TP3     H124509   2.458   1.717   8.039  0.0885  0.8221 -0.0776
 4230TP3     H224510   2.472   1.743   8.188 -0.5255  0.0258  0.1246
 4231TP3      O24511   0.246   1.720   1.782 -0.2911 -0.3553 -0.6499
 4231TP3     H124512   0.229   1.723   1.876 -0.4484 -3.5999 -0.4647
 4231TP3     H224513   0.174   1.668   1.746 -0.0790  0.5548 -2.5558
 4232TP3      O24514   1.917   4.570   8.245  0.4342  1.0531 -0.0867
 4232TP3     H124515   1.891   4.593   8.156  2.4001  2.3175 -0.3874
 4232TP3     H224516   1.885   4.642   8.299 -3.4655 -1.0850  0.8695
 4233TP3      O24517   4.271   0.284   9.951  0.2699  0.0044  0.4028
 4233TP3     H124518   4.252   0.219  10.019 -1.8137  1.9148  1.8187
 4233TP3     H224519   4.184   0.310   9.919  0.9920  2.2697  0.1196
 4234TP3      O24520   4.460   3.996   2.026  0.0128 -0.5179  0.4409
 4234TP3     H124521   4.471   4.064   2.092  0.5349  0.0167 -0.1750
 4234TP3     H224522   4.389   4.029   1.969  1.4246  0.3867 -0.8822
 4235TP3      O24523   0.312   0.581   0.056  0.0295 -0.9473  0.1807
 4235TP3     H124524   0.377   0.552  -0.009  1.0281 -0.2688  0.8446
 4235TP3     H224525   0.230   0.542   0.026  0.6464 -1.4519 -0.9466
 4236TP3      O24526   0.784   1.355   2.328 -0.2220  0.2825  0.0187
 4236TP3     H124527   0.778   1.272   2.280 -0.7607 -0.5628  1.4671
 4236TP3     H224528   0.803   1.329   2.418  0.6164  1.8070  0.3127
 4237TP3      O24529   4.770   0.658   9.968  0.6076 -0.4345 -0.1866
 4237TP3     H124530   4.760   0.685   9.877 -0.5475 -1.2828 -0.3464
 4237TP3     H224531   4.754   0.737  10.019 -2.6754 -0.6386 -0.6385
 4238TP3      O24532   4.570   3.207   9.563  0.3057 -0.1891 -0.2045
 4238TP3     H124533   4.639   3.166   9.615 -0.2247  0.2334  0.8562
 4238TP3     H224534   4.602   3.297   9.548 -0.8063  0.6313  1.9264
 4239TP3      O24535   2.019   3.028   9.250 -0.9884 -0.5437  0.3394
 4239TP3     H124536   2.072   2.988   9.181 -1.0282 -1.4163  0.8099
 4239TP3     H224537   1.971   3.098   9.205  0.7409  0.4493 -0.0488
 4240TP3      O24538   3.795   4.061   3.020 -0.2408 -0.0520 -0.3173
 4240TP3     H124539   3.728   4.015   3.072  0.7444  1.4608  2.4981
 4240TP3     H224540   3.782   4.154   3.041  1.3263  0.4667 -1.4625
 4241TP3      O24541   4.488   4.016   8.327  0.3856 -0.2620  0.1397
 4241TP3     H124542   4.578   4.047   8.339  0.1291  1.1368 -1.1888
 4241TP3     H224543   4.437   4.067   8.391  0.3277  0.1065 -0.1981
 4242TP3      O24544   1.105   0.492   2.516 -0.1629  0.7937 -0.0010
 4242TP3     H124545   1.140   0.431   2.581 -0.1516  2.5846  1.7637
 4242TP3     H224546   1.152   0.470   2.435  0.7820 -0.6555  0.8838
 4243TP3      O24547   1.858   3.968   9.156 -0.2652  0.2947 -0.3959
 4243TP3     H124548   1.774   3.969   9.200 -0.4140  0.5731 -0.6820
 4243TP3     H224549   1.862   3.882   9.114 -1.5033  1.1581 -2.4449
 4244TP3      O24550   4.913   0.118   8.667  0.2806  0.0487 -0.3060
 4244TP3     H124551   4.891   0.196   8.718 -0.2825  0.2248 -0.8225
 4244TP3     H224552   4.838   0.060   8.677  1.0158 -0.7737  0.7193
 4245TP3      O24553   5.195   0.644   2.292  0.3392  0.1231  0.4248
 4245TP3     H124554   5.129   0.576   2.306  1.0588 -0.5871  0.4754
 4245TP3     H224555   5.146   0.721   2.265 -0.3990 -0.8167 -0.9962
 4246TP3      O24556   2.710   4.685   7.983  0.5881 -0.4366  0.2054
 4246TP3     H124557   2.783   4.719   8.035  0.9351  1.2537 -1.2905
 4246TP3     H224558   2.655   4.761   7.966 -0.4278 -1.2866 -0.4252
 4247TP3      O24559   3.226   4.656   8.750 -0.0963 -0.0051  0.4363
 4247TP3     H124560   3.179   4.634   8.671 -0.1199 -1.8110  0.9176
 4247TP3     H224561   3.318   4.655   8.724 -0.0750 -1.0494  0.5073
 4248TP3      O24562   1.445   2.583   1.264 -0.0993  0.1966  0.4915
 4248TP3     H124563   1.512   2.606   1.199 -1.4627 -1.6992 -1.7441
 4248TP3     H224564   1.363   2.609   1.223 -0.9174  0.4302  2.2135
 4249TP3      O24565   4.584   3.571   2.887 -0.0611 -0.5524  0.5256
 4249TP3     H124566   4.522   3.532   2.825 -1.1020 -0.2578  1.3703
 4249TP3     H224567   4.616   3.650   2.842 -0.2490 -0.7342  0.0657
 4250TP3      O24568   3.793   2.857   0.743 -0.4390 -0.8743  0.2686
 4250TP3     H124569   3.851   2.901   0.805 -0.8021  0.4983 -0.3257
 4250TP3     H224570   3.739   2.928   0.707 -1.3265 -1.8770 -0.4253
 4251TP3      O24571   3.555   5.071   6.413  0.3992 -0.0651 -0.1997
 4251TP3     H124572   3.523   5.031   6.494  1.2294 -0.4652 -0.0637
 4251TP3     H224573   3.502   5.150   6.402 -1.7447 -1.4858 -0.7913
 4252TP3      O24574   1.165   4.460   9.555  0.8459 -0.3067  0.6281
 4252TP3     H124575   1.085   4.479   9.505  2.1977  2.9240 -0.5837
 4252TP3     H224576   1.133   4.427   9.639 -1.6028 -2.7989 -1.0920
 4253TP3      O24577   3.686   3.110   1.529  0.1150  0.7665  0.5882
 4253TP3     H124578   3.711   3.137   1.441 -0.0352  1.3707  0.7191
 4253TP3     H224579   3.737   3.168   1.586 -1.2965  1.7866  0.8646
 4254TP3      O24580   1.917   3.220   9.648  0.0464  0.2006 -0.1298
 4254TP3     H124581   1.932   3.134   9.609  0.3290  0.1517  0.0878
 4254TP3     H224582   1.841   3.254   9.601 -2.1526 -1.5176  1.9268
 4255TP3      O24583   1.703   0.725   2.114  0.8443  0.2316 -0.1480
 4255TP3     H124584   1.783   0.683   2.148  0.0121 -0.9561  0.3988
 4255TP3     H224585   1.735   0.803   2.068  2.2458  0.2874  0.8580
 4256TP3      O24586   3.985   1.980   9.765 -0.0753  0.0149  0.5391
 4256TP3     H124587   4.067   2.025   9.742 -0.8357  0.8534 -0.6732
 4256TP3     H224588   4.001   1.889   9.742  0.2967  0.2898 -0.3714
 4257TP3      O24589   2.134   2.942   8.713  0.0794  0.0812  0.1597
 4257TP3     H124590   2.150   3.035   8.699  0.0627 -0.1113 -1.3111
 4257TP3     H224591   2.164   2.900   8.633 -0.7948 -1.0811  0.4078
 4258TP3      O24592   1.967   1.868   7.310 -0.3655 -0.0798 -0.0122
 4258TP3     H124593   1.901   1.831   7.252 -1.2301  0.6606  0.4836
 4258TP3     H224594   1.937   1.847   7.398  1.2620 -1.7564  0.2134
 4259TP3      O24595   0.493   0.475   2.214  0.3107 -0.5854  0.1081
 4259TP3     H124596   0.504   0.512   2.126  0.9367 -1.7131 -0.3106
 4259TP3     H224597   0.483   0.551   2.271  1.1156  0.2082 -0.7794
 4260TP3      O24598   4.954   0.811   2.507 -0.1291  0.1084  0.7867
 4260TP3     H124599   4.940   0.726   2.548  0.7549  0.6710  2.3380
 4260TP3     H224600   4.948   0.874   2.578  1.3882  1.1336  0.0691
 4261TP3      O24601   1.562   4.684   7.464  0.1839 -0.4501  0.0676
 4261TP3     H124602   1.511   4.603   7.471  0.0793 -0.3000  1.1301
 4261TP3     H224603   1.512   4.738   7.403  0.5448 -1.3827 -1.1138
 4262TP3      O24604   2.372   4.093   9.339  0.0163  0.2630  0.3397
 4262TP3     H124605   2.284   4.131   9.349 -0.6610 -0.8162 -1.1271
 4262TP3     H224606   2.365   4.007   9.379  0.3778  0.1356  0.1256
 4263TP3      O24607   5.242   2.404   7.102  0.3860  0.1681 -0.0221
 4263TP3     H124608   5.236   2.357   7.019 -0.6950  1.9162 -0.9825
 4263TP3     H224609   5.308   2.472   7.087 -0.6880  1.2698  0.1247
 4264TP3      O24610   1.305   3.546   3.608 -0.8499  0.1924  0.5375
 4264TP3     H124611   1.218   3.566   3.645  0.2179  0.4550  3.1640
 4264TP3     H224612   1.343   3.632   3.589 -0.7269  0.1292  0.4976
 4265TP3      O24613   3.894   2.273   2.700  0.0244 -0.8144  0.1344
 4265TP3     H124614   3.874   2.251   2.609  0.4404  0.3129 -0.2385
 4265TP3     H224615   3.933   2.360   2.696  0.8244 -1.0995  1.3109
 4266TP3      O24616   2.263   1.626   2.708 -0.3203 -0.1463 -0.1994
 4266TP3     H124617   2.173   1.618   2.677 -0.4645  0.2687  0.0962
 4266TP3     H224618   2.316   1.629   2.629 -0.7219  1.3905 -0.4392
 4267TP3      O24619   5.084   3.976   9.127  0.9263  0.3631 -0.5238
 4267TP3     H124620   5.066   3.902   9.186  2.7038  1.0354  0.9748
 4267TP3     H224621   5.117   3.935   9.047  1.4337 -0.4911  0.1071
 4268TP3      O24622   3.743   1.266   7.751  0.0788  0.0600  0.3309
 4268TP3     H124623   3.676   1.252   7.817 -0.1365  1.3806  0.4111
 4268TP3     H224624   3.768   1.358   7.760  2.4229 -0.5497  0.7815
 4269TP3      O24625   1.679   3.320   8.796 -0.5461  0.6714 -0.2195
 4269TP3     H124626   1.743   3.250   8.812 -0.0608  0.6462 -2.0657
 4269TP3     H224627   1.674   3.327   8.701 -1.0290  2.7496 -0.0946
 4270TP3      O24628   0.566   1.781   8.826 -0.2623 -0.2651  0.1221
 4270TP3     H124629   0.594   1.779   8.735 -1.0368 -0.1577 -0.1247
 4270TP3     H224630   0.648   1.778   8.876  0.1728 -0.2309 -0.5708
 4271TP3      O24631   4.382   4.400   0.049 -0.5728 -0.1244 -0.4216
 4271TP3     H124632   4.403   4.423   0.140  0.4688  0.0334 -0.6861
 4271TP3     H224633   4.429   4.466  -0.003  0.0581 -1.0980 -1.1058
 4272TP3      O24634   3.610   1.523   7.764  1.0848  0.7948  0.3369
 4272TP3     H124635   3.552   1.447   7.754  2.9540 -0.7056  0.4035
 4272TP3     H224636   3.591   1.578   7.687 -0.4800  0.4292  0.4253
 4273TP3      O24637   4.929   4.794   2.479  0.2381  0.0782 -0.1222
 4273TP3     H124638   4.879   4.836   2.550  1.4686 -0.2163  0.9644
 4273TP3     H224639   4.884   4.711   2.463 -1.3495  1.1186 -1.2627
 4274TP3      O24640   4.972   0.792   9.050 -0.4438 -0.5050 -0.0884
 4274TP3     H124641   4.977   0.696   9.050  0.6326 -0.4579  0.4198
 4274TP3     H224642   4.929   0.814   9.132 -3.4024 -0.6302 -1.4735
 4275TP3      O24643   0.535   4.472   2.278  0.0717 -0.3899 -0.2729
 4275TP3     H124644   0.614   4.445   2.231  0.3494  0.5543 -0.3786
 4275TP3     H224645   0.568   4.513   2.358 -0.2263  1.0528 -0.8480
 4276TP3      O24646   3.141   2.025   9.978 -0.0494  0.2493 -0.2205
 4276TP3     H124647   3.133   1.936   9.942 -1.4310  0.4592 -0.4903
 4276TP3     H224648   3.067   2.033  10.037 -0.0426  1.2907 -0.3467
 4277TP3      O24649   1.008   1.730   2.835 -1.4642 -0.2034  0.5630
 4277TP3     H124650   0.961   1.648   2.820 -1.0882  0.0951 -3.3359
 4277TP3     H224651   0.944   1.798   2.815 -0.8214  0.3564  0.3646
 4278TP3      O24652   3.791   2.571   7.276  0.0121 -0.2235 -0.5217
 4278TP3     H124653   3.720   2.525   7.232 -0.4052  0.1165 -0.2113
 4278TP3     H224654   3.821   2.636   7.213 -0.6148  0.2932 -0.2893
 4279TP3      O24655   2.310   3.510   7.258  0.1141  0.0117  0.2639
 4279TP3     H124656   2.322   3.429   7.208  0.6690  1.2110 -1.6535
 4279TP3     H224657   2.396   3.528   7.295  0.1781  0.1310  0.0550
 4280TP3      O24658   1.230   2.414   0.047  0.2099  0.2493  0.1028
 4280TP3     H124659   1.135   2.410   0.055  0.0423  0.4687 -1.4294
 4280TP3     H224660   1.259   2.323   0.057  0.1669  0.4847  3.3911
 4281TP3      O24661   3.989   4.724   7.961 -0.0153 -0.1831  0.2864
 4281TP3     H124662   4.025   4.781   7.893  0.7206 -0.2738  0.5872
 4281TP3     H224663   4.032   4.640   7.947 -1.1349 -0.7009 -0.1913
 4282TP3      O24664   2.146   3.984   9.095 -0.4956 -0.3541 -0.5409
 4282TP3     H124665   2.083   3.914   9.080 -1.6683  1.0557 -2.5323
 4282TP3     H224666   2.116   4.027   9.175 -0.2212 -1.5695  0.2514
 4283TP3      O24667   4.838   4.849   7.905  0.1377 -0.5742 -0.0117
 4283TP3     H124668   4.841   4.859   8.000  3.5919 -1.6627  0.1399
 4283TP3     H224669   4.770   4.785   7.889 -0.4958 -0.3599  1.7226
 4284TP3      O24670   4.180   3.223   7.968  0.0738  0.3130  0.4908
 4284TP3     H124671   4.096   3.238   8.011 -0.8128 -0.2419 -0.9632
 4284TP3     H224672   4.173   3.270   7.885  0.5564 -1.0588 -0.3618
 4285TP3      O24673   4.529   0.055   8.006  0.2199  0.3211 -0.0023
 4285TP3     H124674   4.511   0.147   7.989  0.2171  0.7647  2.1256
 4285TP3     H224675   4.446   0.019   8.034 -0.0186 -0.6339 -1.7581
 4286TP3      O24676   1.000   3.057   8.732  0.4292  0.0824  0.2235
 4286TP3     H124677   0.922   3.033   8.783  0.6632  0.8328  0.9645
 4286TP3     H224678   1.072   3.011   8.775  0.4157 -0.5317 -0.3994
 4287TP3      O24679   1.490   0.334   2.098  0.1430 -0.2642 -0.0307
 4287TP3     H124680   1.437   0.272   2.048  1.9971 -1.8580 -0.1085
 4287TP3     H224681   1.495   0.296   2.185 -0.3415  0.8326  0.4967
 4288TP3      O24682   1.611   5.002   8.073  0.1601 -0.0296 -0.2129
 4288TP3     H124683   1.662   5.081   8.060  0.5306 -0.3665 -0.8550
 4288TP3     H224684   1.528   5.019   8.028  0.2405 -0.0125 -0.3530
 4289TP3      O24685   2.349   4.072   8.576 -0.7098 -0.6287 -0.0375
 4289TP3     H124686   2.367   4.001   8.637 -1.1466 -0.6773  0.0374
 4289TP3     H224687   2.256   4.092   8.588 -0.0841  1.6621  1.7769
 4290TP3      O24688   5.070   3.759   9.310  0.5149 -0.3644  0.2866
 4290TP3     H124689   4.995   3.748   9.368 -0.0155  0.9388 -0.0966
 4290TP3     H224690   5.059   3.692   9.243 -0.6306  0.1402 -0.0614
 4291TP3      O24691   1.947   1.414   9.784 -0.1859  0.4304 -0.2409
 4291TP3     H124692   2.035   1.415   9.823 -0.7226  0.9450  1.0389
 4291TP3     H224693   1.908   1.496   9.814 -1.3402 -0.1202 -0.2198
 4292TP3      O24694   0.473   4.034   0.284  0.1309 -0.2938 -0.4864
 4292TP3     H124695   0.424   3.952   0.279  1.0014 -1.0088  1.6344
 4292TP3     H224696   0.469   4.070   0.195 -2.4805 -1.3122 -0.8673
 4293TP3      O24697   1.039   0.999   2.143 -0.1375  0.3341  0.5567
 4293TP3     H124698   1.025   0.930   2.078  0.1946  1.5900 -0.8893
 4293TP3     H224699   1.096   0.958   2.209 -1.9440 -1.5302  1.0744
 4294TP3      O24700   3.729   3.186   1.233  0.4061 -0.2005  0.4857
 4294TP3     H124701   3.652   3.165   1.180 -0.0121  2.7595 -0.2309
 4294TP3     H224702   3.803   3.174   1.172 -0.0283  2.6287 -0.7464
 4295TP3      O24703   4.904   0.383   0.135 -0.1819  0.1640 -0.1486
 4295TP3     H124704   4.875   0.297   0.103 -0.8039  0.1694  0.4035
 4295TP3     H224705   4.994   0.368   0.163 -0.7836 -0.7061  1.4253
 4296TP3      O24706   2.621   4.384   8.679 -0.1839 -0.6900 -0.0624
 4296TP3     H124707   2.642   4.293   8.660  1.5789 -0.4142  0.3468
 4296TP3     H224708   2.546   4.380   8.738 -0.1566 -1.8670 -0.0888
 4297TP3      O24709   0.066   1.949   9.984  0.3288  0.5831 -0.2007
 4297TP3     H124710   0.043   1.856   9.974  1.0427  0.1764  1.6958
 4297TP3     H224711   0.033   1.990   9.903  1.2550 -1.5338 -1.7349
 4298TP3      O24712   3.152   3.217   8.934  0.2831  0.1493 -0.0467
 4298TP3     H124713   3.196   3.298   8.960  1.7529 -0.5005 -0.4007
 4298TP3     H224714   3.155   3.219   8.838 -1.4548  0.5954 -0.1222
 4299TP3      O24715   1.205   2.912   8.870  0.6262 -0.2260 -0.3756
 4299TP3     H124716   1.243   2.826   8.852  0.8656  0.0804 -1.4212
 4299TP3     H224717   1.269   2.957   8.925  0.9440 -0.3723 -0.6239
 4300TP3      O24718   4.362   4.756   2.177  0.2103  0.2175  0.2986
 4300TP3     H124719   4.383   4.669   2.211  0.0732  0.3287  0.6753
 4300TP3     H224720   4.299   4.791   2.240  1.4112  1.1941  1.0135
 4301TP3      O24721   4.288   0.202   1.809 -0.9738 -0.3113 -0.4518
 4301TP3     H124722   4.381   0.177   1.805 -1.4592 -2.4385  0.3934
 4301TP3     H224723   4.286   0.277   1.867 -0.1398 -2.7255  3.0422
 4302TP3      O24724   3.256   3.420   1.948 -0.6355  0.0483  0.1440
 4302TP3     H124725   3.222   3.354   1.888 -0.5475 -0.8541  1.0536
 4302TP3     H224726   3.199   3.415   2.025 -1.5792  2.1086 -0.3377
 4303TP3      O24727   2.235   0.523   3.048 -0.4315 -0.5183 -0.0320
 4303TP3     H124728   2.296   0.552   3.116  0.8802 -0.5040 -1.1669
 4303TP3     H224729   2.165   0.478   3.096  0.6374 -0.8433  1.2931
 4304TP3      O24730   1.204   0.212   8.582  0.2176 -0.9823  0.6318
 4304TP3     H124731   1.189   0.119   8.567  0.7923 -0.7965 -1.5524
 4304TP3     H224732   1.177   0.227   8.672  0.8044 -3.3987  1.2807
 4305TP3      O24733   4.042   3.239   1.871 -0.7922  0.2204 -0.3861
 4305TP3     H124734   3.989   3.199   1.802  0.5557 -1.7801 -0.3512
 4305TP3     H224735   4.034   3.178   1.945 -0.4131  1.1707  0.4580
 4306TP3      O24736   1.026   4.440   8.284  0.4485 -0.0363 -0.0463
 4306TP3     H124737   1.118   4.465   8.292  1.1969 -2.3879 -0.6680
 4306TP3     H224738   0.988   4.464   8.369  1.4380  1.5253  0.0066
 4307TP3      O24739   3.656   3.169   3.563 -0.4485 -0.4603  0.2649
 4307TP3     H124740   3.721   3.193   3.497  1.7855 -1.7149  1.8920
 4307TP3     H224741   3.626   3.081   3.537 -2.1044  0.3773 -0.8554
 4308TP3      O24742   4.979   3.395   2.849  0.1308  0.2890  0.1192
 4308TP3     H124743   5.057   3.438   2.884  1.5002 -1.0207 -1.1778
 4308TP3     H224744   4.978   3.419   2.756 -0.5996 -0.3166 -0.0415
 4309TP3      O24745   4.971   3.307   6.476 -0.1029 -0.0108  0.6559
 4309TP3     H124746   4.976   3.213   6.459  2.5020  0.3111 -0.9654
 4309TP3     H224747   5.062   3.337   6.470 -0.8851  2.6715  0.7837
 4310TP3      O24748   4.083   2.643   3.422  0.1718 -0.6476  0.4442
 4310TP3     H124749   4.136   2.715   3.456 -0.3644  0.7128 -1.4826
 4310TP3     H224750   4.104   2.570   3.480  2.0629  0.5582  1.4018
 4311TP3      O24751   2.788   1.362   3.487 -0.3979 -0.0502 -0.0866
 4311TP3     H124752   2.736   1.442   3.496 -0.8472 -0.1930 -1.2781
 4311TP3     H224753   2.866   1.378   3.540 -0.8241  0.8787  0.2830
 4312TP3      O24754   5.012   4.290   2.426  0.6524 -0.1585  0.3535
 4312TP3     H124755   5.000   4.366   2.368 -0.2587  0.1539  0.9288
 4312TP3     H224756   5.062   4.228   2.374 -1.4620 -0.5297 -1.3734
 4313TP3      O24757   4.107   0.074   1.959 -0.6110  0.5781  0.5308
 4313TP3     H124758   4.184   0.110   1.916 -1.3519  0.8066 -0.6466
 4313TP3     H224759   4.108   0.112   2.047  1.6438 -0.8931  1.2319
 4314TP3      O24760   3.515   1.284   0.309 -0.1355  0.0195 -0.4101
 4314TP3     H124761   3.463   1.215   0.269  2.2460 -1.0145 -1.9548
 4314TP3     H224762   3.503   1.360   0.252  1.0144 -0.6164 -1.5591
 4315TP3      O24763   1.637   2.780  10.010 -0.2684 -0.7009  0.2623
 4315TP3     H124764   1.644   2.744   9.921  1.5563 -0.5715  0.3220
 4315TP3     H224765   1.545   2.767  10.033 -0.8258 -0.5904 -1.6974
 4316TP3      O24766   4.815   4.781   0.646  0.1234 -0.1460 -0.0084
 4316TP3     H124767   4.872   4.714   0.685 -0.5971 -0.8089 -0.0656
 4316TP3     H224768   4.807   4.848   0.713  0.0414 -0.6022  0.4429
 4317TP3      O24769   1.141   3.555   2.591  0.2401  0.7948 -0.2685
 4317TP3     H124770   1.113   3.520   2.675 -0.1203 -0.5488 -0.9337
 4317TP3     H224771   1.169   3.645   2.611 -1.5822  1.1356  0.9541
 4318TP3      O24772   4.945   3.882   8.306  0.5541  0.0259 -0.7666
 4318TP3     H124773   4.891   3.827   8.249  0.5185 -0.0766 -0.6334
 4318TP3     H224774   5.011   3.920   8.247 -0.1077  0.7274 -1.0684
 4319TP3      O24775   1.136   1.044   7.416 -0.1169  0.0779 -0.4299
 4319TP3     H124776   1.215   0.989   7.420  0.2878  0.6029 -1.0236
 4319TP3     H224777   1.098   1.037   7.503  0.2364 -0.6985 -0.3268
 4320TP3      O24778   2.491   0.340   8.639  0.6564  0.4121 -0.2210
 4320TP3     H124779   2.548   0.306   8.708 -0.2365  0.0286  0.3426
 4320TP3     H224780   2.437   0.406   8.682 -0.4412 -0.3794 -0.3521
 4321TP3      O24781   2.440   2.228   0.681  0.6730  0.3117  0.5860
 4321TP3     H124782   2.418   2.283   0.755  2.4662  1.2694  0.4725
 4321TP3     H224783   2.410   2.276   0.604 -1.3949 -0.7864  0.6415
 4322TP3      O24784   4.549   2.275   0.760 -0.1658 -0.3489  0.0931
 4322TP3     H124785   4.589   2.316   0.683 -1.0689 -0.0134 -0.2208
 4322TP3     H224786   4.612   2.210   0.789 -0.9651 -2.5644 -2.6926
 4323TP3      O24787   4.861   0.886   0.933 -0.3007  0.1706  0.1594
 4323TP3     H124788   4.861   0.973   0.892 -1.3773 -0.2005 -0.6813
 4323TP3     H224789   4.820   0.900   1.018 -1.6205  0.2884 -0.4758
 4324TP3      O24790   3.863   0.014   9.907 -0.0823 -0.0181  0.2093
 4324TP3     H124791   3.832  -0.034   9.984 -1.2543 -2.6200 -1.7285
 4324TP3     H224792   3.814   0.096   9.909 -1.3521 -0.7514  1.3589
 4325TP3      O24793   0.105   3.120   9.733 -0.1877  0.1097 -0.2362
 4325TP3     H124794   0.110   3.179   9.659  0.0819  1.5229  0.8675
 4325TP3     H224795   0.013   3.092   9.735 -0.0116 -0.6583 -1.5958
 4326TP3      O24796   2.914   4.433   0.239  0.2247  0.1454 -0.1462
 4326TP3     H124797   2.987   4.493   0.251  1.0149 -0.5861 -1.0328
 4326TP3     H224798   2.951   4.362   0.185 -0.4280 -1.5495  1.5308
 4327TP3      O24799   0.971   4.743   9.887 -0.4536  0.0311  0.3258
 4327TP3     H124800   0.938   4.813   9.830 -1.4457 -0.0466  0.7917
 4327TP3     H224801   0.893   4.692   9.910  0.4939 -2.7817 -2.0158
 4328TP3      O24802   4.426   4.105   3.475 -0.1079 -0.3543  0.0486
 4328TP3     H124803   4.426   4.199   3.456  0.3099 -0.1532  0.9724
 4328TP3     H224804   4.334   4.080   3.476 -0.1927 -0.1072 -0.8898
 4329TP3      O24805   4.638   2.263   8.824 -1.1006  0.2162 -0.0739
 4329TP3     H124806   4.722   2.287   8.864 -1.4743  2.0075 -0.3220
 4329TP3     H224807   4.660   2.191   8.764  0.1003  0.1030  0.4757
 4330TP3      O24808   4.547   4.438   9.757 -0.5897 -0.6110 -0.5685
 4330TP3     H124809   4.501   4.392   9.687  1.2253 -0.3830 -2.0020
 4330TP3     H224810   4.621   4.382   9.778  1.1169  1.1036 -1.6675
 4331TP3      O24811   3.584   3.205   2.486 -0.2558  0.7382 -0.1784
 4331TP3     H124812   3.653   3.215   2.421 -1.4992  2.1053 -1.3681
 4331TP3     H224813   3.507   3.178   2.436 -1.0355  1.0105  0.8394
 4332TP3      O24814   2.365   0.399   2.339  0.3527  0.1178  0.7344
 4332TP3     H124815   2.414   0.450   2.404  1.3209  0.3086 -0.1073
 4332TP3     H224816   2.431   0.375   2.274 -0.8918  1.3567 -1.0527
 4333TP3      O24817   1.614   1.636   8.165 -0.4333 -0.2928 -0.2542
 4333TP3     H124818   1.633   1.551   8.126 -0.8569 -0.8450  0.7083
 4333TP3     H224819   1.609   1.619   8.259  0.3383  0.9595  0.0423
 4334TP3      O24820   4.997   2.470   7.210 -0.6689 -0.1320 -0.2655
 4334TP3     H124821   5.084   2.435   7.193 -0.5339 -0.2341  0.5692
 4334TP3     H224822   4.978   2.526   7.135  1.0394  1.6284  0.5228
 4335TP3      O24823   3.351   2.590   9.746  0.5780 -0.3955  0.1374
 4335TP3     H124824   3.376   2.599   9.654  0.1469 -0.0630  0.0494
 4335TP3     H224825   3.309   2.504   9.751 -0.8453  0.2309 -0.3298
 4336TP3      O24826   2.935   1.594   9.521 -0.1739  0.3128  0.1002
 4336TP3     H124827   2.922   1.688   9.532 -0.3044  0.4653 -1.1931
 4336TP3     H224828   2.903   1.576   9.432 -4.1745 -1.6804  1.6739
 4337TP3      O24829   2.446   4.139   8.337 -0.9748  0.2521  0.3252
 4337TP3     H124830   2.418   4.092   8.415 -2.5647  0.0073 -0.3687
 4337TP3     H224831   2.386   4.213   8.330 -0.3282  0.7455 -0.2179
 4338TP3      O24832   0.180   0.911   9.105 -0.4346  0.4473 -0.1100
 4338TP3     H124833   0.241   0.965   9.055  0.5969 -1.0179 -0.4911
 4338TP3     H224834   0.147   0.848   9.041 -0.1829 -0.5596  0.7446
 4339TP3      O24835   4.851   3.364   8.625 -0.1828  0.0445  0.3316
 4339TP3     H124836   4.805   3.442   8.657  0.6037  0.1509  1.2471
 4339TP3     H224837   4.920   3.399   8.569 -0.8286 -0.0925 -0.5865
 4340TP3      O24838   2.592   3.572   1.712  0.3290  0.4198  0.1092
 4340TP3     H124839   2.676   3.588   1.669  1.2135  0.9510  1.9477
 4340TP3     H224840   2.611   3.577   1.805 -1.5753 -0.4058  0.5951
 4341TP3      O24841   0.810   3.309   8.430  0.2833 -0.1319 -0.1158
 4341TP3     H124842   0.805   3.356   8.513  1.4444  1.7561 -1.0360
 4341TP3     H224843   0.737   3.343   8.378 -0.9596 -1.9220  0.3571
 4342TP3      O24844   0.437   5.052   0.434 -0.1845  0.4569 -0.4205
 4342TP3     H124845   0.370   4.983   0.438  0.2326  0.0702 -0.0221
 4342TP3     H224846   0.387   5.134   0.432 -0.6924  0.1428 -1.1902
 4343TP3      O24847   1.785   4.766   9.263 -0.0385  0.0115 -0.6311
 4343TP3     H124848   1.730   4.690   9.248  1.3267 -1.1572  0.0992
 4343TP3     H224849   1.758   4.829   9.195 -1.3259 -1.0142 -1.1085
 4344TP3      O24850   0.041   4.441   1.951 -0.2076 -0.2045  0.4610
 4344TP3     H124851   0.014   4.393   1.873 -1.4743  0.1794  0.6255
 4344TP3     H224852   0.063   4.373   2.015 -0.5228 -0.5438  0.2132
 4345TP3      O24853   4.092   4.726   8.264 -0.0169 -0.6647 -1.1646
 4345TP3     H124854   4.090   4.631   8.258 -0.3545 -0.8409  0.8821
 4345TP3     H224855   4.113   4.743   8.356  0.4239  1.2442 -1.5792
 4346TP3      O24856   2.193   4.356   0.208 -0.1778 -0.3102  0.4115
 4346TP3     H124857   2.128   4.423   0.187  0.2464 -0.6496 -2.3887
 4346TP3     H224858   2.253   4.399   0.268  0.4228  2.1119 -1.7356
 4347TP3      O24859   0.364   5.251   9.029  0.0442 -0.4132 -0.3173
 4347TP3     H124860   0.377   5.261   8.935 -0.4818  2.0751 -0.1884
 4347TP3     H224861   0.279   5.292   9.046  0.2326 -0.6143  1.2659
 4348TP3      O24862   4.215   3.580   3.143 -0.3953 -0.1163 -0.3903
 4348TP3     H124863   4.270   3.642   3.191 -1.8723  2.5175 -1.8615
 4348TP3     H224864   4.132   3.578   3.192 -0.6738 -0.1881 -0.8537
 4349TP3      O24865   3.998   4.765   7.043 -0.2104  0.0935  0.5712
 4349TP3     H124866   3.983   4.829   7.113  1.4422  2.0075 -0.7384
 4349TP3     H224867   4.004   4.817   6.964  1.1164 -1.7134 -0.5819
 4350TP3      O24868   1.175   4.145   6.580  0.0930  0.3332 -0.4787
 4350TP3     H124869   1.173   4.079   6.649 -0.8224  0.8225 -0.0243
 4350TP3     H224870   1.083   4.170   6.568  0.2923  0.6337 -1.5115
 4351TP3      O24871   1.377   1.769   0.847 -0.1919 -1.1737  0.6047
 4351TP3     H124872   1.325   1.845   0.871 -2.9557 -2.3572 -1.1718
 4351TP3     H224873   1.442   1.802   0.784 -0.1412 -0.0166  1.2513
 4352TP3      O24874   1.246   1.229   2.494 -0.3506  0.1614 -0.6712
 4352TP3     H124875   1.325   1.183   2.522  0.7892  2.1996 -0.3303
 4352TP3     H224876   1.279   1.301   2.440 -1.8377  2.0849  0.8749
 4353TP3      O24877   4.541   0.485   3.196  0.3152 -0.0264 -0.2485
 4353TP3     H124878   4.465   0.444   3.155 -1.4424  1.0621  1.6941
 4353TP3     H224879   4.602   0.413   3.211 -1.2878 -1.3706  0.1196
 4354TP3      O24880   4.880   2.524   1.249 -0.5139 -0.2142  0.5424
 4354TP3     H124881   4.945   2.474   1.200  0.6856  0.0883  1.7807
 4354TP3     H224882   4.806   2.464   1.258  0.1267 -1.0630  0.3071
 4355TP3      O24883   3.926   2.111   3.395  0.0016 -0.0484 -0.2264
 4355TP3     H124884   3.948   2.200   3.368  0.4071 -0.3307 -0.8387
 4355TP3     H224885   3.933   2.059   3.315  0.9559 -0.8509  0.3642
 4356TP3      O24886   4.055   3.080   2.082  0.7382  0.3106  0.2241
 4356TP3     H124887   4.109   3.067   2.161  1.2906  1.3259  0.0331
 4356TP3     H224888   3.979   3.024   2.096  1.4630 -0.5497  0.8666
 4357TP3      O24889   1.600   0.391   1.331 -0.2724 -0.0697 -0.2753
 4357TP3     H124890   1.572   0.474   1.293 -0.5051 -0.3608 -0.7537
 4357TP3     H224891   1.559   0.389   1.417  0.0053  0.4552 -0.1221
 4358TP3      O24892   1.850   2.212   7.860  0.5868  0.2624 -0.7932
 4358TP3     H124893   1.865   2.135   7.804  1.3853  0.5395 -0.9825
 4358TP3     H224894   1.828   2.281   7.798 -1.7978 -0.1762 -0.5040
 4359TP3      O24895   2.861   4.452   1.255  0.1290  0.4265  0.2588
 4359TP3     H124896   2.845   4.487   1.342  0.9629  1.9404 -0.1579
 4359TP3     H224897   2.957   4.454   1.245 -0.0187  1.9233 -1.2992
 4360TP3      O24898   2.307   1.479   7.884 -0.0332 -0.5959 -0.0203
 4360TP3     H124899   2.254   1.479   7.804 -2.4049  0.6381  1.4524
 4360TP3     H224900   2.315   1.571   7.908  0.9605 -0.9207  1.0076
 4361TP3      O24901   0.104   4.276   7.868 -0.0328  0.3778 -0.3685
 4361TP3     H124902   0.018   4.236   7.867  0.0519  0.1911 -0.1201
 4361TP3     H224903   0.144   4.250   7.784  1.0548 -2.3212  0.8845
 4362TP3      O24904   3.410   2.965   0.154  1.0609  0.3897 -0.2370
 4362TP3     H124905   3.337   2.996   0.101 -0.1904  1.4869  1.9728
 4362TP3     H224906   3.436   2.882   0.113 -3.7452 -1.9552  0.6939
 4363TP3      O24907   0.593   1.352   0.958  0.1276 -0.6605  0.0775
 4363TP3     H124908   0.568   1.442   0.940 -0.0198 -1.1205 -2.3051
 4363TP3     H224909   0.519   1.300   0.927  1.0255 -1.6903 -0.4148
 4364TP3      O24910   1.934   1.656   7.501  0.3000  0.1258 -0.5269
 4364TP3     H124911   1.874   1.618   7.565 -0.2076 -0.3022 -1.2457
 4364TP3     H224912   1.924   1.601   7.423 -1.4553  2.4683 -2.0807
 4365TP3      O24913   5.261   1.490   1.671 -0.0860 -0.1183 -0.0424
 4365TP3     H124914   5.311   1.432   1.729  0.0688 -0.1558 -0.2139
 4365TP3     H224915   5.280   1.458   1.583 -0.8448 -0.4788 -0.0805
 4366TP3      O24916   0.549   0.157   1.989  0.0094 -0.3319 -0.8885
 4366TP3     H124917   0.603   0.082   1.967  1.2942 -0.0043  0.9355
 4366TP3     H224918   0.460   0.123   1.990  0.4335 -1.5126 -1.3855
 4367TP3      O24919   4.495   4.301   8.565  0.1031 -0.0325  0.4654
 4367TP3     H124920   4.578   4.342   8.589  0.0177  0.5341 -0.1741
 4367TP3     H224921   4.459   4.268   8.647 -0.1523  1.7701  1.1312
 4368TP3      O24922   5.224   1.195   9.842 -0.3095 -0.0907  0.0452
 4368TP3     H124923   5.134   1.194   9.876 -0.4395 -3.4113 -0.0613
 4368TP3     H224924   5.277   1.163   9.915  0.6496  0.7812 -0.2560
 4369TP3      O24925   0.268   2.241  10.088 -0.0700  0.2273  0.5596
 4369TP3     H124926   0.277   2.287  10.172 -0.1391 -0.3488  0.8903
 4369TP3     H224927   0.216   2.163  10.109 -2.3474  1.3649 -0.5103
 4370TP3      O24928   3.635   4.628   8.551  0.0325  0.1805 -0.1415
 4370TP3     H124929   3.579   4.634   8.473 -2.1650 -0.7388  1.2575
 4370TP3     H224930   3.597   4.692   8.612  1.9246  1.1376  0.1208
 4371TP3      O24931   0.903   4.354   8.664  0.1553  0.4247 -0.1081
 4371TP3     H124932   0.930   4.445   8.678 -0.0071  0.6785 -1.4036
 4371TP3     H224933   0.817   4.348   8.706  0.3067  0.7748  0.2577
 4372TP3      O24934   1.084   3.686   7.575 -0.0155 -0.1636  0.6604
 4372TP3     H124935   1.073   3.608   7.629  0.2615  0.0713  1.0639
 4372TP3     H224936   1.137   3.656   7.500  0.4796 -0.2648  1.0437
 4373TP3      O24937   2.803   3.602   8.160 -0.3022  0.1459 -0.2795
 4373TP3     H124938   2.866   3.667   8.128 -0.2696  0.5021  0.4941
 4373TP3     H224939   2.829   3.520   8.118 -0.1805  0.5728 -1.0616
 4374TP3      O24940   4.201   3.741   7.257  0.5161  0.5086 -0.6574
 4374TP3     H124941   4.273   3.708   7.310  0.4048  0.0919 -0.7572
 4374TP3     H224942   4.175   3.666   7.203 -0.1444  0.5857 -0.4521
 4375TP3      O24943   3.957   2.428   1.620 -0.2429 -0.6235  0.1808
 4375TP3     H124944   3.929   2.340   1.594  0.6214 -0.9187  0.2021
 4375TP3     H224945   4.017   2.413   1.693  1.5515 -0.1893 -1.1168
 4376TP3      O24946   0.961   3.636   0.407  0.1214 -0.1502 -0.2311
 4376TP3     H124947   1.024   3.707   0.399 -1.6316  1.4873 -0.2235
 4376TP3     H224948   0.896   3.654   0.339 -3.6264  1.8600  3.4120
 4377TP3      O24949   0.369   2.666   6.507  0.2916  0.0172 -0.2759
 4377TP3     H124950   0.346   2.599   6.571  0.2677  0.8618  0.6325
 4377TP3     H224951   0.355   2.749   6.553 -0.9836  0.7058 -1.7991
 4378TP3      O24952   2.821   4.586   9.172 -0.0818  0.1038 -0.0050
 4378TP3     H124953   2.784   4.500   9.192 -0.2378  0.2441  0.3069
 4378TP3     H224954   2.786   4.606   9.085 -0.3219  0.0045  0.0664
 4379TP3      O24955   3.084   1.396   1.412 -0.2258  0.2870 -0.8451
 4379TP3     H124956   3.045   1.314   1.381 -1.5624  0.5982 -0.0551
 4379TP3     H224957   3.009   1.450   1.436  0.6571  1.5697 -0.8997
 4380TP3      O24958   1.974   2.702   0.852 -0.0805 -0.2572 -0.0442
 4380TP3     H124959   2.047   2.726   0.910  0.4725  0.6582 -1.0643
 4380TP3     H224960   1.908   2.664   0.910  1.2856 -1.3217  0.8891
 4381TP3      O24961   0.595   2.017   7.137  0.3173 -0.4473 -0.0383
 4381TP3     H124962   0.633   1.951   7.078 -0.2555  0.8615 -1.9747
 4381TP3     H224963   0.634   2.099   7.108  0.4722  0.1891  1.8635
 4382TP3      O24964   3.724   4.821   3.782 -0.2262  0.3853  0.5026
 4382TP3     H124965   3.685   4.901   3.747 -0.5552  0.1198  0.2407
 4382TP3     H224966   3.648   4.770   3.813 -0.0143  0.2091  0.7354
 4383TP3      O24967   0.288   3.111   8.538 -0.1721 -0.0113 -0.0929
 4383TP3     H124968   0.302   3.037   8.598 -0.9540  0.4184  0.6462
 4383TP3     H224969   0.295   3.073   8.451 -2.3966 -1.3703  0.2529
 4384TP3      O24970   3.474   4.653   7.739 -0.2105 -0.1361 -0.6962
 4384TP3     H124971   3.492   4.737   7.696 -1.2211 -0.4248 -1.7480
 4384TP3     H224972   3.536   4.592   7.698  0.1026 -0.0374 -0.3765
 4385TP3      O24973   1.815   3.573   8.557 -0.1075  0.0184 -0.4525
 4385TP3     H124974   1.783   3.657   8.524 -0.2894  0.1969  0.1639
 4385TP3     H224975   1.903   3.564   8.519 -0.4031  0.0961 -1.1781
 4386TP3      O24976   1.335   2.614   7.669  0.4011 -0.1374  0.3066
 4386TP3     H124977   1.247   2.616   7.707  0.1157  1.9690 -0.3872
 4386TP3     H224978   1.375   2.696   7.696  2.9126 -1.8475  2.2128
 4387TP3      O24979   4.733   2.575   0.902  0.1657  0.0313 -0.0553
 4387TP3     H124980   4.701   2.615   0.821 -1.0596  0.1651  0.4677
 4387TP3     H224981   4.675   2.609   0.969  0.5604 -0.8336  0.7414
 4388TP3      O24982   1.056   3.439   9.035 -0.3345  0.5309  0.1236
 4388TP3     H124983   1.113   3.482   9.099  0.3382 -2.2411  1.5354
 4388TP3     H224984   0.969   3.443   9.074 -0.1353 -0.0647  0.6413
 4389TP3      O24985   5.154   3.659   2.670  0.1507  0.5524  0.5511
 4389TP3     H124986   5.220   3.593   2.651 -0.2756 -0.0728  1.1829
 4389TP3     H224987   5.137   3.650   2.764 -1.3038  0.2439  0.2912
 4390TP3      O24988   2.627   4.722   8.646  0.1643  0.2769 -0.4797
 4390TP3     H124989   2.590   4.748   8.731  1.9129 -0.1163  0.4433
 4390TP3     H224990   2.588   4.637   8.628  0.2226  0.0914  0.2306
 4391TP3      O24991   3.983   0.987   2.239 -0.2139 -0.1305  0.0747
 4391TP3     H124992   4.039   0.949   2.306 -1.2809 -0.4389  0.8062
 4391TP3     H224993   4.027   1.069   2.214 -0.7536  0.9837  2.5302
 4392TP3      O24994   2.416   3.096   2.018 -0.6120 -0.1618  0.3845
 4392TP3     H124995   2.433   3.184   1.984 -1.5609  0.1828  0.7651
 4392TP3     H224996   2.407   3.041   1.941 -0.1922  0.1026  0.1416
 4393TP3      O24997   2.252   1.759   0.861 -1.0599 -0.6144  0.5890
 4393TP3     H124998   2.326   1.813   0.833 -0.1487 -0.1846  3.4935
 4393TP3     H224999   2.185   1.773   0.794  1.4774 -1.2186 -2.3306
 4394TP3      O25000   0.939   1.956   7.944  0.1890 -0.6237 -0.4158
 4394TP3     H125001   1.010   1.892   7.945  2.3926  1.6675 -1.4130
 4394TP3     H225002   0.947   2.003   8.026 -0.4961 -0.6622 -0.3203
 4395TP3      O25003   2.219   0.594   6.798  0.1661  0.4187 -0.2345
 4395TP3     H125004   2.204   0.653   6.872  1.8313 -1.4333  1.7123
 4395TP3     H225005   2.297   0.545   6.822 -0.1716 -1.4038 -2.5173
 4396TP3      O25006   2.804   2.497   2.987  1.1514 -0.0988  0.0030
 4396TP3     H125007   2.822   2.408   3.020 -0.7601 -0.5946 -0.1375
 4396TP3     H225008   2.712   2.493   2.959  0.8405  2.0979  0.5567
 4397TP3      O25009   1.123   2.456   1.658  0.1021 -0.2412  0.0534
 4397TP3     H125010   1.068   2.377   1.651  1.4881 -1.2267 -0.2238
 4397TP3     H225011   1.211   2.425   1.636  0.4567  1.6933 -1.5627
 4398TP3      O25012   4.311   2.755   1.780  0.1255  0.0843  0.3167
 4398TP3     H125013   4.340   2.668   1.752 -0.4108  0.3533 -1.1148
 4398TP3     H225014   4.266   2.739   1.863 -1.7506 -1.3289 -0.8861
 4399TP3      O25015   0.033   0.725   8.801  0.0118  0.0398  0.8044
 4399TP3     H125016   0.040   0.802   8.857 -0.8949 -0.3712  1.5091
 4399TP3     H225017  -0.026   0.753   8.730  0.8256  0.4285  0.2681
 4400TP3      O25018   4.133   1.951   2.544  0.6387 -0.7499  0.7298
 4400TP3     H125019   4.178   2.026   2.505 -2.1613  0.5269 -0.3265
 4400TP3     H225020   4.184   1.875   2.517  1.0361  0.4348 -2.1978
 4401TP3      O25021   2.948   4.168   1.459  0.2757  0.3660  0.4705
 4401TP3     H125022   2.877   4.105   1.470 -0.6862  0.8579 -2.0677
 4401TP3     H225023   2.940   4.226   1.534 -0.7384 -0.7501  1.2777
 4402TP3      O25024   2.716   4.099   2.055 -0.8513  0.5935 -0.1856
 4402TP3     H125025   2.782   4.143   2.002  0.6114 -2.0853 -0.7590
 4402TP3     H225026   2.686   4.026   2.001 -0.3403 -1.4022  2.0256
 4403TP3      O25027   3.694   3.416   8.268  0.0852  0.2404 -0.9763
 4403TP3     H125028   3.750   3.381   8.338 -0.3144  2.6733  0.7048
 4403TP3     H225029   3.725   3.373   8.189  1.9276 -1.1549  0.3977
 4404TP3      O25030   0.702   4.216   8.811  0.3861 -0.4136  0.4590
 4404TP3     H125031   0.785   4.203   8.857  0.8556  1.0121  0.0438
 4404TP3     H225032   0.638   4.168   8.864  1.5701 -2.1589  0.3915
 4405TP3      O25033   4.734   0.480   2.498 -0.0548  0.3422 -0.0708
 4405TP3     H125034   4.683   0.428   2.560 -1.3270 -0.7637 -1.9548
 4405TP3     H225035   4.671   0.541   2.459  1.0211  2.0549  0.6982
 4406TP3      O25036   4.747   2.440   7.511 -0.8278  0.3710 -0.0208
 4406TP3     H125037   4.655   2.435   7.537 -0.1909 -0.0044  2.4820
 4406TP3     H225038   4.769   2.533   7.522 -0.5419  0.2014  0.9696
 4407TP3      O25039   3.001   4.450   6.781  0.6311  0.2429 -0.5614
 4407TP3     H125040   2.943   4.516   6.744  2.0704  1.2315 -1.1550
 4407TP3     H225041   2.943   4.390   6.829 -0.8829  0.9625 -1.4439
 4408TP3      O25042   0.943   2.188   1.473 -0.4074  0.2743  0.1205
 4408TP3     H125043   0.969   2.112   1.422 -0.5496 -0.5909  1.2944
 4408TP3     H225044   0.872   2.157   1.530 -0.4054  1.2505  0.6980
 4409TP3      O25045   3.828   1.736   1.043  0.4617 -0.0683  0.2788
 4409TP3     H125046   3.823   1.829   1.024 -0.4901 -0.3491 -0.9703
 4409TP3     H225047   3.913   1.709   1.007  1.2651  0.5107  1.6755
 4410TP3      O25048   3.252   4.341   9.530 -0.4488  0.4933  0.5345
 4410TP3     H125049   3.264   4.273   9.465  2.1822  1.5688 -0.2105
 4410TP3     H225050   3.166   4.379   9.509 -0.2859 -0.1061 -1.4012
 4411TP3      O25051   4.173   1.126   8.970  0.4310  0.5878  0.5591
 4411TP3     H125052   4.261   1.109   8.935  0.5541  0.9982  0.6610
 4411TP3     H225053   4.150   1.046   9.016  0.1420 -0.0847 -0.7100
 4412TP3      O25054   2.039   5.130   9.505 -0.2377  0.1871  0.5664
 4412TP3     H125055   2.074   5.042   9.512 -1.1834 -0.4261 -1.6308
 4412TP3     H225056   2.043   5.151   9.412 -1.0022  2.0584  0.9026
 4413TP3      O25057   1.619   0.408   8.774  0.3681  0.6945 -0.2234
 4413TP3     H125058   1.675   0.335   8.748  0.3874  0.8273 -0.5711
 4413TP3     H225059   1.546   0.367   8.820  0.2492  0.4275 -0.6366
 4414TP3      O25060   5.258   1.961   7.583 -0.0380  0.1009 -0.0513
 4414TP3     H125061   5.248   1.976   7.677 -1.6647  0.5307 -0.2747
 4414TP3     H225062   5.271   2.048   7.545 -0.4508  0.0339 -0.3486
 4415TP3      O25063   0.096   0.877   1.928 -0.3058 -0.4066 -0.0365
 4415TP3     H125064   0.111   0.900   2.020  1.3822 -0.0285 -0.3635
 4415TP3     H225065   0.013   0.830   1.928 -1.1093  0.9041  1.4618
 4416TP3      O25066   4.699   0.760   1.454 -0.1047  0.4460 -0.0679
 4416TP3     H125067   4.644   0.750   1.376  0.7850 -0.6057 -0.5851
 4416TP3     H225068   4.659   0.833   1.502 -1.5612  0.1178 -0.7313
 4417TP3      O25069   3.867   2.451   9.746  0.6554  0.0082  0.1304
 4417TP3     H125070   3.797   2.509   9.776  1.3277 -0.7029  3.4433
 4417TP3     H225071   3.824   2.393   9.683 -0.9364  1.5832 -0.3317
 4418TP3      O25072   0.338   2.808   0.716  0.4046  0.4017  0.1169
 4418TP3     H125073   0.294   2.885   0.680 -1.1119 -1.1397 -1.5268
 4418TP3     H225074   0.338   2.745   0.644 -1.1590 -2.2377  2.2533
 4419TP3      O25075   3.763   3.102   3.121 -0.1174  0.4647  0.4096
 4419TP3     H125076   3.849   3.105   3.078 -0.5669  2.4382 -0.4594
 4419TP3     H225077   3.700   3.110   3.050 -0.9838  0.3772  1.1469
 4420TP3      O25078   2.786   4.084   7.684 -0.0436  0.2512 -0.1445
 4420TP3     H125079   2.816   4.172   7.710 -1.4143  0.6381  0.2217
 4420TP3     H225080   2.712   4.066   7.743 -0.9463 -0.3714 -1.4208
 4421TP3      O25081   2.894   4.371   1.655 -0.0455 -0.0001  0.0193
 4421TP3     H125082   2.906   4.343   1.746 -1.2287  0.2640  0.2746
 4421TP3     H225083   2.818   4.429   1.658 -0.2830 -0.2224 -1.1900
 4422TP3      O25084   1.529   0.777   2.348 -0.3995  0.6121  0.0116
 4422TP3     H125085   1.497   0.864   2.325 -0.8851  0.1494 -1.1368
 4422TP3     H225086   1.590   0.754   2.278  0.7723  0.5596  1.0087
 4423TP3      O25087   4.352   3.547   8.881  0.2392  0.4275  0.0021
 4423TP3     H125088   4.338   3.540   8.786 -0.7790  0.1933  0.1529
 4423TP3     H225089   4.332   3.460   8.914  1.0250  0.3909  0.3875
 4424TP3      O25090   0.401   1.993   7.316  0.2569 -0.1626  0.3767
 4424TP3     H125091   0.321   2.003   7.265  1.0016  1.9846 -0.5151
 4424TP3     H225092   0.471   2.020   7.257  1.3849  0.2671  1.8264
 4425TP3      O25093   0.485   2.245   9.936  0.2416 -0.1143 -0.1888
 4425TP3     H125094   0.413   2.228   9.997  0.5164 -0.2762  0.0950
 4425TP3     H225095   0.496   2.340   9.936  1.2658 -0.2035  1.2220
 4426TP3      O25096   2.766   1.373   2.908 -0.1883 -0.3064  0.2927
 4426TP3     H125097   2.837   1.317   2.878  1.1285  1.2854  0.3061
 4426TP3     H225098   2.796   1.462   2.891 -1.1311  0.5241  2.5130
 4427TP3      O25099   2.714   5.217   8.253  0.1295 -0.6523  0.3277
 4427TP3     H125100   2.683   5.179   8.335  0.2736 -0.6779  0.3699
 4427TP3     H225101   2.634   5.230   8.202  0.0302 -0.5601  0.5028
 4428TP3      O25102   4.165   2.809   9.985 -0.0683 -0.2418 -0.5341
 4428TP3     H125103   4.080   2.836  10.021 -0.9574 -1.7906 -1.3568
 4428TP3     H225104   4.186   2.877   9.921 -0.7539  0.1163 -0.3925
 4429TP3      O25105   4.236   4.111   0.489  0.5020  0.3262 -0.1441
 4429TP3     H125106   4.169   4.047   0.512 -0.8146  1.6642 -0.0622
 4429TP3     H225107   4.299   4.106   0.561 -0.2431  0.0001  0.5103
 4430TP3      O25108   2.614   0.067   1.240 -0.6959 -0.1818  0.6356
 4430TP3     H125109   2.575   0.022   1.165 -0.7805 -0.9899  1.1543
 4430TP3     H225110   2.541   0.082   1.300 -1.0259  2.2954 -0.2828
 4431TP3      O25111   0.790   0.220   2.919  0.2242  0.7294 -0.2608
 4431TP3     H125112   0.833   0.294   2.877  0.6483  1.0749  0.7676
 4431TP3     H225113   0.819   0.144   2.869  1.7113  1.0016  0.1496
 4432TP3      O25114   0.360   2.395   3.214 -0.0767 -0.0602  0.0259
 4432TP3     H125115   0.376   2.481   3.251  0.9756 -0.3897  0.3756
 4432TP3     H225116   0.408   2.396   3.131 -1.1722  0.1448 -0.6284
 4433TP3      O25117   3.204   4.495   0.765 -0.4169 -0.0524  0.4304
 4433TP3     H125118   3.187   4.446   0.685 -1.2458  0.3441  0.3496
 4433TP3     H225119   3.295   4.524   0.757 -0.5958  0.2747 -0.5216
 4434TP3      O25120   4.966   0.098   1.363 -0.6496  0.1696 -0.2872
 4434TP3     H125121   4.912   0.177   1.365 -0.0722  0.5841 -0.6249
 4434TP3     H225122   4.993   0.085   1.454 -1.7720 -0.3644 -0.0247
 4435TP3      O25123   4.772   3.468   7.647 -0.3815 -0.3887 -0.2350
 4435TP3     H125124   4.800   3.413   7.573 -0.8539  1.5221 -1.9160
 4435TP3     H225125   4.734   3.406   7.709  2.6114 -2.4444 -0.2347
 4436TP3      O25126   4.355   1.518   9.464 -0.0570  0.0918 -0.5084
 4436TP3     H125127   4.391   1.544   9.379 -0.8396 -1.0166 -1.1989
 4436TP3     H225128   4.262   1.537   9.458 -0.2131 -0.5113 -0.1126
 4437TP3      O25129   4.487   1.740   2.480 -0.2985  0.0416  0.0643
 4437TP3     H125130   4.532   1.668   2.435  0.6206  1.3123 -1.1512
 4437TP3     H225131   4.401   1.746   2.437  0.0384  0.3349 -0.5918
 4438TP3      O25132   1.080   5.243   2.288  0.2275 -0.3288 -0.2460
 4438TP3     H125133   1.101   5.229   2.380  0.1031  0.9937  0.0112
 4438TP3     H225134   1.080   5.339   2.278 -0.7765 -0.4206 -1.3793
 4439TP3      O25135   1.021   4.486   1.795  0.0334  0.3580  0.2890
 4439TP3     H125136   0.996   4.448   1.711 -1.0417  1.1283  0.2364
 4439TP3     H225137   1.071   4.564   1.772 -1.1846  1.1775  0.3186
 4440TP3      O25138   4.502   1.310   2.007 -0.4664 -0.6289 -0.2074
 4440TP3     H125139   4.562   1.236   2.009 -0.9815 -1.0406  0.1222
 4440TP3     H225140   4.494   1.338   2.098 -0.5539 -0.3920 -0.2849
 4441TP3      O25141   2.169   0.783   8.288  0.1480 -0.3794 -0.2579
 4441TP3     H125142   2.124   0.698   8.291  0.0229 -0.3017  0.1677
 4441TP3     H225143   2.102   0.845   8.262  0.5731 -0.6173 -2.0354
 4442TP3      O25144   3.625   2.897   1.264  0.3405 -0.0284 -0.1205
 4442TP3     H125145   3.586   2.837   1.327 -1.1624  0.1313 -0.8695
 4442TP3     H225146   3.637   2.979   1.312 -0.9169  0.1312 -0.0603
 4443TP3      O25147   2.855   2.636   8.536 -0.2732 -0.2225 -0.3134
 4443TP3     H125148   2.765   2.660   8.516  0.5685  1.3368 -2.5896
 4443TP3     H225149   2.850   2.593   8.622 -2.9559  1.1458  0.3024
 4444TP3      O25150   2.967   2.230   9.819 -0.2631 -0.6606  0.2967
 4444TP3     H125151   3.005   2.147   9.851 -1.6163 -1.6212 -0.4766
 4444TP3     H225152   2.881   2.205   9.786  0.1151  0.6981 -1.8850
 4445TP3      O25153   1.192   2.765   0.579 -0.0409  0.2598  0.0843
 4445TP3     H125154   1.106   2.793   0.548  0.2069  0.5472 -0.3550
 4445TP3     H225155   1.211   2.686   0.528 -0.8213 -0.8631  1.4522
 4446TP3      O25156   4.711   0.148   9.422 -0.5715 -0.5111  0.0700
 4446TP3     H125157   4.689   0.217   9.485  0.5798  0.4905 -0.5940
 4446TP3     H225158   4.658   0.073   9.450 -1.7952  0.6038  0.8565
 4447TP3      O25159   0.636   0.949   0.636  0.1585 -0.0276  0.1797
 4447TP3     H125160   0.710   1.008   0.651 -0.1336  0.4042 -0.0536
 4447TP3     H225161   0.617   0.958   0.543  0.1721 -0.5693  0.1225
 4448TP3      O25162   1.069   3.053   9.715  0.4115  0.7800 -0.3528
 4448TP3     H125163   1.083   3.139   9.754  0.7496  0.1576  0.9574
 4448TP3     H225164   1.088   2.991   9.786 -0.4122 -0.3563 -1.0869
 4449TP3      O25165   4.627   3.422   9.835  0.4087 -0.1998  0.8145
 4449TP3     H125166   4.708   3.385   9.871  1.6005  0.2580 -1.1949
 4449TP3     H225167   4.644   3.427   9.740 -2.1519 -0.4842  0.2718
 4450TP3      O25168   2.016   2.307   8.885  0.0088  0.0879  0.3011
 4450TP3     H125169   2.056   2.291   8.971 -1.8507 -1.3933  0.9732
 4450TP3     H225170   2.087   2.293   8.823  0.9618 -0.7161  1.5103
 4451TP3      O25171   4.124   1.079   9.264 -0.0061 -0.0043 -0.2434
 4451TP3     H125172   4.148   1.000   9.215  0.4731 -0.4241  0.6530
 4451TP3     H225173   4.192   1.088   9.331 -1.2112 -0.0257  1.0235
 4452TP3      O25174   4.035   1.692   9.704  0.0288  0.4415  0.0718
 4452TP3     H125175   3.946   1.694   9.739 -0.1299  0.2940 -0.3211
 4452TP3     H225176   4.054   1.600   9.690  0.8295  0.3357  1.6075
 4453TP3      O25177   3.594   0.920   0.759  0.1612 -0.2668 -0.3329
 4453TP3     H125178   3.649   0.998   0.765 -0.3198  0.1374 -1.0507
 4453TP3     H225179   3.640   0.862   0.699 -0.9432  0.7396 -2.2359
 4454TP3      O25180   0.687   1.582   9.928  0.0197  0.4322 -0.4005
 4454TP3     H125181   0.761   1.563   9.871  1.5193 -1.2735  1.9333
 4454TP3     H225182   0.723   1.636   9.998 -0.9457 -0.2104  0.6418
 4455TP3      O25183   4.064   1.336   9.203  0.6975 -0.0233 -0.2719
 4455TP3     H125184   4.083   1.243   9.209 -0.6519 -0.2649  0.6061
 4455TP3     H225185   4.108   1.364   9.123 -0.1874 -1.7451 -1.4255
 4456TP3      O25186   2.896   3.489   9.658 -0.0378  0.2331 -0.4348
 4456TP3     H125187   2.925   3.524   9.742  0.1831  0.5808 -0.6505
 4456TP3     H225188   2.933   3.549   9.593  1.4284 -1.1148 -0.9071
 4457TP3      O25189   4.269   2.687   1.045 -0.5390 -0.3218  0.0764
 4457TP3     H125190   4.246   2.627   1.116 -1.1255  0.6035  0.6869
 4457TP3     H225191   4.263   2.774   1.084  0.7127  0.1330 -0.6771
 4458TP3      O25192   3.280   3.558   1.169 -0.4391 -0.0844  0.2208
 4458TP3     H125193   3.368   3.521   1.162 -0.1430  0.2399  1.8722
 4458TP3     H225194   3.234   3.497   1.227 -1.8334 -1.1198 -1.8455
 4459TP3      O25195   2.241   1.431   0.433  0.5251  0.2941 -0.2354
 4459TP3     H125196   2.228   1.402   0.524 -0.4654 -0.5411 -0.6179
 4459TP3     H225197   2.164   1.397   0.387  1.0760  0.6205 -1.4123
 4460TP3      O25198   4.794   3.656   2.118  0.0001 -0.6844 -0.5276
 4460TP3     H125199   4.802   3.628   2.027  0.6047  0.2381 -0.7624
 4460TP3     H225200   4.802   3.751   2.115 -3.1736 -0.2765  0.1021
 4461TP3      O25201   2.483   5.166   8.105  0.1440 -0.2097 -0.2327
 4461TP3     H125202   2.524   5.169   8.018 -0.8679  0.0643 -0.7111
 4461TP3     H225203   2.439   5.081   8.108 -0.3213  0.0290 -0.2273
 4462TP3      O25204   1.299   1.213   8.940  0.0517  0.3187 -0.3118
 4462TP3     H125205   1.234   1.150   8.908 -1.8665  1.2055  1.5806
 4462TP3     H225206   1.268   1.298   8.909  1.5866  0.5646 -1.2682
 4463TP3      O25207   2.306   4.392   7.628  0.2826 -0.4177 -0.1829
 4463TP3     H125208   2.392   4.407   7.667 -0.9570  0.2175  2.5511
 4463TP3     H225209   2.245   4.403   7.700 -2.1684 -0.3340 -2.1341
 4464TP3      O25210   2.498   1.974   0.340 -0.2272 -0.3711 -0.2459
 4464TP3     H125211   2.568   2.032   0.311  0.1066 -1.8146 -2.5782
 4464TP3     H225212   2.417   2.022   0.321  0.0596 -0.3142 -1.3579
 4465TP3      O25213   4.339   1.562   3.355 -0.1749  0.3703 -0.4172
 4465TP3     H125214   4.312   1.548   3.446 -1.6110  0.4827 -0.8096
 4465TP3     H225215   4.303   1.647   3.332  0.2603  0.3842 -1.0833
 4466TP3      O25216   0.318   0.846   1.416  0.0158  0.0972  0.4119
 4466TP3     H125217   0.254   0.893   1.363 -1.5590 -0.8189  1.4193
 4466TP3     H225218   0.338   0.906   1.488 -0.6545 -0.0662  0.7450
 4467TP3      O25219   0.829   0.338   1.971  0.2293 -0.1575 -0.4561
 4467TP3     H125220   0.735   0.331   1.952  0.3036  2.0555 -1.9934
 4467TP3     H225221   0.867   0.262   1.928 -0.7978 -0.8519 -0.1870
 4468TP3      O25222   0.183   2.254   1.502 -0.3136 -0.4644  0.3780
 4468TP3     H125223   0.134   2.172   1.505  0.0129 -0.6728  0.0968
 4468TP3     H225224   0.216   2.259   1.412 -0.7380  0.2146  0.2551
 4469TP3      O25225   3.705   4.476   9.182 -0.2246  0.1255  0.1305
 4469TP3     H125226   3.757   4.508   9.255 -0.4243 -0.3132  0.4661
 4469TP3     H225227   3.769   4.453   9.115  0.2189 -2.5416  1.3408
 4470TP3      O25228   2.167   2.578   8.995  0.2833  0.3389 -0.0562
 4470TP3     H125229   2.125   2.610   9.075 -1.0682  0.4917 -0.8054
 4470TP3     H225230   2.167   2.483   9.004  1.8819  0.3945  0.9616
 4471TP3      O25231   2.392   5.059   1.066 -0.2309 -0.2882 -0.4141
 4471TP3     H125232   2.382   4.973   1.027 -0.0650 -1.1057  1.2297
 4471TP3     H225233   2.304   5.082   1.096 -0.2248 -0.0051 -0.6126
 4472TP3      O25234   4.416   2.971   1.656  0.8089 -0.1330 -0.3357
 4472TP3     H125235   4.362   2.906   1.701 -0.4865  0.8215 -0.4585
 4472TP3     H225236   4.500   2.967   1.700  0.1006 -0.4447  1.0246
 4473TP3      O25237   2.725   4.033   2.641 -0.3860  0.5858  0.4542
 4473TP3     H125238   2.802   4.046   2.698 -1.0824  1.9165  1.1472
 4473TP3     H225239   2.650   4.044   2.700 -1.1225  1.1658 -0.5712
 4474TP3      O25240   0.454   1.473  10.056  0.0602 -0.0298  0.0550
 4474TP3     H125241   0.360   1.486  10.045 -0.0853 -0.0581  1.2212
 4474TP3     H225242   0.494   1.531   9.991 -0.7361  0.6243  0.1412
 4475TP3      O25243   2.573   2.212  10.029 -0.2786  0.1195  0.0701
 4475TP3     H125244   2.579   2.117  10.036  2.5305  0.2508  0.5054
 4475TP3     H225245   2.582   2.244  10.119 -0.9664  0.8249 -0.0947
 4476TP3      O25246   4.379   1.164   0.265 -0.0636  0.0446 -0.3165
 4476TP3     H125247   4.310   1.215   0.224 -1.5557 -1.7134 -0.0937
 4476TP3     H225248   4.451   1.227   0.276 -0.7023  1.3377 -2.7337
 4477TP3      O25249   2.804   0.982   8.333  0.1910  0.0647 -0.1701
 4477TP3     H125250   2.793   0.967   8.427  0.9764  2.7592  0.4226
 4477TP3     H225251   2.716   0.971   8.297 -0.2484 -0.3118  0.9756
 4478TP3      O25252   5.126   2.819   2.557 -0.0797  0.4603 -0.2829
 4478TP3     H125253   5.174   2.779   2.485  1.2403 -0.3110  0.9673
 4478TP3     H225254   5.044   2.770   2.561  0.7906 -1.0174  0.1330
 4479TP3      O25255   1.171   1.041   7.128 -0.3679 -0.7468 -0.4045
 4479TP3     H125256   1.141   0.954   7.100 -0.3324 -0.5820 -0.9511
 4479TP3     H225257   1.154   1.042   7.222 -1.2784 -0.9831 -0.5546
 4480TP3      O25258   4.435   4.602   7.129 -0.1998  0.3822 -0.4337
 4480TP3     H125259   4.447   4.545   7.053  1.0931  0.6207 -0.4262
 4480TP3     H225260   4.481   4.683   7.106 -0.5207  0.7789  0.2690
 4481TP3      O25261   4.185   2.991   9.782  0.4861  0.1072 -0.0038
 4481TP3     H125262   4.234   3.042   9.717  0.7530  2.1280  1.6416
 4481TP3     H225263   4.095   2.991   9.751  0.6107  1.0348 -0.3891
 4482TP3      O25264   3.182   2.858   9.503 -0.2922  0.0015 -0.4350
 4482TP3     H125265   3.192   2.831   9.412 -2.6233  2.9334 -1.7242
 4482TP3     H225266   3.241   2.933   9.512  0.6320 -0.8240  0.8359
 4483TP3      O25267   2.955   1.869   9.625  0.0515 -0.0559  0.4474
 4483TP3     H125268   2.953   1.925   9.547 -0.5625 -1.8722 -0.9060
 4483TP3     H225269   2.907   1.920   9.692  0.0431  1.2729 -0.5237
 4484TP3      O25270   4.981   0.935   0.101  0.1040  0.6525 -0.0514
 4484TP3     H125271   4.907   0.882   0.071  0.3479 -1.5827  2.7596
 4484TP3     H225272   5.057   0.897   0.057  0.1358 -0.7164  1.0985
 4485TP3      O25273   4.023   1.918   7.862 -0.4664 -0.0340  0.3426
 4485TP3     H125274   4.028   1.887   7.952  0.4508  1.7256  0.9599
 4485TP3     H225275   4.115   1.927   7.835 -0.6895 -2.2665 -1.4538
 4486TP3      O25276   3.307   2.283   8.236  0.2773 -0.7354  0.1312
 4486TP3     H125277   3.370   2.217   8.264 -2.0096 -2.5284  1.3076
 4486TP3     H225278   3.234   2.275   8.297 -0.5608  2.2109 -0.3291
 4487TP3      O25279   0.241   2.726   3.165  0.4399  0.2070  0.1569
 4487TP3     H125280   0.300   2.718   3.090  0.9199  0.2368  0.5303
 4487TP3     H225281   0.295   2.705   3.241 -0.4645 -1.5268  0.3606
 4488TP3      O25282   4.981   1.271   1.417 -0.5818  0.1565 -0.1372
 4488TP3     H125283   4.945   1.206   1.356 -0.9596  1.4779 -1.3786
 4488TP3     H225284   5.012   1.219   1.491 -1.7051 -1.3536 -0.6633
 4489TP3      O25285   3.803   0.437   7.576  0.0425 -0.1293  0.2355
 4489TP3     H125286   3.835   0.492   7.505 -1.2360  0.6357  0.2199
 4489TP3     H225287   3.708   0.451   7.577 -0.0266 -0.4798  1.7925
 4490TP3      O25288   5.158   1.418   6.681  0.0340  0.1182 -0.1023
 4490TP3     H125289   5.141   1.462   6.764  1.8721  1.4062 -0.3573
 4490TP3     H225290   5.073   1.381   6.656 -0.7324  0.3986  1.9305
 4491TP3      O25291   3.053   0.429   1.771  0.2159 -0.8479 -0.2923
 4491TP3     H125292   2.986   0.497   1.779 -1.7123 -2.5704 -0.9433
 4491TP3     H225293   3.121   0.468   1.716 -1.3834  0.1916 -1.6120
 4492TP3      O25294   1.366   3.097   8.988  0.2126  0.1101 -0.6325
 4492TP3     H125295   1.458   3.074   8.979  0.4044 -0.0529  1.3768
 4492TP3     H225296   1.357   3.179   8.939  1.3382 -0.0332 -1.0984
 4493TP3      O25297   0.968   0.847   7.710  0.3983 -0.1193  0.1693
 4493TP3     H125298   0.933   0.825   7.796  0.3756 -3.0462 -0.4683
 4493TP3     H225299   1.058   0.874   7.726  0.6747 -1.5009  1.0764
 4494TP3      O25300   2.164   2.232   2.749  0.0533 -0.1052 -0.0612
 4494TP3     H125301   2.223   2.245   2.824  0.2291  2.9368 -0.6227
 4494TP3     H225302   2.207   2.277   2.677 -2.2500  0.9462 -0.8591
 4495TP3      O25303   4.331   1.558   1.729 -0.5139  0.3523 -0.4793
 4495TP3     H125304   4.240   1.581   1.714 -0.9043 -0.4308  0.5703
 4495TP3     H225305   4.359   1.516   1.648 -0.3608  2.6288 -1.6932
 4496TP3      O25306   0.279   4.808   1.478 -0.3322  0.3964  0.1050
 4496TP3     H125307   0.229   4.768   1.406  0.6302 -0.3413 -0.1643
 4496TP3     H225308   0.264   4.902   1.467 -2.7164  0.1612  0.8144
 4497TP3      O25309   0.723   0.750   1.572 -0.2776 -0.8036 -0.1577
 4497TP3     H125310   0.654   0.757   1.637 -0.0365 -0.6103  0.0830
 4497TP3     H225311   0.702   0.672   1.522 -0.8466 -0.5605 -0.2984
 4498TP3      O25312   1.262   4.455   8.008  0.3292  0.2576 -0.0225
 4498TP3     H125313   1.277   4.433   8.100  1.1881  1.6176  0.1936
 4498TP3     H225314   1.171   4.484   8.004  0.8284  2.1135  0.8463
 4499TP3      O25315   1.510   4.761   3.128 -0.5763  0.2749 -0.2694
 4499TP3     H125316   1.473   4.819   3.061  0.8635 -1.1154 -2.3987
 4499TP3     H225317   1.483   4.673   3.101 -0.5459 -0.2837  1.4066
 4500TP3      O25318   4.042   2.982   1.364 -0.1342  0.3417 -0.2568
 4500TP3     H125319   4.032   3.065   1.410  0.8437  1.8826 -2.6584
 4500TP3     H225320   3.952   2.956   1.341 -0.3233  2.2233 -1.8842
 4501TP3      O25321   2.325   5.004   8.404 -0.2891 -0.1969  0.4309
 4501TP3     H125322   2.400   5.005   8.463 -0.9688  0.0742  1.3109
 4501TP3     H225323   2.294   5.094   8.401 -1.9026 -0.6449  1.8413
 4502TP3      O25324   4.581   0.915   6.882 -0.5970  0.3133 -0.0891
 4502TP3     H125325   4.658   0.866   6.911 -0.7238 -0.3376 -0.8073
 4502TP3     H225326   4.531   0.852   6.829 -1.7119  0.6728  0.5056
 4503TP3      O25327   2.076   4.983   6.810  0.3317 -0.1976 -0.4999
 4503TP3     H125328   2.009   5.034   6.857  0.9822  0.7630 -0.5875
 4503TP3     H225329   2.066   4.894   6.843 -0.9079 -0.0535 -0.4173
 4504TP3      O25330   1.395   1.980   1.731 -0.6091 -0.3214  0.2473
 4504TP3     H125331   1.473   1.970   1.677 -0.6636  2.2933 -0.4401
 4504TP3     H225332   1.420   2.045   1.797 -1.6869 -0.7383  1.0903
 4505TP3      O25333   3.707   3.940   3.478  0.0841 -0.1423 -0.0415
 4505TP3     H125334   3.704   3.926   3.573 -0.2893  0.4399  0.0370
 4505TP3     H225335   3.800   3.954   3.458  0.0230  1.0784  0.4450
 4506TP3      O25336   2.104   4.631   8.980  0.1357 -0.2921 -0.0844
 4506TP3     H125337   2.105   4.693   8.906  1.3934 -0.3769 -0.1540
 4506TP3     H225338   2.085   4.686   9.056  0.6757  0.0982 -0.2244
 4507TP3      O25339   0.516   1.616   0.893  0.0338 -0.3032 -0.7713
 4507TP3     H125340   0.558   1.700   0.912  0.3907 -0.7168  0.3449
 4507TP3     H225341   0.423   1.631   0.913  0.2792 -0.5017  0.6244
 4508TP3      O25342   3.136   0.275   8.514  0.0905 -0.6083  0.8352
 4508TP3     H125343   3.196   0.271   8.439 -0.5111  0.3695  0.2719
 4508TP3     H225344   3.178   0.222   8.581  1.1510 -0.6717  0.1507
 4509TP3      O25345   4.105   1.534   3.776 -0.2918  0.6599  0.2870
 4509TP3     H125346   4.125   1.473   3.848  0.8851  1.7037  0.8699
 4509TP3     H225347   4.143   1.492   3.699 -0.6328  0.0369  0.4450
 4510TP3      O25348   3.514   1.007   2.627 -0.6162 -0.4667 -0.1026
 4510TP3     H125349   3.471   1.040   2.706 -1.9710 -0.1862 -0.9252
 4510TP3     H225350   3.446   0.959   2.580  0.2685 -0.9772 -0.9055
 4511TP3      O25351   3.649   0.629   9.901 -0.4791 -0.1407 -0.3986
 4511TP3     H125352   3.602   0.666   9.826 -0.1668 -1.4379 -1.2736
 4511TP3     H225353   3.637   0.534   9.892 -1.0771 -0.3024  1.6303
 4512TP3      O25354   4.506   0.968   8.474  0.1654 -0.1245 -0.5065
 4512TP3     H125355   4.585   0.947   8.424  0.0517 -0.0801 -0.7072
 4512TP3     H225356   4.435   0.929   8.424 -0.0353  0.6104 -0.8176
 4513TP3      O25357   4.445   3.911   9.618 -0.1325 -0.6044  0.2813
 4513TP3     H125358   4.484   3.884   9.701 -1.1592  1.5948  1.5815
 4513TP3     H225359   4.351   3.897   9.630 -0.3463  0.2273 -0.3004
 4514TP3      O25360   3.807   2.839   3.540 -0.2617 -0.1872  0.0476
 4514TP3     H125361   3.825   2.904   3.607  0.6300 -0.2261 -0.1396
 4514TP3     H225362   3.845   2.758   3.574  1.9149  0.1823 -1.2844
 4515TP3      O25363   1.776   0.243   1.511 -0.7664  0.0354  0.1956
 4515TP3     H125364   1.717   0.231   1.585  1.1920  0.9580  1.9964
 4515TP3     H225365   1.795   0.154   1.480 -1.1868 -0.3946  1.1575
 4516TP3      O25366   1.325   1.767   1.459 -0.0711 -0.7909 -0.0970
 4516TP3     H125367   1.245   1.721   1.434 -0.0376 -1.3180  0.7358
 4516TP3     H225368   1.389   1.698   1.475  0.2033 -0.4214  0.4162
 4517TP3      O25369   0.506   3.349   1.093  0.3805  0.3777  0.0403
 4517TP3     H125370   0.576   3.360   1.029 -0.4462  1.8347 -0.6655
 4517TP3     H225371   0.519   3.421   1.155 -1.5500  1.8852 -1.1711
 4518TP3      O25372   0.897   4.615   7.546 -0.3964 -0.0174  0.0759
 4518TP3     H125373   0.896   4.550   7.475  0.7692 -0.6482  0.6019
 4518TP3     H225374   0.927   4.565   7.622 -4.2253 -0.0577  1.7731
 4519TP3      O25375   5.169   2.989   7.272  0.4162  0.0881  0.4948
 4519TP3     H125376   5.206   3.073   7.245 -1.2314  0.3376 -1.2168
 4519TP3     H225377   5.174   2.934   7.195 -1.1752 -0.3916  0.6847
 4520TP3      O25378   1.664   2.682   0.536 -0.3949  0.4926 -0.1337
 4520TP3     H125379   1.710   2.650   0.459  1.4502 -1.3606  1.6202
 4520TP3     H225380   1.583   2.631   0.538 -0.7989  1.0637 -1.1895
 4521TP3      O25381   1.008   1.386   9.481  0.4913  0.0494  0.6884
 4521TP3     H125382   1.098   1.366   9.453 -0.2507 -1.0990 -1.0814
 4521TP3     H225383   0.992   1.326   9.554  0.4679 -1.3330 -0.4056
 4522TP3      O25384   0.597   1.908   9.096 -0.0534  0.1917  0.4496
 4522TP3     H125385   0.589   1.865   9.181  1.5029 -3.8246 -1.1743
 4522TP3     H225386   0.532   1.866   9.041 -0.8989  2.5680 -0.5115
 4523TP3      O25387   2.220   0.020   7.209  0.1909 -0.2159 -0.1025
 4523TP3     H125388   2.138  -0.012   7.248  1.6843 -2.2053  1.6164
 4523TP3     H225389   2.224  -0.021   7.123  0.0058 -1.2311  0.3570
 4524TP3      O25390   1.188   0.632   9.346 -0.0462  0.0965  0.1499
 4524TP3     H125391   1.113   0.591   9.388 -0.4927 -0.7573 -1.3886
 4524TP3     H225392   1.237   0.672   9.417 -1.0011 -0.8873  1.4059
 4525TP3      O25393   1.197   5.073   7.786 -0.3460 -0.6052 -0.4728
 4525TP3     H125394   1.137   5.000   7.772 -0.7386 -0.7408  1.5996
 4525TP3     H225395   1.164   5.142   7.729 -0.3070 -1.8385 -2.0424
 4526TP3      O25396   0.420   3.702   8.185 -0.1981  0.2645  0.2571
 4526TP3     H125397   0.504   3.657   8.182  0.7235  1.8645 -3.1109
 4526TP3     H225398   0.444   3.795   8.193 -1.5444  0.8087 -1.4538
 4527TP3      O25399   1.651   3.099   8.001  0.1931 -0.9710 -0.3555
 4527TP3     H125400   1.569   3.063   8.033  1.0351 -1.4004  1.4770
 4527TP3     H225401   1.678   3.163   8.068 -0.4311  1.9987 -2.7034
 4528TP3      O25402   2.314   3.422   8.620  0.1239  0.9512  0.1858
 4528TP3     H125403   2.389   3.403   8.677 -0.0098 -0.4437 -0.0670
 4528TP3     H225404   2.336   3.382   8.536 -1.1188  0.0363  0.2636
 4529TP3      O25405   1.388   3.846   1.517 -0.2830  0.6410  0.2896
 4529TP3     H125406   1.428   3.897   1.587  0.3617  0.4847  0.0450
 4529TP3     H225407   1.462   3.819   1.463 -0.7153  0.2362 -0.1014
 4530TP3      O25408   2.490   2.636   2.819  0.4273 -0.5022 -0.2319
 4530TP3     H125409   2.509   2.544   2.804 -0.4882 -0.9305  1.1073
 4530TP3     H225410   2.438   2.662   2.742 -0.4655 -1.4693  0.0310
 4531TP3      O25411   5.212   3.825   1.139  0.2638  0.0992 -0.3737
 4531TP3     H125412   5.276   3.764   1.176 -0.5358 -0.2654  0.4555
 4531TP3     H225413   5.186   3.785   1.056  2.4539  1.1745 -1.6856
 4532TP3      O25414   2.573   2.369   8.789 -0.3893 -0.3829  0.3349
 4532TP3     H125415   2.513   2.428   8.834  0.1688 -0.3527  1.0583
 4532TP3     H225416   2.516   2.308   8.741 -1.0116  2.0502 -2.2890
 4533TP3      O25417   3.501   3.424   1.164 -0.1891  0.2521 -0.0005
 4533TP3     H125418   3.571   3.431   1.229 -0.6372  0.8158  0.4303
 4533TP3     H225419   3.503   3.332   1.138 -0.8008 -0.3123  1.7460
 4534TP3      O25420   1.730   2.079   1.669  0.0290 -0.5716  0.2019
 4534TP3     H125421   1.805   2.107   1.616 -1.0280  0.3121 -0.8807
 4534TP3     H225422   1.707   1.993   1.634 -0.0746 -0.4060 -0.1407
 4535TP3      O25423   1.458   3.418   9.295  0.4850  1.4177 -0.6026
 4535TP3     H125424   1.420   3.390   9.378  3.4945 -0.6273  0.2761
 4535TP3     H225425   1.393   3.476   9.257 -2.2257  0.2534  1.8756
 4536TP3      O25426   3.913   0.270   8.150  0.3057 -0.0556  0.0037
 4536TP3     H125427   3.892   0.290   8.241 -0.8968 -0.3591 -0.1900
 4536TP3     H225428   4.000   0.308   8.137  0.5643 -0.1403  1.3131
 4537TP3      O25429   1.405   4.478   0.658 -0.0402  0.6014 -0.3598
 4537TP3     H125430   1.392   4.426   0.738  1.0553  1.0627  0.1463
 4537TP3     H225431   1.432   4.565   0.690  1.2020  0.5673 -1.2145
 4538TP3      O25432   4.415   3.549   2.510  0.7919  0.0091  0.0914
 4538TP3     H125433   4.406   3.540   2.605 -0.1126  0.2911  0.0433
 4538TP3     H225434   4.353   3.618   2.486  1.5623  0.4818 -0.6103
 4539TP3      O25435   1.134   5.138   9.464  0.1470  0.0030 -0.2499
 4539TP3     H125436   1.042   5.134   9.440 -0.0511  1.3176  0.2260
 4539TP3     H225437   1.157   5.048   9.488 -0.7621 -0.5042 -1.2282
 4540TP3      O25438   2.645   2.603   9.554 -0.2377  0.4993 -0.5487
 4540TP3     H125439   2.616   2.541   9.621  0.9391 -0.6498 -1.0457
 4540TP3     H225440   2.720   2.648   9.593 -0.2892  0.6834 -0.6594
 4541TP3      O25441   3.650   4.061   8.663 -0.2659  0.2241 -0.1818
 4541TP3     H125442   3.649   4.086   8.755 -0.1306 -1.0795  0.2009
 4541TP3     H225443   3.568   4.013   8.649 -0.9635  1.6232 -1.1265
 4542TP3      O25444   3.638   2.434   3.618 -0.0882 -0.0339  0.1167
 4542TP3     H125445   3.569   2.476   3.567 -1.0566 -1.9531 -0.2602
 4542TP3     H225446   3.667   2.502   3.679 -1.9013  1.0279 -0.1165
 4543TP3      O25447   3.472   1.382   1.507  0.2000  0.7114  0.0687
 4543TP3     H125448   3.487   1.374   1.413 -0.0921 -0.6153  0.1196
 4543TP3     H225449   3.396   1.440   1.515 -0.7238 -0.3901 -0.5849
 4544TP3      O25450   4.172   4.053   2.442 -0.4649  0.3282 -0.3854
 4544TP3     H125451   4.182   4.113   2.367 -0.0158  1.4395  0.5261
 4544TP3     H225452   4.085   4.072   2.476 -1.5964 -1.7462 -1.8968
 4545TP3      O25453   3.485   2.264   1.755 -0.0008  0.1120  0.6913
 4545TP3     H125454   3.460   2.172   1.756  1.1456 -0.2103  1.1786
 4545TP3     H225455   3.548   2.273   1.827 -0.2996  1.3344  0.8239
 4546TP3      O25456   0.231   0.221   2.913 -0.4989 -0.5500  0.0510
 4546TP3     H125457   0.282   0.277   2.855 -0.5799  0.9404  1.3683
 4546TP3     H225458   0.141   0.252   2.904 -0.2143  1.2714  2.6199
 4547TP3      O25459   3.949   0.972   2.875  0.2354  0.1530  0.4178
 4547TP3     H125460   3.872   0.943   2.924 -0.0150  0.3048  0.1143
 4547TP3     H225461   4.020   0.917   2.908  0.1683  0.5655  1.2904
 4548TP3      O25462   1.329   0.885   0.499 -0.0228  0.1696 -0.0863
 4548TP3     H125463   1.361   0.892   0.590  1.3573  1.3338 -0.6198
 4548TP3     H225464   1.375   0.956   0.453 -1.0876 -0.0934 -1.5923
 4549TP3      O25465   5.125   3.748   7.476 -0.4617 -0.4189  0.2911
 4549TP3     H125466   5.043   3.718   7.439  0.2464 -1.8755 -0.1757
 4549TP3     H225467   5.101   3.788   7.560 -1.6906 -0.2478 -0.1272
 4550TP3      O25468   1.552   2.721   1.044 -0.0135  0.1924  0.3401
 4550TP3     H125469   1.514   2.736   0.958 -0.0364  2.0037  0.6093
 4550TP3     H225470   1.532   2.802   1.093  2.6609  0.5294  1.0321
 4551TP3      O25471   1.106   5.238   7.582  0.1384  0.2088  0.4974
 4551TP3     H125472   1.075   5.186   7.508  0.0330  3.3677 -1.8754
 4551TP3     H225473   1.042   5.309   7.590 -0.3258 -0.4054  4.2855
 4552TP3      O25474   2.810   1.495   7.944 -0.1622 -0.0984 -0.3961
 4552TP3     H125475   2.796   1.589   7.932 -1.9482  0.0288  1.9199
 4552TP3     H225476   2.731   1.455   7.907  0.1253 -0.6125 -0.4621
 4553TP3      O25477   0.044   2.575   9.439 -0.1265 -0.2017  0.2447
 4553TP3     H125478  -0.019   2.647   9.441  0.2643  0.1423  0.5086
 4553TP3     H225479  -0.006   2.498   9.463 -0.3489  0.1424  0.9082
 4554TP3      O25480   4.959   2.002   8.381 -0.5097  0.1378  0.2380
 4554TP3     H125481   5.053   2.020   8.380 -0.6279  0.8358  0.8281
 4554TP3     H225482   4.950   1.923   8.434 -0.3452  0.7282  1.1748
 4555TP3      O25483   2.295   1.480   1.867  0.0917  0.5519  0.1475
 4555TP3     H125484   2.279   1.442   1.953 -2.0681  1.0505  0.0253
 4555TP3     H225485   2.317   1.406   1.811 -0.7980 -0.1047  0.6372
 4556TP3      O25486   3.808   3.842   1.006 -0.6368 -0.0416 -0.2852
 4556TP3     H125487   3.723   3.876   1.033 -0.9094 -0.4827 -0.5679
 4556TP3     H225488   3.864   3.919   0.996 -0.5882  0.1506  1.2873
 4557TP3      O25489   0.359   2.168   7.958  0.0572 -0.0404 -0.2203
 4557TP3     H125490   0.340   2.077   7.935 -0.8547 -0.0965  0.6635
 4557TP3     H225491   0.274   2.212   7.953  0.3222  0.5468  0.2945
 4558TP3      O25492   2.133   1.417   3.568  0.1391  0.3224  0.2155
 4558TP3     H125493   2.111   1.424   3.475 -1.0212  1.6841  0.5529
 4558TP3     H225494   2.196   1.488   3.583  0.4823 -0.0223  0.4398
 4559TP3      O25495   2.399   3.031   7.883 -0.1088  0.2708 -0.0328
 4559TP3     H125496   2.342   2.954   7.884 -0.7359  0.7287  0.5691
 4559TP3     H225497   2.345   3.099   7.842 -0.1644  0.8336  0.9594
 4560TP3      O25498   0.107   0.815   7.381  0.4080 -0.0879  0.4881
 4560TP3     H125499   0.138   0.742   7.328  0.9342  0.5988 -0.1761
 4560TP3     H225500   0.090   0.885   7.318  1.9862  1.0826  1.2894
 4561TP3      O25501   3.622   1.211   8.407 -0.2322 -0.0167 -0.6421
 4561TP3     H125502   3.614   1.260   8.325 -0.2590 -0.3968 -0.8686
 4561TP3     H225503   3.716   1.206   8.423 -0.1974 -0.5256 -1.0039
 4562TP3      O25504   3.743   2.457   1.043  0.3231  0.2343  0.2909
 4562TP3     H125505   3.719   2.545   1.014  2.1986  0.5415 -0.4616
 4562TP3     H225506   3.772   2.469   1.134  0.5332  0.3858  0.2040
 4563TP3      O25507   3.545   4.678   6.963 -0.3805 -0.2486  1.0055
 4563TP3     H125508   3.489   4.717   6.896  0.6457 -0.6189 -0.1114
 4563TP3     H225509   3.612   4.630   6.913 -0.2672 -1.5123  2.3094
 4564TP3      O25510   1.456   2.868   0.318  0.0046  0.1443  0.1712
 4564TP3     H125511   1.420   2.927   0.384 -0.6520  0.4443 -0.4482
 4564TP3     H225512   1.413   2.784   0.334  0.3700  0.0229  0.5602
 4565TP3      O25513   4.998   4.848   0.884  0.9473 -0.5058  0.2199
 4565TP3     H125514   4.994   4.753   0.897  1.0234 -0.3324  1.6508
 4565TP3     H225515   5.046   4.859   0.802  1.0943 -1.6952  0.1315
 4566TP3      O25516   3.579   2.538   0.554  0.2402  0.2280  0.5143
 4566TP3     H125517   3.560   2.492   0.473 -0.8788  1.0164  0.3001
 4566TP3     H225518   3.658   2.496   0.588  0.2214 -0.6902 -0.5267
 4567TP3      O25519   1.238   3.622   1.646 -0.2803  0.0615 -0.0528
 4567TP3     H125520   1.294   3.687   1.603  0.9977 -0.7390  0.3430
 4567TP3     H225521   1.295   3.546   1.659 -1.3740 -0.6672  0.6901
 4568TP3      O25522   3.819   0.421   1.150 -0.6562 -0.1054 -0.3205
 4568TP3     H125523   3.877   0.362   1.198  0.4258  0.7262 -0.5718
 4568TP3     H225524   3.788   0.483   1.216  0.4223  0.7247 -0.5789
 4569TP3      O25525   0.498   4.054   9.435  0.0497  0.1164  0.0256
 4569TP3     H125526   0.406   4.056   9.462  0.2613  1.0138  0.7575
 4569TP3     H225527   0.523   3.962   9.441 -0.5653 -0.0166  0.6844
 4570TP3      O25528   1.410   1.122   7.031  0.2396 -0.2694 -0.0028
 4570TP3     H125529   1.321   1.100   7.057  0.0554 -0.1014 -0.4787
 4570TP3     H225530   1.409   1.118   6.935  0.7681 -0.3704 -0.0069
 4571TP3      O25531   4.470   4.766   1.389 -0.6157  0.5738  0.0330
 4571TP3     H125532   4.410   4.777   1.463 -1.2389  0.8293 -0.5084
 4571TP3     H225533   4.419   4.719   1.323  0.9093 -2.7663  0.9949
 4572TP3      O25534   4.943   1.298   9.967 -0.3526 -0.5626 -0.2528
 4572TP3     H125535   4.964   1.294  10.061 -0.6655 -1.4921 -0.2095
 4572TP3     H225536   4.858   1.340   9.963  0.1304  0.4346 -0.2023
 4573TP3      O25537   4.416   0.877   8.910  0.4982 -0.7298  0.5071
 4573TP3     H125538   4.418   0.782   8.923  0.9746 -0.4544  2.7264
 4573TP3     H225539   4.432   0.914   8.996  2.3898  1.3960 -0.6432
 4574TP3      O25540   1.567   3.456   7.964 -0.4366  0.4014  0.2948
 4574TP3     H125541   1.591   3.425   8.051  1.4673 -0.5318 -0.5076
 4574TP3     H225542   1.475   3.433   7.954 -1.2319  2.1575  2.7218
 4575TP3      O25543   0.186   4.132   7.573  0.3539 -0.0672  0.6405
 4575TP3     H125544   0.159   4.044   7.599 -0.5615  0.0445  0.0889
 4575TP3     H225545   0.282   4.130   7.577  0.4231 -1.5855 -0.9971
 4576TP3      O25546   2.758   4.382   2.117  0.1850  0.2882  0.0474
 4576TP3     H125547   2.665   4.359   2.112  0.5388 -0.9888 -1.1964
 4576TP3     H225548   2.758   4.474   2.143 -1.4265  0.3110  0.0687
 4577TP3      O25549   1.476   0.585   1.969  0.3532  0.3234  0.1939
 4577TP3     H125550   1.557   0.634   1.986 -0.7246  1.6410  1.9270
 4577TP3     H225551   1.486   0.503   2.018  0.3791  0.8039  1.0184
 4578TP3      O25552   2.813   0.162   8.035 -0.3964  0.2293 -0.0087
 4578TP3     H125553   2.856   0.233   8.083  1.3776 -1.6917  1.4243
 4578TP3     H225554   2.870   0.146   7.960 -0.8974  0.4119 -0.4366
 4579TP3      O25555   0.359   0.041   7.909 -0.0575 -0.0054 -0.1399
 4579TP3     H125556   0.430   0.014   7.968  0.8593  1.5707 -0.4588
 4579TP3     H225557   0.339   0.130   7.936 -0.9291  0.0803 -1.0160
 4580TP3      O25558   4.420   3.330   3.094  0.2011  0.0393 -0.9836
 4580TP3     H125559   4.457   3.419   3.099 -0.9957  0.5139  0.0991
 4580TP3     H225560   4.484   3.280   3.043  1.5998  1.1710 -0.4134
 4581TP3      O25561   5.020   2.022   9.790  0.6227  0.5657  0.4331
 4581TP3     H125562   5.115   2.016   9.776  0.3520 -0.6927 -1.2287
 4581TP3     H225563   5.003   1.962   9.863  0.8472 -1.2314 -0.9232
 4582TP3      O25564   1.134   1.161   1.013  0.1301 -0.2406  0.0403
 4582TP3     H125565   1.180   1.085   0.978 -1.2031 -1.0828  0.0466
 4582TP3     H225566   1.049   1.159   0.969 -0.6547  0.1057  1.4857
 4583TP3      O25567   1.952   5.177   2.023 -0.4373  0.4737  0.5343
 4583TP3     H125568   2.027   5.201   1.969 -0.3392 -1.3220 -0.2017
 4583TP3     H225569   1.895   5.253   2.019  0.2472  0.9592 -0.9006
 4584TP3      O25570   2.282   0.996   1.256 -0.1025 -0.3705 -0.3443
 4584TP3     H125571   2.196   1.008   1.297  0.2816  1.6571 -0.0145
 4584TP3     H225572   2.262   0.966   1.167 -1.1792  0.3013 -0.3491
 4585TP3      O25573   1.462   1.710   0.456 -0.1989  0.0242 -0.3173
 4585TP3     H125574   1.497   1.797   0.475 -1.7135  0.6436 -0.1671
 4585TP3     H225575   1.389   1.700   0.517 -0.9738 -0.7267 -1.3380
 4586TP3      O25576   2.305   2.562   7.254  0.1902  0.5370 -0.2844
 4586TP3     H125577   2.376   2.504   7.279  0.4836  1.0654  0.1353
 4586TP3     H225578   2.294   2.547   7.160 -1.6727 -2.2737  0.2885
 4587TP3      O25579   2.136   3.790   8.708 -0.1624  0.0232 -0.5311
 4587TP3     H125580   2.123   3.861   8.645  0.8426 -1.1944 -2.1816
 4587TP3     H225581   2.228   3.797   8.735 -0.6681  0.7678  1.1677
 4588TP3      O25582   3.477   2.450   8.089  0.5448 -0.3345 -0.1894
 4588TP3     H125583   3.536   2.403   8.149  0.2239  0.3652  0.6930
 4588TP3     H225584   3.389   2.423   8.115  0.4419 -1.2889 -1.4309
 4589TP3      O25585   0.725   2.516   2.536  0.0316  0.6445  0.2842
 4589TP3     H125586   0.820   2.524   2.551  0.4323 -1.1507 -1.0064
 4589TP3     H225587   0.694   2.463   2.609  0.2386  0.2574  0.0954
 4590TP3      O25588   1.233   0.069   0.884  0.5525  0.0180 -0.1359
 4590TP3     H125589   1.262   0.093   0.972  0.4112  0.5526 -0.2375
 4590TP3     H225590   1.259   0.142   0.828  2.4197 -1.1366 -0.8982
 4591TP3      O25591   5.064   4.038   0.296 -0.4962 -0.2399  0.3359
 4591TP3     H125592   5.081   4.036   0.390 -1.5002 -0.9794  0.5119
 4591TP3     H225593   4.983   4.088   0.287 -0.1274  0.2737 -0.1883
 4592TP3      O25594   1.629   0.258   3.241  0.0737 -0.3509 -0.4628
 4592TP3     H125595   1.663   0.221   3.323 -0.5457  0.1963  0.0540
 4592TP3     H225596   1.595   0.183   3.193 -0.4414 -0.5713  0.2203
 4593TP3      O25597   3.778   1.719   2.044  0.2720  0.1977  0.3094
 4593TP3     H125598   3.844   1.658   2.011  0.0710  0.0910  0.1015
 4593TP3     H225599   3.700   1.701   1.991 -0.1224 -0.1287  0.9845
 4594TP3      O25600   4.900   1.024   2.678  0.4363  0.0138  0.3950
 4594TP3     H125601   4.846   1.100   2.699  0.3147  0.0309  0.0202
 4594TP3     H225602   4.990   1.054   2.689  0.3799  0.0293  0.8665
 4595TP3      O25603   2.346   0.083   0.576  0.4545 -0.1573  0.0873
 4595TP3     H125604   2.317  -0.008   0.577  0.3273 -0.1163  0.0931
 4595TP3     H225605   2.265   0.134   0.585  0.3093  0.0123 -1.8739
 4596TP3      O25606   1.525   4.356   7.246 -0.0906 -0.7686 -0.1186
 4596TP3     H125607   1.517   4.282   7.185  1.1284  0.5465 -1.9529
 4596TP3     H225608   1.434   4.377   7.269 -0.5993 -1.2293 -1.5838
 4597TP3      O25609   1.829   4.522   0.053  0.0956  0.0540 -0.2707
 4597TP3     H125610   1.745   4.564   0.070  0.8268  1.8270 -0.7657
 4597TP3     H225611   1.863   4.501   0.140 -1.2274 -1.5321 -0.0972
 4598TP3      O25612   4.829   0.791   7.899 -0.4715  0.0225  0.3862
 4598TP3     H125613   4.827   0.709   7.850 -0.3237 -0.3615  1.0110
 4598TP3     H225614   4.823   0.859   7.832 -1.8675 -0.5065 -0.0457
 4599TP3      O25615   1.155   4.375   0.540  0.3641  0.8336 -0.0647
 4599TP3     H125616   1.215   4.443   0.568  3.1914 -1.8939  1.1863
 4599TP3     H225617   1.207   4.294   0.544 -1.8863 -1.1295 -4.0518
 4600TP3      O25618   2.331   1.125   8.167  1.0606 -0.2194 -0.0050
 4600TP3     H125619   2.424   1.107   8.154  1.3527  0.8518  0.5476
 4600TP3     H225620   2.320   1.131   8.262  0.0443 -2.2128  0.0658
 4601TP3      O25621   4.073   2.420   8.222 -0.2812 -0.1697 -0.5585
 4601TP3     H125622   4.035   2.332   8.215  1.0865 -0.7681 -0.8048
 4601TP3     H225623   4.168   2.405   8.222 -0.0214  1.3319 -0.9179
 4602TP3      O25624   0.865   0.387   0.366  0.7059  0.3587 -0.1056
 4602TP3     H125625   0.785   0.365   0.319  1.5506 -1.3149 -0.8734
 4602TP3     H225626   0.840   0.457   0.427 -1.0858  0.5309 -0.9935
 4603TP3      O25627   1.734   4.087   7.705 -0.4979 -0.0926  0.6870
 4603TP3     H125628   1.704   4.084   7.614  1.1665  2.5148 -0.0682
 4603TP3     H225629   1.824   4.055   7.702  0.3065  2.0063  0.9703
 4604TP3      O25630   4.430   0.885   0.831 -0.5117  0.1606  0.3724
 4604TP3     H125631   4.486   0.820   0.872 -0.7132 -0.5616 -0.4695
 4604TP3     H225632   4.461   0.890   0.741  0.5493  2.4205  0.7942
 4605TP3      O25633   2.387   4.858   0.615  0.1314  0.2529 -0.5488
 4605TP3     H125634   2.474   4.896   0.626  0.3765 -0.1676 -1.0409
 4605TP3     H225635   2.397   4.766   0.637 -0.7427  0.6632  1.9709
 4606TP3      O25636   1.395   3.569   8.985  0.0804  0.7188 -0.6150
 4606TP3     H125637   1.372   3.477   8.970 -0.9647  0.5837  1.4037
 4606TP3     H225638   1.490   3.572   8.977  0.2668 -0.8293  0.4918
 4607TP3      O25639   3.623   4.740   7.250  0.3327  0.0116 -0.0471
 4607TP3     H125640   3.667   4.757   7.166  0.2564 -1.9833 -0.5554
 4607TP3     H225641   3.683   4.681   7.296 -1.1060 -1.5755 -0.1303
 4608TP3      O25642   4.453   1.287   3.348  0.3492  0.1154 -0.0633
 4608TP3     H125643   4.409   1.368   3.371  0.3365 -0.3645  1.6949
 4608TP3     H225644   4.507   1.310   3.272 -1.1125  1.2688 -0.8150
 4609TP3      O25645   4.470   3.696   9.448  0.0415  0.0312  0.0716
 4609TP3     H125646   4.457   3.784   9.482  2.9096  0.0474  1.4555
 4609TP3     H225647   4.535   3.708   9.378  1.2442 -1.0253  0.9559
 4610TP3      O25648   5.166   0.602   0.657 -0.2556  0.0317  0.3717
 4610TP3     H125649   5.118   0.602   0.740 -1.2872 -0.5542 -0.1978
 4610TP3     H225650   5.136   0.523   0.612  2.3126 -1.1291  0.5526
 4611TP3      O25651   3.584   0.121   2.875 -0.5579 -0.2223  0.5007
 4611TP3     H125652   3.614   0.075   2.953 -1.1394  1.8374  2.0244
 4611TP3     H225653   3.496   0.087   2.859 -1.6764  1.4114  2.6364
 4612TP3      O25654   1.442   2.146   2.136 -0.2035  0.3623  0.0178
 4612TP3     H125655   1.490   2.193   2.205 -1.3092 -0.5636  1.4763
 4612TP3     H225656   1.443   2.055   2.164  1.2797 -0.4561 -2.4014
 4613TP3      O25657   3.844   2.753   8.350 -0.1491 -0.0736  0.4687
 4613TP3     H125658   3.842   2.673   8.402  1.7590 -0.4300  0.0661
 4613TP3     H225659   3.920   2.801   8.383  1.3083 -0.4436 -2.0845
 4614TP3      O25660   1.307   4.293   2.335  0.3863 -0.1217  0.1916
 4614TP3     H125661   1.336   4.350   2.406  0.3139 -0.1185  0.2188
 4614TP3     H225662   1.370   4.307   2.265 -0.1270  0.6496 -0.1345
 4615TP3      O25663   2.166   3.439   0.205  0.3486  0.0964  0.2216
 4615TP3     H125664   2.114   3.406   0.132 -1.6613 -0.2840  1.7518
 4615TP3     H225665   2.214   3.513   0.168 -1.1782  0.3872 -1.3074
 4616TP3      O25666   4.609   1.207   7.605  0.1152  0.2102 -0.5235
 4616TP3     H125667   4.651   1.228   7.689  1.4435 -1.1024 -0.8202
 4616TP3     H225668   4.524   1.171   7.629  0.1280  0.6495  0.2094
 4617TP3      O25669   0.077   2.906   3.446  0.2278 -0.5226  0.0252
 4617TP3     H125670   0.068   2.985   3.500 -0.3798 -0.4262 -0.2059
 4617TP3     H225671   0.000   2.908   3.389  0.3805 -1.1135 -0.2030
 4618TP3      O25672   1.446   4.825  10.094  0.3827 -0.1798 -0.4737
 4618TP3     H125673   1.383   4.815  10.023 -1.1681 -1.8107  1.0438
 4618TP3     H225674   1.397   4.869  10.163  1.7550  1.0403 -0.2329
 4619TP3      O25675   4.462   4.110   7.975  0.1509  0.3395  0.2725
 4619TP3     H125676   4.424   4.076   7.894 -2.8078  0.6698  1.3833
 4619TP3     H225677   4.409   4.071   8.045  1.5698  1.3028  1.9785
 4620TP3      O25678   1.560   0.363   7.679 -0.1022  0.5188  0.8695
 4620TP3     H125679   1.631   0.330   7.623 -1.8901 -0.3089 -1.0617
 4620TP3     H225680   1.571   0.316   7.762  0.9490 -0.4396  0.2185
 4621TP3      O25681   0.721   2.428   1.575  0.4133 -0.0198  0.0861
 4621TP3     H125682   0.764   2.401   1.494 -0.5238 -0.3889 -0.3024
 4621TP3     H225683   0.683   2.347   1.610 -1.2998  0.5355 -0.3998
 4622TP3      O25684   1.360   0.258   0.329 -0.7072  0.2954  0.2035
 4622TP3     H125685   1.424   0.306   0.277 -0.2711  1.7400  1.9649
 4622TP3     H225686   1.326   0.322   0.391 -0.7239 -1.4523  2.1276
 4623TP3      O25687   0.905   3.050   8.283  0.1833 -0.1020 -0.0829
 4623TP3     H125688   0.997   3.064   8.304  0.2106  0.3965 -0.5276
 4623TP3     H225689   0.859   3.121   8.328 -0.0604 -0.7079  0.6599
 4624TP3      O25690   4.062   0.929   2.522 -0.2862 -0.5144  0.0284
 4624TP3     H125691   3.979   0.884   2.503 -0.7913  0.1005  0.7403
 4624TP3     H225692   4.036   1.015   2.553  0.6707  0.7596 -2.4078
 4625TP3      O25693   2.329   4.353   9.983  0.2225  0.0979 -0.1480
 4625TP3     H125694   2.316   4.444   9.957  1.4537  0.2074 -0.4528
 4625TP3     H225695   2.241   4.319   9.997 -0.3419  0.9141 -1.4907
 4626TP3      O25696   3.503   2.228   9.348  0.2828 -0.2720  0.2887
 4626TP3     H125697   3.463   2.297   9.401  1.9556 -0.1089  1.3963
 4626TP3     H225698   3.591   2.218   9.383  1.0555 -1.0114 -1.7073
 4627TP3      O25699   4.285   1.706   0.430  0.2639  0.3170  0.2996
 4627TP3     H125700   4.304   1.653   0.352 -0.1852  0.8488 -0.1739
 4627TP3     H225701   4.364   1.758   0.443  0.6619 -0.3667  0.6949
 4628TP3      O25702   0.546   2.236   1.633 -0.0501 -0.1765  0.4356
 4628TP3     H125703   0.483   2.177   1.674 -0.5431  0.0079 -0.0408
 4628TP3     H225704   0.595   2.179   1.573 -0.8342 -0.0422 -0.3693
 4629TP3      O25705   4.576   0.097   2.242  0.4002  0.1355  0.2474
 4629TP3     H125706   4.512   0.072   2.176  0.8489  0.0247 -0.1533
 4629TP3     H225707   4.598   0.016   2.287  1.0638 -0.0177 -0.3418
 4630TP3      O25708   1.820   2.422   2.634 -0.1261  0.6777 -0.2797
 4630TP3     H125709   1.893   2.471   2.670 -0.3419 -0.2025  1.4924
 4630TP3     H225710   1.746   2.441   2.693 -0.5698 -0.6020 -0.3696
 4631TP3      O25711   1.763   4.060   9.689 -0.1364  0.0210  0.4765
 4631TP3     H125712   1.792   4.017   9.608  0.2544  1.1857 -0.0247
 4631TP3     H225713   1.766   4.154   9.669  2.1438  0.4915  2.5178
 4632TP3      O25714   4.341   2.595  10.005  0.2879  0.1558 -0.3725
 4632TP3     H125715   4.344   2.573   9.912 -0.4222 -1.9578  0.0358
 4632TP3     H225716   4.301   2.681  10.009 -0.1224  0.0711 -2.0056
 4633TP3      O25717   0.879   2.808   9.372  0.5165  0.3084 -0.3693
 4633TP3     H125718   0.790   2.843   9.381  1.1878  1.6048  2.0325
 4633TP3     H225719   0.930   2.883   9.339  1.0697  0.1820  0.1822
 4634TP3      O25720   2.140   4.197   7.756  0.0837  0.1846  0.1347
 4634TP3     H125721   2.078   4.172   7.825 -0.9955 -0.7572 -1.1304
 4634TP3     H225722   2.111   4.283   7.727  0.2761  0.3901  0.5353
 4635TP3      O25723   0.601   1.929   2.344 -0.1022  0.3716  0.1764
 4635TP3     H125724   0.505   1.924   2.339 -0.1500  1.9178 -2.4612
 4635TP3     H225725   0.631   1.849   2.302 -0.3505  1.3226 -1.9564
 4636TP3      O25726   4.669   1.835   1.585 -0.3000  0.4099 -0.0112
 4636TP3     H125727   4.721   1.756   1.567 -0.7132 -0.0748  0.8685
 4636TP3     H225728   4.702   1.900   1.523 -0.1753 -0.5473 -0.9740
 4637TP3      O25729   4.870   1.043   9.847 -0.1889 -0.1414 -0.2458
 4637TP3     H125730   4.924   1.097   9.905 -0.0805  0.0233 -0.4972
 4637TP3     H225731   4.932   0.997   9.792 -0.3001 -0.0136 -0.4808
 4638TP3      O25732   2.213   0.826   0.235  0.1331  0.8681  0.3293
 4638TP3     H125733   2.142   0.763   0.220  1.8044 -1.4563  1.6128
 4638TP3     H225734   2.200   0.856   0.324  1.4867 -0.6688  1.0955
 4639TP3      O25735   2.148   5.122   8.625 -0.1482 -0.3161  0.9139
 4639TP3     H125736   2.103   5.055   8.572  1.6821  0.4007 -1.7773
 4639TP3     H225737   2.079   5.184   8.648 -1.4618 -1.9145  1.5011
 4640TP3      O25738   4.289   0.239   7.689  0.1541 -0.0615 -0.0527
 4640TP3     H125739   4.287   0.283   7.604 -0.1571  0.7150  0.3471
 4640TP3     H225740   4.318   0.306   7.750 -0.5581 -0.3409  0.6101
 4641TP3      O25741   5.025   0.173   7.366 -0.0252  0.3661 -0.7649
 4641TP3     H125742   5.115   0.142   7.377  0.4006  1.9902  0.6845
 4641TP3     H225743   4.988   0.172   7.455 -1.1294  0.6202 -1.2020
 4642TP3      O25744   0.261   0.893   2.389 -0.5457 -0.3237 -0.7139
 4642TP3     H125745   0.261   0.952   2.465 -2.0762  1.6998 -2.1894
 4642TP3     H225746   0.344   0.845   2.396  0.5886  1.7124  0.8015
 4643TP3      O25747   3.486   4.531   9.463  0.0961 -0.2523  1.0309
 4643TP3     H125748   3.545   4.456   9.455  0.0003 -0.3543  1.2913
 4643TP3     H225749   3.408   4.496   9.507  0.3456  0.1639  1.8229
 4644TP3      O25750   3.901   3.416   2.040  0.1967 -0.1494  0.1361
 4644TP3     H125751   3.822   3.439   1.992 -1.0295 -0.6817  1.7831
 4644TP3     H225752   3.954   3.367   1.978 -1.0534 -0.3252 -0.8353
 4645TP3      O25753   0.933   1.507   8.465 -0.0881  0.5407 -0.1635
 4645TP3     H125754   0.920   1.448   8.539 -2.7209  1.3086  0.0592
 4645TP3     H225755   1.021   1.542   8.478  0.3178 -0.9327  1.4064
 4646TP3      O25756   5.269   5.103   8.472 -0.3910  0.0418  0.0757
 4646TP3     H125757   5.244   5.184   8.427 -0.5546 -0.1356 -0.1503
 4646TP3     H225758   5.339   5.066   8.418 -0.2552  0.0731  0.2261
 4647TP3      O25759   1.963   3.377   8.217  0.6025  0.2537  0.2045
 4647TP3     H125760   1.984   3.366   8.124  0.0173 -0.7788  0.1818
 4647TP3     H225761   1.910   3.456   8.219  1.4483  0.8519 -0.1994
 4648TP3      O25762   3.321   0.046   2.803  0.0597  0.1579 -0.3501
 4648TP3     H125763   3.249   0.110   2.803  1.7854  2.2176  0.1480
 4648TP3     H225764   3.307  -0.006   2.882 -0.7028  0.7014 -0.1125
 4649TP3      O25765   4.393   1.053   0.520  0.3299 -0.3798  0.0986
 4649TP3     H125766   4.406   1.135   0.568  0.2815 -0.3332  0.0321
 4649TP3     H225767   4.403   1.076   0.428 -0.0057 -0.3844  0.0594
 4650TP3      O25768   2.982   3.781   0.224 -0.2281 -0.1728 -0.2471
 4650TP3     H125769   2.967   3.875   0.233 -0.6402 -0.3702  1.6470
 4650TP3     H225770   2.895   3.743   0.214  0.0282 -0.2689 -2.6456
 4651TP3      O25771   3.104   3.781   7.169 -0.5630  0.1538 -0.9484
 4651TP3     H125772   3.100   3.700   7.118 -0.0782 -0.9836  0.7474
 4651TP3     H225773   3.189   3.819   7.147 -0.2610 -0.4446 -0.8313
 4652TP3      O25774   2.550   3.620   8.629 -0.6018  0.2986  0.2573
 4652TP3     H125775   2.508   3.537   8.605  0.1482 -0.8400  2.5751
 4652TP3     H225776   2.631   3.622   8.579 -1.8471  1.0048 -1.8607
 4653TP3      O25777   2.468   1.946   8.289  0.1069  0.1432 -0.3384
 4653TP3     H125778   2.383   1.945   8.332 -0.2494 -1.0340 -1.0309
 4653TP3     H225779   2.525   1.994   8.349 -0.8534  0.2627  0.4977
 4654TP3      O25780   4.341   4.465   1.952  0.2090  0.9525 -0.2136
 4654TP3     H125781   4.377   4.547   1.918  2.7443  0.2237  0.4810
 4654TP3     H225782   4.331   4.409   1.875 -0.1292  1.3990 -0.5010
 4655TP3      O25783   5.117   2.832   3.610  0.7644 -0.1499  0.4477
 4655TP3     H125784   5.115   2.854   3.517 -0.7739 -0.4107  0.3825
 4655TP3     H225785   5.041   2.775   3.622  0.0714  1.0346  2.1129
 4656TP3      O25786   0.219   3.990   7.956  0.3433  0.2548  0.1664
 4656TP3     H125787   0.229   3.964   7.864  0.3160  0.5867  0.0681
 4656TP3     H225788   0.194   4.082   7.952 -1.0317 -0.0833  0.4548
 4657TP3      O25789   1.482   0.183   8.592  0.2460  0.0802  0.4901
 4657TP3     H125790   1.392   0.215   8.595  0.3816  0.5735 -0.2684
 4657TP3     H225791   1.522   0.233   8.521  0.0249 -2.9480 -1.9343
 4658TP3      O25792   4.425   3.490   1.304 -0.0469 -0.3072  0.1166
 4658TP3     H125793   4.342   3.444   1.314  0.5793 -1.0762  2.3751
 4658TP3     H225794   4.403   3.582   1.320 -0.4597 -0.5107  0.7490
 4659TP3      O25795   2.449   1.431   9.909 -0.4149  0.1600 -0.1119
 4659TP3     H125796   2.428   1.380   9.831  2.3952  0.7707 -1.4374
 4659TP3     H225797   2.541   1.409   9.927  0.1889  2.9131  0.6477
 4660TP3      O25798   1.303   4.437   1.620 -0.0576  0.3528 -0.1663
 4660TP3     H125799   1.265   4.520   1.649 -1.0945  0.0540 -0.6329
 4660TP3     H225800   1.297   4.440   1.525  1.6723  0.5511 -0.2970
 4661TP3      O25801   4.904   1.905   2.189 -0.0879  0.1895  0.6715
 4661TP3     H125802   4.907   1.887   2.283  0.2110 -0.3962  0.5504
 4661TP3     H225803   4.995   1.900   2.160 -0.3313 -1.1119  0.0766
 4662TP3      O25804   1.652   3.832   0.067  0.2086  0.6239  0.0097
 4662TP3     H125805   1.717   3.864   0.004 -0.0832  0.0874 -0.5782
 4662TP3     H225806   1.688   3.749   0.099 -0.4647  0.0042 -0.7944
 4663TP3      O25807   0.609   3.779   9.776 -0.1980  0.0312 -0.1024
 4663TP3     H125808   0.626   3.687   9.794 -1.0920 -0.2232 -0.4950
 4663TP3     H225809   0.685   3.810   9.728  0.3905 -0.3371  0.5843
 4664TP3      O25810   2.387   5.273   9.234 -0.2957  0.1449  0.3198
 4664TP3     H125811   2.306   5.301   9.192 -1.0181 -3.5067 -1.0549
 4664TP3     H225812   2.360   5.235   9.317 -0.6239 -3.7676 -1.3583
 4665TP3      O25813   2.012   0.182   8.139 -0.2443 -0.1909  0.0644
 4665TP3     H125814   2.091   0.151   8.184 -1.2140  0.0246  2.0342
 4665TP3     H225815   2.032   0.272   8.113 -0.1081  0.1780  1.3619
 4666TP3      O25816   0.089   0.177  10.064  0.3676  0.1394 -0.3239
 4666TP3     H125817   0.087   0.086  10.034  0.7889 -0.4070  1.2243
 4666TP3     H225818   0.179   0.189  10.095  0.8814  1.6942 -2.2624
 4667TP3      O25819   1.181   1.345   3.128  0.5797  0.4642 -0.5333
 4667TP3     H125820   1.114   1.410   3.150  0.0034 -0.1382 -0.4726
 4667TP3     H225821   1.255   1.397   3.097 -0.4061  1.1016 -1.9428
 4668TP3      O25822   2.748   4.147   0.504  0.2360  0.1267  0.1881
 4668TP3     H125823   2.715   4.228   0.541  0.7646 -0.0414  1.0532
 4668TP3     H225824   2.794   4.104   0.576  1.8603  0.0911 -0.8298
 4669TP3      O25825   3.390   2.977   1.535 -0.2366  0.6261 -0.6408
 4669TP3     H125826   3.370   3.035   1.461 -0.8746  0.1915 -0.8222
 4669TP3     H225827   3.387   2.889   1.497  1.1197  0.4876 -0.4552
 4670TP3      O25828   3.080   0.010   0.278 -0.1646  0.8038 -0.4417
 4670TP3     H125829   3.096   0.060   0.359 -1.7256  0.5931  0.0303
 4670TP3     H225830   3.064  -0.079   0.307 -0.8652  0.7488 -0.9652
 4671TP3      O25831   3.214   3.448   0.392  0.4921  0.4445 -0.4403
 4671TP3     H125832   3.290   3.393   0.413  0.2349  0.4248  0.4624
 4671TP3     H225833   3.142   3.409   0.441  0.3574  1.7270  0.4107
 4672TP3      O25834   0.964   0.002   8.380  0.2561  0.7813 -0.0204
 4672TP3     H125835   1.024  -0.029   8.449 -0.3494 -0.3421  0.0287
 4672TP3     H225836   0.994  -0.042   8.301 -0.6458 -0.0089  0.0565
 4673TP3      O25837   3.593   4.445   7.587  0.5795  0.1195  0.4195
 4673TP3     H125838   3.585   4.376   7.652  2.1877 -1.3632 -0.8697
 4673TP3     H225839   3.506   4.452   7.548  0.1803 -0.5333  1.1740
 4674TP3      O25840   3.385   0.755   2.208  0.1132  0.3313 -0.0103
 4674TP3     H125841   3.471   0.785   2.237  1.6449 -2.0233 -1.6596
 4674TP3     H225842   3.364   0.681   2.265 -1.0534  1.1113  0.6202
 4675TP3      O25843   1.514   2.112   9.373 -0.6237 -0.1447 -0.2262
 4675TP3     H125844   1.465   2.082   9.449 -2.1874  1.4383 -0.5466
 4675TP3     H225845   1.500   2.207   9.370  1.1388  0.1517 -1.2936
 4676TP3      O25846   2.348   3.270   7.492  0.4108 -0.2923  0.0948
 4676TP3     H125847   2.367   3.364   7.495  0.2827 -0.2069 -1.2086
 4676TP3     H225848   2.369   3.244   7.402  0.4400 -1.5133  0.4384
 4677TP3      O25849   4.989   2.004   1.548 -0.0169  0.2902 -0.1606
 4677TP3     H125850   5.046   2.002   1.471  1.5425 -0.9686  0.9499
 4677TP3     H225851   4.901   2.014   1.513  0.5297 -1.2889 -2.1853
 4678TP3      O25852   3.692   0.560   1.343  0.8076  0.0899 -0.2019
 4678TP3     H125853   3.676   0.652   1.365 -1.4652 -0.2430 -0.1723
 4678TP3     H225854   3.604   0.521   1.342  1.6183 -1.8103 -1.4151
 4679TP3      O25855   3.432   0.510   1.720 -0.5204  0.1968  0.2779
 4679TP3     H125856   3.423   0.467   1.805  0.1921  1.6237  1.1079
 4679TP3     H225857   3.487   0.586   1.737 -1.2517  1.1142 -1.2508
 4680TP3      O25858   2.105   0.767   6.997  0.2649 -0.1790  0.2178
 4680TP3     H125859   2.107   0.860   6.974  0.3879 -0.1062  0.5115
 4680TP3     H225860   2.043   0.762   7.070 -0.6473 -0.5107 -0.5609
 4681TP3      O25861   3.759   1.248   2.981  0.4194 -0.1055  0.2160
 4681TP3     H125862   3.671   1.218   2.957  0.4275  0.8369 -1.1316
 4681TP3     H225863   3.801   1.171   3.019 -0.3752 -1.0971 -0.8274
 4682TP3      O25864   3.040   3.035   9.886  0.0766  0.6196  0.2794
 4682TP3     H125865   3.013   3.126   9.899  0.3373  0.9805 -1.4083
 4682TP3     H225866   3.049   3.026   9.791 -1.1122 -1.5234  0.2971
 4683TP3      O25867   0.098   4.417   7.573  0.4741 -0.0802 -0.3240
 4683TP3     H125868   0.136   4.330   7.587 -1.5350 -0.8307  0.8326
 4683TP3     H225869   0.052   4.411   7.490 -0.7937 -0.5891  0.3872
 4684TP3      O25870   2.242   1.643   2.255 -0.1001 -0.3121 -0.3903
 4684TP3     H125871   2.330   1.677   2.246 -0.5945  1.4282  0.8932
 4684TP3     H225872   2.185   1.720   2.245 -1.5266 -1.4556 -1.6697
 4685TP3      O25873   3.100   3.171   8.649  0.0909 -0.4718 -0.4664
 4685TP3     H125874   3.182   3.158   8.601 -0.7343 -0.4890 -1.9160
 4685TP3     H225875   3.061   3.084   8.654 -1.9311  0.0353 -3.7671
 4686TP3      O25876   0.752   3.891   1.785 -0.4421 -0.0635 -0.0120
 4686TP3     H125877   0.691   3.925   1.719 -0.9455  1.3100  1.1140
 4686TP3     H225878   0.838   3.923   1.757 -0.5613 -0.0243 -0.3385
 4687TP3      O25879   0.427   2.645   8.676  0.1685  0.5653  0.3527
 4687TP3     H125880   0.367   2.610   8.741 -1.1030  2.2776  0.1871
 4687TP3     H225881   0.379   2.640   8.593  1.4342 -0.7900 -0.3423
 4688TP3      O25882   0.665   0.203   7.576 -0.2648 -0.0660  0.2487
 4688TP3     H125883   0.702   0.281   7.617  0.0742 -0.4863  0.7617
 4688TP3     H225884   0.576   0.229   7.550 -0.3060  0.3572  0.7995
 4689TP3      O25885   2.886   0.871   7.937  0.4302 -0.4075 -0.0276
 4689TP3     H125886   2.903   0.827   7.853  0.6022  0.3743 -0.4095
 4689TP3     H225887   2.873   0.963   7.914  0.9836 -0.0924  0.8590
 4690TP3      O25888   0.841   2.752   0.563  0.0840 -0.3513 -0.1382
 4690TP3     H125889   0.848   2.761   0.658  1.3379  1.2700 -0.3401
 4690TP3     H225890   0.821   2.841   0.532  1.4157 -0.4830 -1.4999
 4691TP3      O25891   0.626   3.683   2.558  0.4665 -0.5260  0.4416
 4691TP3     H125892   0.668   3.601   2.533  0.8388 -0.2966  0.3072
 4691TP3     H225893   0.625   3.735   2.477 -0.8075 -0.8354  0.2393
 4692TP3      O25894   0.924   0.813   0.756  0.4894 -0.0499 -0.2372
 4692TP3     H125895   0.917   0.894   0.705 -0.3359  0.9867  1.4155
 4692TP3     H225896   0.851   0.817   0.817  1.3551 -1.2888  0.9392
 4693TP3      O25897   4.102   3.243   8.380  0.4867 -0.1338 -0.5884
 4693TP3     H125898   4.160   3.312   8.413  0.3611  0.1912 -1.0348
 4693TP3     H225899   4.106   3.175   8.447 -0.3654  0.8370  0.4924
 4694TP3      O25900   0.860   2.307   0.853  0.5756  0.7315  0.3276
 4694TP3     H125901   0.875   2.333   0.762 -0.3494  0.6005  0.1173
 4694TP3     H225902   0.928   2.352   0.903  0.7210  1.2972 -0.3583
 4695TP3      O25903   0.544   3.156   9.852  0.5776  0.3643 -0.0592
 4695TP3     H125904   0.465   3.102   9.853 -1.4903  3.1643 -1.0903
 4695TP3     H225905   0.610   3.100   9.809 -1.0611 -1.7309 -0.0173
 4696TP3      O25906   3.033   1.393   3.654  0.0017 -0.4362  0.1930
 4696TP3     H125907   3.082   1.470   3.625 -0.8603 -0.6159 -1.9582
 4696TP3     H225908   3.096   1.342   3.705  1.1408  0.7698  0.0468
 4697TP3      O25909   2.235   0.688  10.133  0.2117  0.4458  0.2928
 4697TP3     H125910   2.149   0.667  10.097 -0.3866 -0.3287  2.0176
 4697TP3     H225911   2.218   0.760  10.194  0.9029  0.7146  0.1740
 4698TP3      O25912   0.643   0.573   0.465  0.3949  0.4574  0.2645
 4698TP3     H125913   0.600   0.631   0.528  0.3149  1.8501 -0.9961
 4698TP3     H225914   0.586   0.497   0.459 -0.0464  0.6971  1.2088
 4699TP3      O25915   2.981   2.903   2.452  0.0852  0.5851  0.2609
 4699TP3     H125916   3.013   2.815   2.473 -0.8057  0.2004  0.0570
 4699TP3     H225917   2.886   2.896   2.458  0.0186  1.6686  0.7300
 4700TP3      O25918   2.155   0.447   7.456  0.0802  0.0655  0.7919
 4700TP3     H125919   2.071   0.483   7.427  0.4645  0.1824 -0.2237
 4700TP3     H225920   2.133   0.395   7.534 -1.2375 -1.3786 -0.4584
 4701TP3      O25921   5.038   0.311   9.907 -0.5659  0.1225 -0.5338
 4701TP3     H125922   4.943   0.314   9.912 -0.7934 -3.4291 -0.1218
 4701TP3     H225923   5.057   0.277   9.820 -0.1732 -4.4734  1.0215
 4702TP3      O25924   0.104   2.042   0.118 -0.1295 -0.1928  0.3663
 4702TP3     H125925   0.071   1.987   0.046  0.0891 -1.9203  1.5415
 4702TP3     H225926   0.190   2.006   0.138  0.0378  0.6254  1.1603
 4703TP3      O25927   1.099   0.611   0.089  0.0027 -0.1398 -0.4816
 4703TP3     H125928   1.070   0.678   0.150  1.3607  0.1914 -0.1679
 4703TP3     H225929   1.081   0.528   0.134  0.3208  0.0823  0.0679
 4704TP3      O25930   0.164   1.233   8.065 -0.4411  0.3210 -0.1174
 4704TP3     H125931   0.209   1.199   8.142 -0.3207 -0.6231 -0.5858
 4704TP3     H225932   0.071   1.221   8.084 -0.3952 -0.3678 -0.3172
 4705TP3      O25933   2.743   1.056   7.247 -0.2187 -0.5223 -0.0544
 4705TP3     H125934   2.804   1.120   7.211  0.4381 -0.9665  0.2536
 4705TP3     H225935   2.664   1.067   7.194 -0.4093  1.0732  0.4926
 4706TP3      O25936   5.235   1.180   8.746  0.2751  0.8575 -0.2056
 4706TP3     H125937   5.299   1.249   8.766 -0.9097  1.5942  1.1864
 4706TP3     H225938   5.230   1.128   8.826  0.4759 -0.3339 -0.9406
 4707TP3      O25939   4.629   5.242   8.329 -0.0908  0.0096  0.0299
 4707TP3     H125940   4.578   5.318   8.300  1.4437  0.9489 -0.2973
 4707TP3     H225941   4.601   5.171   8.270 -0.6917  0.6167 -0.4332
 4708TP3      O25942   3.448   1.930   3.702 -0.2494  0.4954  0.8819
 4708TP3     H125943   3.403   1.891   3.626  1.8415 -1.6410  0.6378
 4708TP3     H225944   3.510   1.992   3.663  0.5397 -0.3050  0.8343
 4709TP3      O25945   3.749   3.558   1.863 -0.1156 -0.2863  0.5062
 4709TP3     H125946   3.703   3.629   1.907  0.1914 -1.9188  3.7577
 4709TP3     H225947   3.829   3.599   1.829 -0.4059  1.1252  1.4319
 4710TP3      O25948   3.930   3.315   0.250 -0.7676  0.1930 -0.0113
 4710TP3     H125949   3.911   3.290   0.341 -0.0760  0.2589  0.1585
 4710TP3     H225950   4.003   3.259   0.224  0.0191  1.1849 -0.0164
 4711TP3      O25951   3.045   3.377   2.141  0.0923 -0.2650  0.2968
 4711TP3     H125952   2.993   3.457   2.142  0.5635  0.0395  1.2117
 4711TP3     H225953   2.981   3.307   2.152 -0.2412  0.0268  0.2361
 4712TP3      O25954   2.979   1.128   3.245 -0.0181  0.2981  0.5358
 4712TP3     H125955   2.966   1.053   3.186 -2.3335 -0.8610  2.3791
 4712TP3     H225956   2.891   1.154   3.272  0.8617  2.0902  1.9408
 4713TP3      O25957   3.173   0.136   1.258  0.8228 -0.5230 -0.4284
 4713TP3     H125958   3.229   0.206   1.223  0.6470  0.0363  0.3804
 4713TP3     H225959   3.172   0.151   1.352 -2.8064  1.1731 -0.5550
 4714TP3      O25960   4.425   3.887   0.578  0.3976 -0.9161 -0.7347
 4714TP3     H125961   4.383   3.897   0.664 -0.9503 -1.8268 -1.2476
 4714TP3     H225962   4.395   3.802   0.547  2.8480 -1.7334 -1.0761
 4715TP3      O25963   1.355   5.270   8.253  0.1853  0.5388 -0.2447
 4715TP3     H125964   1.370   5.176   8.266  0.0441  0.6068  0.4371
 4715TP3     H225965   1.442   5.309   8.259  0.0512  0.6462  1.2231
 4716TP3      O25966   0.004   2.220   0.876 -0.2198 -0.5387  0.1286
 4716TP3     H125967   0.066   2.291   0.896 -1.5730  0.4967  0.8990
 4716TP3     H225968  -0.018   2.184   0.962 -0.5330 -1.0345 -0.1576
 4717TP3      O25969   0.026   1.430   2.134 -0.1348 -0.4952 -0.3195
 4717TP3     H125970   0.032   1.342   2.095 -1.1102 -0.2284 -1.1315
 4717TP3     H225971  -0.066   1.439   2.157 -0.1942  0.6067 -0.9487
 4718TP3      O25972   5.104   4.492   0.290  0.1177 -0.1545 -0.0092
 4718TP3     H125973   5.183   4.467   0.337  0.8502 -1.6214 -1.8675
 4718TP3     H225974   5.054   4.410   0.284 -1.6651  0.7774  1.2722
 4719TP3      O25975   2.790   0.309   2.521 -0.0974 -0.1418 -0.1903
 4719TP3     H125976   2.737   0.386   2.500 -2.8063 -1.6189  0.6731
 4719TP3     H225977   2.735   0.235   2.495  1.9335 -1.8412  0.0445
 4720TP3      O25978   0.710   4.592   3.234 -1.0700 -0.7015 -1.0371
 4720TP3     H125979   0.705   4.662   3.300 -1.8956 -0.5472 -1.2450
 4720TP3     H225980   0.798   4.600   3.197 -0.6543 -0.6847 -0.0742
 4721TP3      O25981   2.103   4.782   7.468 -0.5015 -0.7106  0.0581
 4721TP3     H125982   2.009   4.797   7.464 -0.6286 -1.6385 -0.8717
 4721TP3     H225983   2.130   4.771   7.376  0.7048  0.6022  0.2170
 4722TP3      O25984   1.561   1.792   9.673 -0.3137 -0.1344 -0.2750
 4722TP3     H125985   1.552   1.727   9.603  0.7522 -1.4258  0.7161
 4722TP3     H225986   1.559   1.739   9.754  2.5226  0.8057  0.5125
 4723TP3      O25987   2.114   3.289   8.766 -0.1272 -0.2339  0.4545
 4723TP3     H125988   2.096   3.360   8.827 -3.0925 -0.6325  0.1847
 4723TP3     H225989   2.185   3.322   8.711 -1.5270  2.6574  0.1974
 4724TP3      O25990   3.681   3.462   0.128 -0.0213  0.1207  0.3174
 4724TP3     H125991   3.656   3.370   0.131 -1.3196  0.4101 -0.6547
 4724TP3     H225992   3.598   3.510   0.135  0.6448  1.2312  0.9810
 4725TP3      O25993   1.408   3.942   9.711  0.1649 -0.2752 -0.0581
 4725TP3     H125994   1.382   3.997   9.637  0.2370  0.4076  0.4128
 4725TP3     H225995   1.331   3.888   9.729 -0.3294  0.4929  0.2030
 4726TP3      O25996   4.609   3.232   2.683  0.0967 -0.3213  0.5190
 4726TP3     H125997   4.573   3.184   2.757 -0.5441 -0.5375  0.0685
 4726TP3     H225998   4.702   3.207   2.681 -0.2234 -1.5316  0.2954
 4727TP3      O25999   0.474   2.746   1.311 -0.3708  0.1216  0.4081
 4727TP3     H126000   0.557   2.707   1.284  0.2270  2.3189 -1.1639
 4727TP3     H226001   0.440   2.686   1.377  0.8608 -2.5704 -1.2326
 4728TP3      O26002   3.947   3.043   0.910 -0.0196  0.9351  0.1218
 4728TP3     H126003   3.891   2.988   0.966  0.3916  1.2096  0.8082
 4728TP3     H226004   3.998   3.095   0.971  1.8060 -0.0963 -0.4664
 4729TP3      O26005   3.867   3.764   2.914 -0.3731  0.0493  0.1367
 4729TP3     H126006   3.861   3.831   2.846 -1.0896  1.2178  1.3033
 4729TP3     H226007   3.789   3.777   2.968  0.6731 -0.1637  1.7782
 4730TP3      O26008   2.028   2.537   1.528 -0.0322 -0.0393  0.2900
 4730TP3     H126009   2.097   2.602   1.538 -0.3157  0.8901 -2.6901
 4730TP3     H226010   1.969   2.554   1.601  0.7381  2.0041  0.5200
 4731TP3      O26011   4.808   2.705   3.173 -0.3453 -0.5162 -0.1159
 4731TP3     H126012   4.821   2.778   3.233  0.4358 -0.2894 -0.5515
 4731TP3     H226013   4.757   2.743   3.101 -0.5509 -0.5751 -0.0003
 4732TP3      O26014   4.361   3.960   6.708 -0.1243 -0.7989 -0.2544
 4732TP3     H126015   4.386   3.981   6.618 -0.7409  0.7468 -0.1015
 4732TP3     H226016   4.427   3.897   6.737  1.3125  0.2364 -1.1194
 4733TP3      O26017   1.476   4.530   6.410  0.2560 -0.4465 -0.4995
 4733TP3     H126018   1.462   4.439   6.440 -1.3813  0.6338  2.4891
 4733TP3     H226019   1.388   4.564   6.396  0.8502  0.7076 -1.5945
 4734TP3      O26020   5.172   1.631   9.483  0.2855  0.7941  0.5653
 4734TP3     H126021   5.180   1.592   9.570  0.8842  0.9312  0.5782
 4734TP3     H226022   5.245   1.592   9.434 -0.6491 -0.0741 -0.1801
 4735TP3      O26023   3.527   2.728   9.398  0.3231  0.4457  0.2882
 4735TP3     H126024   3.516   2.735   9.303 -0.1932 -0.6950  0.2526
 4735TP3     H226025   3.525   2.819   9.428  0.4379  0.8227 -0.7796
 4736TP3      O26026   1.136   1.796   9.186  0.3583  0.0088  0.1646
 4736TP3     H126027   1.147   1.804   9.091  2.4821 -0.0297  0.3622
 4736TP3     H226028   1.052   1.838   9.204  1.4310  3.0627 -1.3309
 4737TP3      O26029   1.803   2.202   8.318  0.0259 -0.1548 -0.4299
 4737TP3     H126030   1.782   2.295   8.306  0.6339  0.0128 -0.2004
 4737TP3     H226031   1.763   2.159   8.242 -0.7125  0.2223 -0.2627
 4738TP3      O26032   1.485   0.181   7.272  0.3766 -0.0722  0.0962
 4738TP3     H126033   1.523   0.254   7.224 -0.3212  1.1832  1.3770
 4738TP3     H226034   1.435   0.222   7.342 -0.7843 -1.7666  0.3139
 4739TP3      O26035   4.731   0.654   8.217 -0.0189 -0.0022 -0.5351
 4739TP3     H126036   4.705   0.637   8.127 -0.0998  0.8390 -0.6741
 4739TP3     H226037   4.690   0.737   8.239 -1.0538 -0.7790  0.6923
 4740TP3      O26038   2.552   2.792   1.476  0.1872  0.1150 -0.2772
 4740TP3     H126039   2.613   2.839   1.419  0.6242 -0.7081 -0.4988
 4740TP3     H226040   2.597   2.787   1.560 -0.0036  0.3770 -0.1564
 4741TP3      O26041   1.038   3.930   8.858 -0.3446  0.6918 -0.0995
 4741TP3     H126042   1.047   4.014   8.902  1.2892  1.0521 -1.0449
 4741TP3     H226043   1.097   3.871   8.905  0.5581  0.7916 -1.0783
 4742TP3      O26044   4.603   3.819   6.731  0.1854  0.0762 -0.1243
 4742TP3     H126045   4.691   3.782   6.735  0.0849 -0.1298  0.2874
 4742TP3     H226046   4.546   3.744   6.716  0.0439  0.1512  0.0318
 4743TP3      O26047   4.048   2.098   9.400  0.8844 -0.1569 -0.8242
 4743TP3     H126048   4.108   2.165   9.431  0.9499 -0.6686  0.1994
 4743TP3     H226049   4.011   2.061   9.480  0.5410 -1.0488 -1.3871
 4744TP3      O26050   0.329   4.232   9.913 -0.5592 -0.4286 -0.3743
 4744TP3     H126051   0.327   4.284   9.833 -0.6819  0.9484  0.4934
 4744TP3     H226052   0.273   4.279   9.974 -2.4801 -2.7375 -0.1986
 4745TP3      O26053   3.033   0.502   8.367  0.2023 -0.5951  0.0105
 4745TP3     H126054   2.957   0.531   8.416  1.4082  0.3310  1.3882
 4745TP3     H226055   3.049   0.412   8.397 -0.6695 -1.0211 -0.7363
 4746TP3      O26056   3.602   4.095   9.112  0.5830 -0.0756 -0.3234
 4746TP3     H126057   3.512   4.069   9.092  1.2186 -1.2571 -1.9087
 4746TP3     H226058   3.618   4.171   9.055  0.5451  0.2466  0.0896
 4747TP3      O26059   3.564   0.270   8.135  0.1481  0.4986 -0.0651
 4747TP3     H126060   3.656   0.278   8.113  0.4294  0.2788  1.0148
 4747TP3     H226061   3.550   0.176   8.148  0.1548  0.6813  1.3633
 4748TP3      O26062   5.097   2.709   3.203 -0.0996  0.5057  0.1492
 4748TP3     H126063   5.005   2.705   3.176 -0.2617  3.4840 -0.1037
 4748TP3     H226064   5.102   2.783   3.263  1.7010 -1.2589  2.3623
 4749TP3      O26065   4.832   0.164  10.094  0.0033 -0.7660  0.6360
 4749TP3     H126066   4.855   0.110  10.018  3.0010  0.6553  0.3566
 4749TP3     H226067   4.799   0.245  10.056 -0.9691 -1.0124  0.9438
 4750TP3      O26068   0.392   2.042   9.693  0.0295  0.0660  0.7963
 4750TP3     H126069   0.383   2.112   9.629 -1.4455  0.2467  1.1680
 4750TP3     H226070   0.486   2.039   9.712  0.3120  0.9132 -0.3419
 4751TP3      O26071   2.302   0.838   1.754 -0.2737  0.2243 -0.3760
 4751TP3     H126072   2.363   0.885   1.697  1.3690 -1.8506 -0.4088
 4751TP3     H226073   2.221   0.832   1.702 -0.0287  1.5741 -0.9727
 4752TP3      O26074   4.605   4.303   8.932  0.1073 -0.5823  0.1973
 4752TP3     H126075   4.656   4.286   9.011 -2.2415 -1.1691  1.6898
 4752TP3     H226076   4.624   4.229   8.874  1.8853 -0.1211  0.1391
 4753TP3      O26077   2.383   4.149   7.052 -0.3498 -0.5000  0.4572
 4753TP3     H126078   2.293   4.119   7.039 -0.3534 -0.5207  0.5298
 4753TP3     H226079   2.375   4.228   7.106 -0.2998 -0.6983  0.7517
 4754TP3      O26080   1.741   4.051   2.370  0.2550 -0.4033 -0.0316
 4754TP3     H126081   1.715   3.967   2.332  2.9803 -0.4032 -2.1612
 4754TP3     H226082   1.796   4.028   2.444  2.7056 -0.6731 -1.8175
 4755TP3      O26083   4.994   2.534  10.015 -0.3960 -0.0578  0.2115
 4755TP3     H126084   4.954   2.614  10.049  0.7539  0.0858  1.2865
 4755TP3     H226085   4.953   2.463  10.065 -0.2913 -0.0276  0.3370
 4756TP3      O26086   4.924   2.818   8.246 -0.6802  0.2437 -0.2263
 4756TP3     H126087   4.951   2.861   8.327  0.8106 -1.0319 -0.0017
 4756TP3     H226088   4.857   2.876   8.210 -0.1149  1.7505  1.0089
 4757TP3      O26089   0.461   0.135   8.401 -0.3570  0.1820 -0.2695
 4757TP3     H126090   0.417   0.212   8.437 -2.2509 -1.1148  0.3462
 4757TP3     H226091   0.488   0.162   8.313 -4.2724  0.4984 -1.5558
 4758TP3      O26092   1.759   4.171   8.391 -0.0732  0.0687 -0.1487
 4758TP3     H126093   1.840   4.124   8.411 -0.5312 -0.5322  0.3193
 4758TP3     H226094   1.689   4.110   8.413 -0.6578  0.2716 -1.3499
 4759TP3      O26095   3.026   1.316   9.693  0.0653 -0.4858 -0.9463
 4759TP3     H126096   3.016   1.386   9.757 -0.0973 -0.8213 -0.5967
 4759TP3     H226097   2.951   1.258   9.710  1.6198 -2.1733  0.5921
 4760TP3      O26098   3.295   1.012   1.249 -0.0437 -0.1433  0.6455
 4760TP3     H126099   3.330   1.047   1.331  1.0046 -0.2871  0.2677
 4760TP3     H226100   3.202   1.000   1.267 -0.1816  1.5499  1.2194
 4761TP3      O26101   5.167   4.514   9.910 -0.3098 -0.3711  0.4333
 4761TP3     H126102   5.258   4.507   9.881 -0.8461 -1.9748 -1.0175
 4761TP3     H226103   5.165   4.467   9.993  0.4834  1.0948  1.3330
 4762TP3      O26104   0.736   1.434   0.716  0.3089 -0.0404 -0.0793
 4762TP3     H126105   0.698   1.518   0.743  0.8496  0.2026 -0.0649
 4762TP3     H226106   0.662   1.385   0.679  0.2935  1.0882 -1.6641
 4763TP3      O26107   5.162   0.130   7.022  0.2234  0.2576  0.7444
 4763TP3     H126108   5.226   0.066   6.992 -0.6222 -0.5542  0.6171
 4763TP3     H226109   5.213   0.209   7.040  1.4969 -0.8059  2.0869
 4764TP3      O26110   0.809   2.366   8.380 -0.1477  0.0471 -0.3780
 4764TP3     H126111   0.749   2.440   8.385 -1.0958 -0.6819 -0.6970
 4764TP3     H226112   0.867   2.387   8.306 -1.2060 -0.0853 -1.2731
 4765TP3      O26113   1.423   2.473   8.579 -0.3609  0.1357 -0.2141
 4765TP3     H126114   1.497   2.427   8.618 -0.4258  0.0145 -0.2327
 4765TP3     H226115   1.354   2.468   8.646 -0.2976  0.3971 -0.1261
 4766TP3      O26116   4.565   4.392   8.306 -0.2335 -0.2975  0.3707
 4766TP3     H126117   4.518   4.339   8.371 -0.2522 -0.6589  0.0625
 4766TP3     H226118   4.568   4.480   8.345 -1.7801 -0.0943  0.0959
 4767TP3      O26119   1.445   2.577   9.192  0.0902 -0.0058 -0.3781
 4767TP3     H126120   1.369   2.621   9.153 -1.1705 -0.7420  1.1374
 4767TP3     H226121   1.491   2.646   9.239  0.3376  0.4363 -1.2546
 4768TP3      O26122   5.040   3.245   1.767  0.2421 -0.0020 -0.0658
 4768TP3     H126123   5.079   3.204   1.845 -1.9790 -2.7921 -0.2320
 4768TP3     H226124   5.049   3.339   1.782  3.7698 -0.4193  1.4262
 4769TP3      O26125   3.314   0.366   1.210  0.0347  0.0568  0.0570
 4769TP3     H126126   3.385   0.354   1.147  1.6819  0.0732  1.7842
 4769TP3     H226127   3.351   0.426   1.275 -2.4621  2.0258 -0.2120
 4770TP3      O26128   3.617   2.726   8.861  0.0254 -0.1449  0.3090
 4770TP3     H126129   3.708   2.696   8.865  0.1108  0.1673  1.0278
 4770TP3     H226130   3.565   2.650   8.888  0.0275 -0.4878 -0.6311
 4771TP3      O26131   1.399   4.803   7.818 -0.5024 -1.0299  0.1160
 4771TP3     H126132   1.325   4.803   7.757 -1.7375 -0.1328  1.5242
 4771TP3     H226133   1.431   4.893   7.815  0.3022 -1.3205 -0.1917
 4772TP3      O26134   0.132   0.329   1.998 -0.1869 -0.4467  0.0798
 4772TP3     H126135   0.135   0.409   2.050 -2.1069 -0.8807  0.9444
 4772TP3     H226136   0.044   0.329   1.959  0.2872 -1.4447 -1.0442
 4773TP3      O26137   3.036   3.898   9.926  0.1914  0.0809  0.0607
 4773TP3     H126138   2.949   3.933   9.905 -0.3842 -2.3987 -2.1206
 4773TP3     H226139   3.090   3.923   9.852  0.3283 -1.6488 -0.4492
 4774TP3      O26140   4.159   2.116   3.032  0.5046 -0.2078 -0.3021
 4774TP3     H126141   4.113   2.100   2.949 -1.0688  0.8509  0.3078
 4774TP3     H226142   4.111   2.063   3.096  2.2249 -1.6901 -0.1444
 4775TP3      O26143   1.112   4.726   8.170  0.1921  0.0928  0.8208
 4775TP3     H126144   1.027   4.681   8.177 -0.1043  0.4724 -0.2060
 4775TP3     H226145   1.141   4.735   8.261 -1.1106  0.4199  1.2308
 4776TP3      O26146   3.604   0.770   8.262 -0.6290  0.3598  0.2852
 4776TP3     H126147   3.548   0.836   8.220  0.6246  1.0286 -0.3863
 4776TP3     H226148   3.585   0.779   8.355 -3.0610 -0.7835 -0.0259
 4777TP3      O26149   2.829   1.939   9.856  0.0432  0.3226 -0.3487
 4777TP3     H126150   2.844   1.970   9.946  0.5445  0.3509 -0.4413
 4777TP3     H226151   2.773   1.862   9.866 -0.9765  1.0765 -0.0967
 4778TP3      O26152   3.362   0.177   8.995  0.2321 -0.2287 -0.1002
 4778TP3     H126153   3.401   0.089   9.000 -0.0592 -0.3822 -0.5741
 4778TP3     H226154   3.325   0.182   8.908  0.5456  0.4968 -0.1986
 4779TP3      O26155   3.006   3.742   8.044 -0.2460  0.0465 -0.6877
 4779TP3     H126156   2.927   3.796   8.035 -0.9426 -0.7359  0.5913
 4779TP3     H226157   3.022   3.710   7.955  0.7029  3.0064 -1.7050
 4780TP3      O26158   3.877   0.882   1.302 -0.0125  0.4107  0.6882
 4780TP3     H126159   3.789   0.868   1.266  0.2604  0.2956  0.0538
 4780TP3     H226160   3.934   0.886   1.225  0.8343 -1.5915  1.1536
 4781TP3      O26161   0.640   4.744   2.349  0.6115  0.0358 -0.0223
 4781TP3     H126162   0.611   4.768   2.437  0.1047  0.9975 -0.4325
 4781TP3     H226163   0.732   4.770   2.347  0.3166  1.1156 -0.1467
 4782TP3      O26164   4.763   4.062   8.415  0.4817  0.7102 -0.2150
 4782TP3     H126165   4.822   4.092   8.484 -0.2001 -0.7526  1.0909
 4782TP3     H226166   4.809   3.988   8.375 -1.2850 -2.2081  2.5542
 4783TP3      O26167   4.158   0.598   9.268 -0.0621  0.6319 -0.2359
 4783TP3     H126168   4.097   0.612   9.341  1.0993  0.0555  0.8898
 4783TP3     H226169   4.233   0.555   9.308  0.9094  0.9253 -1.6727
 4784TP3      O26170   0.891   3.536   6.963  0.5619  0.1977 -0.0651
 4784TP3     H126171   0.908   3.564   7.053  2.5590  0.7563 -0.5832
 4784TP3     H226172   0.850   3.613   6.922  0.6324  0.3121  0.0754
 4785TP3      O26173   1.817   2.690   9.288  0.5055 -0.1724  0.1730
 4785TP3     H126174   1.737   2.735   9.317  1.0849  1.5388 -0.7233
 4785TP3     H226175   1.799   2.597   9.304 -0.4267  0.3742  2.9459
 4786TP3      O26176   0.092   3.743   3.631 -0.3047 -0.2773  0.0820
 4786TP3     H126177   0.170   3.710   3.587  0.3556  0.3588  0.7599
 4786TP3     H226178   0.090   3.836   3.610  0.1155  0.0741  1.5029
 4787TP3      O26179   3.270   4.324   2.544  0.4324  0.3520 -0.0928
 4787TP3     H126180   3.347   4.336   2.599  0.3917 -0.9147  0.2672
 4787TP3     H226181   3.299   4.352   2.457  0.5788  2.1035  0.4923
 4788TP3      O26182   1.965   3.543   9.928 -0.5161 -0.5186 -0.7485
 4788TP3     H126183   2.024   3.515   9.858  0.7487 -0.8627  0.4219
 4788TP3     H226184   2.002   3.625   9.960  0.2559 -1.4784  0.9936
 4789TP3      O26185   1.485   4.631   8.003  0.1363  0.4178  0.4788
 4789TP3     H126186   1.461   4.702   7.944  1.4369  1.6457  1.3689
 4789TP3     H226187   1.413   4.569   7.996  0.4459  0.2225 -2.8169
 4790TP3      O26188   4.291   3.335   7.251 -0.1148  0.4301  0.5212
 4790TP3     H126189   4.291   3.260   7.191 -0.4423  0.9648 -0.1540
 4790TP3     H226190   4.238   3.401   7.207  0.1062  1.0354  1.1520
 4791TP3      O26191   4.311   0.847   1.888 -0.1105  0.3863 -0.4270
 4791TP3     H126192   4.231   0.821   1.842 -1.2120  0.6058  1.2608
 4791TP3     H226193   4.322   0.939   1.866  0.3720  0.0607 -1.6104
 4792TP3      O26194   0.982   4.907   1.511 -0.6074  0.3193  0.0342
 4792TP3     H126195   1.015   4.863   1.589  0.4048  3.5047  1.5768
 4792TP3     H226196   0.887   4.915   1.526 -0.5085  0.3721  0.6575
 4793TP3      O26197   3.510   5.181   9.497  0.4804  0.4664 -0.3338
 4793TP3     H126198   3.519   5.229   9.579  0.3325  2.2431 -1.3129
 4793TP3     H226199   3.551   5.096   9.515 -0.8586  0.2371  1.9975
 4794TP3      O26200   5.087   1.857   7.407  0.1989 -0.6319 -0.0261
 4794TP3     H126201   5.119   1.892   7.490  0.5689 -2.0341  0.4545
 4794TP3     H226202   5.159   1.870   7.346  0.5359 -1.0267  0.2814
 4795TP3      O26203   4.461   1.871   3.347  0.4173  0.0062  0.0254
 4795TP3     H126204   4.377   1.824   3.343  2.0762 -3.4908  1.4293
 4795TP3     H226205   4.499   1.858   3.261  0.1370  0.3526 -0.1547
 4796TP3      O26206   4.109   4.698   0.993  0.3451  0.1470  0.0383
 4796TP3     H126207   4.144   4.638   0.927  1.8073 -0.7437  1.5329
 4796TP3     H226208   4.061   4.641   1.054 -1.2801  0.9944 -0.3952
 4797TP3      O26209   1.714   3.216   9.972  0.0569  0.2416 -1.0346
 4797TP3     H126210   1.749   3.285   9.916  0.0880 -0.1550 -1.5026
 4797TP3     H226211   1.739   3.134   9.929 -0.3665 -0.0586 -0.7210
 4798TP3      O26212   1.171   1.337   7.646  0.0364 -0.2767  0.9990
 4798TP3     H126213   1.103   1.269   7.648  1.6977 -2.0133  1.9713
 4798TP3     H226214   1.146   1.397   7.717 -2.0496  0.8477 -0.5636
 4799TP3      O26215   5.138   1.132   0.323 -0.4091  0.4394 -0.4145
 4799TP3     H126216   5.149   1.039   0.302 -0.3004  0.2110  0.5737
 4799TP3     H226217   5.059   1.134   0.378 -0.4438  0.9410 -0.4823
 4800TP3      O26218   1.619   0.078   8.251  0.0037  0.2758 -0.8303
 4800TP3     H126219   1.701   0.028   8.246  0.5062  0.7470  1.4250
 4800TP3     H226220   1.642   0.156   8.301 -1.4903  1.2245 -1.5630
 4801TP3      O26221   1.806   0.322   3.045 -0.0414  0.3913 -0.6687
 4801TP3     H126222   1.739   0.310   3.113 -1.4185 -1.3354 -2.2346
 4801TP3     H226223   1.837   0.233   3.026  1.1471  0.9581 -1.5227
 4802TP3      O26224   2.405   4.643   7.327  0.0933  0.1570 -0.3950
 4802TP3     H126225   2.345   4.637   7.253  0.9473  0.8014 -1.1628
 4802TP3     H226226   2.471   4.706   7.299  0.3075  0.5956  1.0157
 4803TP3      O26227   2.972   0.855   1.891 -0.6110  0.5477 -0.2759
 4803TP3     H126228   3.048   0.913   1.892  0.2290 -0.5213  0.0205
 4803TP3     H226229   2.913   0.891   1.958  0.9637 -0.2787  1.6421
 4804TP3      O26230   1.987   2.635   2.689 -0.7960  0.3566 -0.0206
 4804TP3     H126231   2.017   2.598   2.772 -0.6813 -2.6050 -1.2440
 4804TP3     H226232   2.042   2.712   2.674  0.4911 -0.1888  1.7044
 4805TP3      O26233   0.251   2.199   1.789  0.1303  0.3056 -0.2263
 4805TP3     H126234   0.213   2.169   1.706  1.3395  0.5793 -0.9010
 4805TP3     H226235   0.221   2.290   1.797 -1.7327 -0.3394  0.7307
 4806TP3      O26236   2.909   4.659   1.959  0.2238  0.0585 -0.2009
 4806TP3     H126237   2.825   4.705   1.959 -0.3885 -1.0156 -0.2361
 4806TP3     H226238   2.967   4.714   2.011 -0.3479  1.0897 -0.6298
 4807TP3      O26239   3.989   3.123   2.978  0.4154 -0.5251 -0.2210
 4807TP3     H126240   4.055   3.068   2.935  0.1783 -0.5723 -0.5264
 4807TP3     H226241   4.021   3.212   2.967 -0.0835 -0.4576 -1.2888
 4808TP3      O26242   1.390   0.148   9.547 -0.8130  0.0779  0.3534
 4808TP3     H126243   1.473   0.133   9.502 -1.2226 -0.7930 -0.1354
 4808TP3     H226244   1.346   0.214   9.494  0.3578  2.0285  1.6811
 4809TP3      O26245   0.387   2.693   2.912 -0.4877 -0.1753  0.5214
 4809TP3     H126246   0.327   2.621   2.892 -0.8475 -0.5714  2.7568
 4809TP3     H226247   0.471   2.666   2.873  0.0378 -3.0487  3.2276
 4810TP3      O26248   2.391   3.780   0.223  0.2073  0.3335  0.3599
 4810TP3     H126249   2.479   3.794   0.189 -0.8929  1.7192 -2.1409
 4810TP3     H226250   2.362   3.866   0.253 -1.3419  0.5914 -1.6631
 4811TP3      O26251   2.051   5.225   9.880 -0.0251 -0.2225  0.1938
 4811TP3     H126252   1.981   5.174   9.921 -0.1237  0.1203  0.4576
 4811TP3     H226253   2.130   5.203   9.931 -0.0750 -0.0817  0.3322
 4812TP3      O26254   1.326   1.772   2.155 -0.1119 -0.1440 -0.0369
 4812TP3     H126255   1.321   1.697   2.095  1.6552 -1.3749  1.2271
 4812TP3     H226256   1.419   1.794   2.158 -0.4062  1.0695  0.8355
 4813TP3      O26257   1.089   3.508   8.778  1.1523 -0.6860 -0.2132
 4813TP3     H126258   1.054   3.485   8.864 -0.3266  1.4485 -0.1692
 4813TP3     H226259   1.172   3.551   8.798 -0.1451  1.6860  0.3938
 4814TP3      O26260   5.084   1.698   1.909  0.1644 -0.3448  0.3965
 4814TP3     H126261   5.108   1.707   2.001 -1.7288 -0.9260  1.0006
 4814TP3     H226262   5.075   1.788   1.878 -0.1645 -0.1335  1.0734
 4815TP3      O26263   5.283   2.032   1.913  0.1030 -0.8923 -0.3912
 4815TP3     H126264   5.345   2.018   1.842 -0.5428  1.7788 -1.6031
 4815TP3     H226265   5.198   2.010   1.875 -0.2620  0.6930 -0.5325
 4816TP3      O26266   4.619   0.940   0.267  0.0540 -0.9840 -0.0517
 4816TP3     H126267   4.556   0.876   0.233 -1.4628  0.7072 -0.6192
 4816TP3     H226268   4.595   1.022   0.223 -0.3451  0.7676  3.1328
 4817TP3      O26269   2.177   2.266   1.272  0.2788  0.2078  0.1461
 4817TP3     H126270   2.121   2.318   1.214  0.6824  2.6699  1.8209
 4817TP3     H226271   2.260   2.312   1.273  0.0128  0.8449  3.3371
 4818TP3      O26272   4.896   0.571   1.635 -0.1389  0.1441  0.7127
 4818TP3     H126273   4.982   0.543   1.665  0.0279  0.4696  0.5448
 4818TP3     H226274   4.911   0.658   1.598 -0.3373 -0.2185 -0.2674
 4819TP3      O26275   2.903   0.858   2.735 -0.3567  0.0696 -0.0417
 4819TP3     H126276   2.927   0.793   2.801 -2.3024  0.1120  0.7870
 4819TP3     H226277   2.938   0.941   2.770 -0.2349 -0.1111  0.2691
 4820TP3      O26278   1.539   1.573   1.431  0.0481 -0.2141 -0.1068
 4820TP3     H126279   1.480   1.517   1.380  0.0664 -0.8051  0.5190
 4820TP3     H226280   1.615   1.584   1.374 -0.4841  0.2232 -0.7535
 4821TP3      O26281   1.428   3.015   0.564  0.1934 -0.1051  0.4720
 4821TP3     H126282   1.353   3.074   0.560  0.9255  0.8702  0.6565
 4821TP3     H226283   1.403   2.948   0.629 -0.5712  0.1094  0.4054
 4822TP3      O26284   5.055   3.740   8.544  0.9040  0.4181 -0.0585
 4822TP3     H126285   5.053   3.822   8.593 -0.9806  0.5850 -0.3405
 4822TP3     H226286   5.024   3.764   8.456  0.0541 -0.6292 -0.0619
 4823TP3      O26287   0.003   2.136   1.179  0.3425 -0.1789  0.3352
 4823TP3     H126288   0.051   2.057   1.151  0.1015  0.2583 -1.3776
 4823TP3     H226289   0.070   2.205   1.179 -0.0390  0.2218 -1.0916
 4824TP3      O26290   4.510   1.401   7.924  0.6765  0.1678  0.3390
 4824TP3     H126291   4.591   1.423   7.970  0.4373  0.2181  0.7379
 4824TP3     H226292   4.479   1.321   7.967 -0.0229  0.7127  0.8824
 4825TP3      O26293   2.607   2.839   8.080 -1.0461 -0.0524  0.5926
 4825TP3     H126294   2.514   2.827   8.057 -1.2225  1.4632  0.4253
 4825TP3     H226295   2.653   2.830   7.996 -1.4058  2.4917  0.0312
 4826TP3      O26296   4.997   5.233   0.474 -0.1591 -0.0007 -0.5433
 4826TP3     H126297   5.076   5.245   0.528  1.6429 -2.0187 -2.5038
 4826TP3     H226298   5.011   5.290   0.399 -1.6384  1.2095  0.0530
 4827TP3      O26299   4.543   0.411   1.449  0.7610  0.5729 -0.4516
 4827TP3     H126300   4.559   0.446   1.537 -1.2572  0.4350  0.0033
 4827TP3     H226301   4.501   0.483   1.402 -0.3966 -0.1468 -0.5340
 4828TP3      O26302   2.083   1.222   8.412  0.4589  0.0935 -0.0942
 4828TP3     H126303   2.132   1.153   8.456 -0.0947  0.4038  1.0546
 4828TP3     H226304   2.135   1.301   8.426  2.1627 -0.3375 -3.1545
 4829TP3      O26305   0.326   0.029   1.836 -0.3396 -0.0769  0.4064
 4829TP3     H126306   0.269  -0.030   1.883 -1.1018 -1.2939 -1.8984
 4829TP3     H226307   0.330  -0.006   1.747 -1.0963  3.4490 -1.2299
 4830TP3      O26308   0.120   1.674   9.120 -0.0367  0.2218  0.3052
 4830TP3     H126309   0.195   1.705   9.070 -1.3839  2.0137 -0.7256
 4830TP3     H226310   0.081   1.606   9.064  1.0660 -1.0951  1.0828
 4831TP3      O26311   0.435   2.612   1.542 -0.1615 -0.4165 -0.6774
 4831TP3     H126312   0.467   2.522   1.536  0.1494 -0.3481 -0.0533
 4831TP3     H226313   0.349   2.604   1.584  0.2504 -0.3392  0.1793
 4832TP3      O26314   0.809   3.380   7.699 -0.1016  0.2622  0.1823
 4832TP3     H126315   0.790   3.393   7.791 -0.7194  0.3550  0.0456
 4832TP3     H226316   0.725   3.395   7.654  0.2083  0.3076 -0.3980
 4833TP3      O26317   5.023   3.539   2.365 -0.0207  0.1789 -0.7885
 4833TP3     H126318   5.119   3.550   2.363 -0.0255  0.4468 -0.0291
 4833TP3     H226319   5.007   3.460   2.314  0.5811  0.3092 -1.1971
 4834TP3      O26320   3.584   2.770   0.075  0.0304 -0.0791  0.0421
 4834TP3     H126321   3.539   2.713   0.012 -1.8260  1.5749 -0.2154
 4834TP3     H226322   3.677   2.763   0.052 -0.4831 -0.4690 -2.0929
 4835TP3      O26323   5.188   2.516   8.293  0.4027  0.3441 -0.3734
 4835TP3     H126324   5.271   2.469   8.304  0.3635 -0.1134 -1.7451
 4835TP3     H226325   5.121   2.451   8.314  0.3801  0.6767  0.6121
 4836TP3      O26326   2.616   2.291   9.099  0.0081  0.6642  0.3358
 4836TP3     H126327   2.582   2.330   9.018 -1.6204  1.3547  1.3065
 4836TP3     H226328   2.632   2.366   9.157  0.2204  0.1177  1.0033
 4837TP3      O26329   3.793   1.823   7.481 -0.3563  0.1184  0.1537
 4837TP3     H126330   3.829   1.824   7.570 -1.0448 -1.3608  0.4724
 4837TP3     H226331   3.859   1.778   7.428 -0.3521  0.2041  0.0840
 4838TP3      O26332   1.165   0.023   1.895  0.0610 -0.3036 -0.0354
 4838TP3     H126333   1.108   0.085   1.850  1.0544 -0.1657 -1.1432
 4838TP3     H226334   1.113  -0.058   1.899 -0.6357  0.1337  0.0173
 4839TP3      O26335   1.388   2.993   9.745 -0.6578  0.9728 -0.3732
 4839TP3     H126336   1.306   2.956   9.711 -1.0706  0.3934  1.1626
 4839TP3     H226337   1.451   2.921   9.741 -1.3265  0.1468  2.1414
 4840TP3      O26338   3.314   4.703   8.010  0.5011  0.1434  0.4725
 4840TP3     H126339   3.361   4.621   7.996 -0.1138 -0.0939 -0.2238
 4840TP3     H226340   3.296   4.705   8.104  1.5974  0.0798  0.6995
 4841TP3      O26341   2.840   0.771   0.613 -0.1588 -0.6369 -0.6051
 4841TP3     H126342   2.753   0.732   0.602 -1.9910  2.3225  1.9723
 4841TP3     H226343   2.848   0.832   0.540  0.3442 -1.7356 -1.5058
 4842TP3      O26344   2.393   4.085   7.825 -0.3504  0.1942  0.3946
 4842TP3     H126345   2.322   4.123   7.773  0.5088  0.6993 -0.4595
 4842TP3     H226346   2.362   4.088   7.915 -0.7019  2.1327  0.2539
 4843TP3      O26347   0.249   3.445   2.462  0.2872 -0.1708  0.1010
 4843TP3     H126348   0.213   3.416   2.378  2.3330  1.2685 -1.3663
 4843TP3     H226349   0.335   3.402   2.468  0.5927  0.5313  0.9751
 4844TP3      O26350   0.851   4.224   3.110  0.6122 -0.0432 -0.1949
 4844TP3     H126351   0.757   4.208   3.119  0.7948 -1.4151 -0.4503
 4844TP3     H226352   0.860   4.271   3.028  0.1372  0.1563 -0.1334
 4845TP3      O26353   4.910   0.176   7.599 -0.0863 -0.1219  0.5449
 4845TP3     H126354   4.957   0.107   7.646  1.4860  0.7011  0.2318
 4845TP3     H226355   4.857   0.218   7.667 -2.9879 -3.0542  0.3590
 4846TP3      O26356   3.107   1.137   1.589 -0.4431 -0.2575  0.7944
 4846TP3     H126357   3.023   1.130   1.544 -0.5334  1.8546  0.5406
 4846TP3     H226358   3.147   1.217   1.553  0.2464  0.5570  3.1824
 4847TP3      O26359   3.107   3.845   8.526 -0.3909 -0.0434  0.1156
 4847TP3     H126360   3.030   3.886   8.486 -0.1421 -0.1337 -0.4559
 4847TP3     H226361   3.147   3.916   8.577 -0.2728  0.2861 -0.4243
 4848TP3      O26362   1.176   3.148   7.695 -0.1858  0.3549  0.7071
 4848TP3     H126363   1.198   3.115   7.782  0.0153  0.3566  0.6598
 4848TP3     H226364   1.218   3.087   7.635  2.2619  1.9383  0.6135
 4849TP3      O26365   3.899   3.470   3.162  0.0337  0.0098  0.4368
 4849TP3     H126366   3.836   3.517   3.108  0.9094  1.3981  0.5848
 4849TP3     H226367   3.931   3.535   3.224  0.9774 -0.8942  0.9284
 4850TP3      O26368   0.441   0.410   1.573 -0.0906  0.4451  0.1254
 4850TP3     H126369   0.431   0.409   1.668 -0.7132  1.5306  0.1024
 4850TP3     H226370   0.387   0.485   1.545  2.0354  1.7092 -0.8453
 4851TP3      O26371   3.358   4.432   8.119  0.0971 -0.1621 -0.0348
 4851TP3     H126372   3.271   4.466   8.144 -0.5805 -1.7788 -0.0651
 4851TP3     H226373   3.338   4.356   8.066  1.5652 -0.5484 -0.0466
 4852TP3      O26374   1.227   3.100   7.939 -0.3022 -0.6640 -0.3622
 4852TP3     H126375   1.149   3.110   7.993  0.9658  1.0138  1.2640
 4852TP3     H226376   1.289   3.054   7.995  0.8937  0.7092 -0.4979
 4853TP3      O26377   0.845   2.656   7.216  0.1304 -0.4569 -0.3747
 4853TP3     H126378   0.889   2.577   7.182  1.2499 -0.1407  0.2721
 4853TP3     H226379   0.917   2.716   7.236 -0.6895  0.5683 -0.4392
 4854TP3      O26380   1.253   4.591   2.006 -0.1169 -0.7306 -0.5266
 4854TP3     H126381   1.287   4.504   1.985 -0.5295 -0.8598 -0.6698
 4854TP3     H226382   1.236   4.632   1.921 -4.1376 -2.1564 -0.6451
 4855TP3      O26383   0.011   1.814   3.445 -0.0456  0.7023 -0.5913
 4855TP3     H126384   0.032   1.902   3.477  1.3121  0.1510  0.0902
 4855TP3     H226385   0.063   1.805   3.365 -0.1066  0.4640 -0.6031
 4856TP3      O26386   4.549   4.987   9.773  0.0039  0.0199  0.9682
 4856TP3     H126387   4.553   4.894   9.753 -0.6294 -0.3239  2.3238
 4856TP3     H226388   4.599   4.997   9.853  2.1826  1.2905 -0.4495
 4857TP3      O26389   4.398   4.238   9.206 -0.3768 -0.3232  0.1428
 4857TP3     H126390   4.394   4.201   9.118 -0.0403  1.1142 -0.4872
 4857TP3     H226391   4.490   4.260   9.219 -0.6097  0.4945  0.4334
 4858TP3      O26392   3.927   5.229   9.600  0.3496  0.4536 -0.0332
 4858TP3     H126393   3.929   5.133   9.593 -0.5506  0.3959  0.3866
 4858TP3     H226394   3.922   5.245   9.694 -2.3845  0.8317 -0.1809
 4859TP3      O26395   2.156   5.199   7.760  0.1554  0.8127 -1.1541
 4859TP3     H126396   2.070   5.212   7.720 -0.4564 -0.4247 -0.3088
 4859TP3     H226397   2.138   5.149   7.840  1.8187 -1.1808 -1.9337
 4860TP3      O26398   4.348   4.473   8.992 -0.1072  0.3392 -0.4128
 4860TP3     H126399   4.383   4.390   8.959 -2.6384 -0.6706 -0.8274
 4860TP3     H226400   4.397   4.490   9.072 -0.1192 -2.0712  0.1774
 4861TP3      O26401   2.477   4.382   1.045  0.3083  0.1378  0.1606
 4861TP3     H126402   2.406   4.317   1.046  1.8118 -1.5794  0.7259
 4861TP3     H226403   2.530   4.360   1.121  0.9595  1.9814  0.2855
 4862TP3      O26404   4.268   4.140   1.913  0.3549 -0.1117 -0.2862
 4862TP3     H126405   4.251   4.153   1.820  0.3520  1.8008 -0.0697
 4862TP3     H226406   4.196   4.185   1.957  2.0932  2.0092  0.6102
 4863TP3      O26407   1.924   3.894   0.004  0.2055  0.8748  0.7917
 4863TP3     H126408   2.017   3.882   0.025 -0.1019  1.1907  2.5583
 4863TP3     H226409   1.924   3.930  -0.084  1.6052 -1.6184 -0.3343
 4864TP3      O26410   3.840   5.020   1.975  0.1681 -0.0095  0.2679
 4864TP3     H126411   3.810   5.006   2.065 -0.5710 -0.3087 -0.0206
 4864TP3     H226412   3.825   5.114   1.959 -0.2704 -0.0816  0.2515
 4865TP3      O26413   2.672   3.399   0.381 -0.7190 -0.1196 -0.8594
 4865TP3     H126414   2.645   3.440   0.462 -0.6811 -0.6944 -0.5502
 4865TP3     H226415   2.598   3.344   0.355 -0.6314 -0.1397 -1.0763
 4866TP3      O26416   0.549   3.783   9.455 -0.0509 -0.7538  0.2392
 4866TP3     H126417   0.598   3.709   9.490 -1.0881 -0.5180  2.3362
 4866TP3     H226418   0.458   3.757   9.460 -0.4612  0.7380  1.2578
 4867TP3      O26419   3.313   0.265   9.647 -0.0127  0.2809 -0.2972
 4867TP3     H126420   3.360   0.194   9.692 -0.2631  0.3392  0.0604
 4867TP3     H226421   3.249   0.219   9.593 -0.4678  0.2413  0.2650
 4868TP3      O26422   1.301   3.832   0.597  0.3642 -0.2804  0.1268
 4868TP3     H126423   1.359   3.759   0.574 -0.4135 -0.6522 -0.7146
 4868TP3     H226424   1.247   3.845   0.519 -0.9590 -0.1959  1.0365
 4869TP3      O26425   2.403   3.330   2.547 -0.3968  0.3571  0.2284
 4869TP3     H126426   2.414   3.317   2.642 -1.4715  1.8530  0.5947
 4869TP3     H226427   2.414   3.243   2.510  2.5152  0.0615  1.4593
 4870TP3      O26428   1.106   4.174   0.031 -0.3528  0.6245  0.1005
 4870TP3     H126429   1.031   4.132  -0.010  0.2096 -0.7118  0.3945
 4870TP3     H226430   1.111   4.260  -0.011 -1.5821  0.4483 -0.4547
 4871TP3      O26431   4.276   5.156   1.470  0.5546 -0.0940  0.1517
 4871TP3     H126432   4.317   5.243   1.466  0.2590  0.0602  0.4249
 4871TP3     H226433   4.209   5.164   1.538 -0.3134 -0.1742 -0.6666
 4872TP3      O26434   3.302   1.719   7.901 -0.1292  0.3786  0.2191
 4872TP3     H126435   3.318   1.697   7.993 -1.2531 -1.3767  0.0501
 4872TP3     H226436   3.388   1.745   7.867  0.7875 -1.2086  1.1989
 4873TP3      O26437   1.279   0.437   1.815 -0.3579 -0.0062 -0.0865
 4873TP3     H126438   1.193   0.476   1.802  0.0723  0.9871 -0.0727
 4873TP3     H226439   1.328   0.504   1.863  0.2942 -0.7218  0.2651
 4874TP3      O26440   5.190   3.899   0.518 -0.2317  0.0861  0.1989
 4874TP3     H126441   5.206   3.817   0.564  1.5086 -0.8026 -1.8248
 4874TP3     H226442   5.264   3.908   0.458 -0.6445  2.8803 -0.0541
 4875TP3      O26443   3.889   4.016   2.765 -0.4483  0.2533  0.0262
 4875TP3     H126444   3.865   4.043   2.854 -0.5705  0.2914 -0.0176
 4875TP3     H226445   3.858   4.088   2.710  0.8766  0.8942  0.0796
 4876TP3      O26446   5.190   2.237   6.490 -0.0367 -0.0968 -0.4298
 4876TP3     H126447   5.247   2.224   6.565 -0.8588 -1.6620 -0.0345
 4876TP3     H226448   5.177   2.331   6.486 -0.1429  0.0045  1.5252
 4877TP3      O26449   0.158   0.096   8.356 -0.1357  0.2908 -0.1309
 4877TP3     H126450   0.180   0.076   8.446  0.9880 -1.0935 -0.6797
 4877TP3     H226451   0.065   0.074   8.349  0.3173 -1.9027  0.1122
 4878TP3      O26452   3.889   1.411   2.280  0.0275  0.3058 -0.4676
 4878TP3     H126453   3.911   1.383   2.369 -1.2866 -1.3097 -0.6179
 4878TP3     H226454   3.840   1.493   2.293 -1.6562 -0.7840  0.4583
 4879TP3      O26455   4.783   2.203   9.366  0.1134 -0.1764 -0.4479
 4879TP3     H126456   4.833   2.174   9.442  1.8892 -2.1817 -2.2636
 4879TP3     H226457   4.721   2.132   9.350 -0.2905  0.2614 -0.8321
 4880TP3      O26458   3.906   2.606   3.678 -0.7029  0.3689  0.4396
 4880TP3     H126459   3.885   2.532   3.735  0.2552  0.2447  0.6513
 4880TP3     H226460   3.983   2.577   3.628 -0.4844  1.1173  0.3239
 4881TP3      O26461   4.975   0.490   7.998  0.3428 -0.0542 -0.0822
 4881TP3     H126462   4.910   0.452   8.057 -1.0436  2.2457 -0.0450
 4881TP3     H226463   5.030   0.545   8.055 -0.0644  0.9929 -0.6755
 4882TP3      O26464   2.911   4.346   2.960 -0.1116 -0.1014 -0.0903
 4882TP3     H126465   2.976   4.286   2.923 -0.9350 -0.8332 -0.4150
 4882TP3     H226466   2.895   4.313   3.048 -1.0919 -0.8332 -0.5167
 4883TP3      O26467   3.245   2.474   1.121  0.0440  0.2807 -0.2413
 4883TP3     H126468   3.188   2.397   1.116  0.4963 -0.1281  0.4714
 4883TP3     H226469   3.323   2.441   1.168 -0.0529  1.3457  0.7011
 4884TP3      O26470   2.674   0.325   1.347  0.1198 -0.2408 -1.0112
 4884TP3     H126471   2.740   0.360   1.288  1.4787 -0.3366  0.3809
 4884TP3     H226472   2.677   0.231   1.333 -0.1682 -0.1886 -1.4079
 4885TP3      O26473   1.283   3.474   0.726 -0.4922 -0.0918 -0.3760
 4885TP3     H126474   1.226   3.535   0.772 -1.6157 -1.1017 -0.3839
 4885TP3     H226475   1.224   3.409   0.689  0.5473 -0.3918 -1.6080
 4886TP3      O26476   1.429   5.051   8.419  0.6085 -0.0927 -0.0940
 4886TP3     H126477   1.459   5.120   8.478 -0.2445 -0.6018  0.9813
 4886TP3     H226478   1.449   4.970   8.464 -0.0370 -0.4964 -0.5061
 4887TP3      O26479   0.891   3.419   1.487  0.3803  0.2229 -0.1501
 4887TP3     H126480   0.889   3.353   1.417 -0.4577  0.4704 -0.3758
 4887TP3     H226481   0.865   3.500   1.444  0.7547  0.5673  0.2652
 4888TP3      O26482   4.403   3.407   2.027  0.4553  0.2100 -0.0936
 4888TP3     H126483   4.462   3.476   2.058 -0.9573  0.7622  1.5100
 4888TP3     H226484   4.321   3.423   2.074 -0.6994 -1.0722 -1.5824
 4889TP3      O26485   3.440   3.165   9.934  0.7227 -0.0460  0.2120
 4889TP3     H126486   3.364   3.167   9.992  0.8529 -0.5198  0.3993
 4889TP3     H226487   3.404   3.186   9.848  0.1710 -1.3925  0.0828
 4890TP3      O26488   0.811   4.084   0.863  0.1405 -0.5840  0.3113
 4890TP3     H126489   0.771   4.055   0.781 -0.7365 -0.6680  0.7511
 4890TP3     H226490   0.748   4.057   0.931 -0.4344  1.7655  0.8069
 4891TP3      O26491   2.740   4.865   2.784  0.1187 -0.1588  0.2126
 4891TP3     H126492   2.675   4.839   2.849 -0.2484  1.9268  0.7579
 4891TP3     H226493   2.689   4.877   2.704  0.1179 -0.0877  0.2243
 4892TP3      O26494   3.388   2.748   0.922 -0.0324 -0.2102  0.0036
 4892TP3     H126495   3.451   2.683   0.953 -0.4189  0.7982  3.3292
 4892TP3     H226496   3.428   2.784   0.843  2.4385 -1.2340  0.6808
 4893TP3      O26497   0.820   2.197   0.138  0.2747 -0.0401 -0.3223
 4893TP3     H126498   0.898   2.162   0.095  0.3115  1.2756 -1.3926
 4893TP3     H226499   0.832   2.292   0.136 -2.1004  0.2995 -2.0100
 4894TP3      O26500   0.396   3.735   0.207  0.0439  0.4508  0.0789
 4894TP3     H126501   0.358   3.677   0.141  1.6909  0.5009 -0.9785
 4894TP3     H226502   0.321   3.767   0.257 -1.0682 -1.1378 -0.4934
 4895TP3      O26503   2.744   2.357   7.053  0.0233 -0.5893  0.1525
 4895TP3     H126504   2.697   2.358   6.970 -0.3449 -0.0592  0.3569
 4895TP3     H226505   2.740   2.448   7.083  0.2383 -0.7575  0.7025
 4896TP3      O26506   4.304   5.152   8.426  0.0838 -0.0733  0.0082
 4896TP3     H126507   4.261   5.135   8.342  0.6628 -0.5554 -0.1925
 4896TP3     H226508   4.287   5.244   8.443  1.4341  0.4818 -1.4869
 4897TP3      O26509   3.536   2.138   9.864 -0.9025 -0.3434  0.1335
 4897TP3     H126510   3.631   2.148   9.865 -0.7557 -1.6242  0.5917
 4897TP3     H226511   3.518   2.075   9.934 -2.1196  0.0987  0.2449
 4898TP3      O26512   1.824   0.125   9.913  0.4024  0.3404  0.2009
 4898TP3     H126513   1.886   0.070   9.961 -0.3579 -0.7951 -0.0818
 4898TP3     H226514   1.856   0.124   9.823  1.6786  2.2556  0.5878
 4899TP3      O26515   1.648   0.921   7.434 -0.0227  0.0431 -0.5661
 4899TP3     H126516   1.618   0.974   7.508 -0.9658 -0.6135 -0.4698
 4899TP3     H226517   1.739   0.949   7.421 -0.0811  0.7146  0.3414
 4900TP3      O26518   4.577   1.493   8.873  0.3393 -0.2431 -0.6320
 4900TP3     H126519   4.623   1.522   8.952 -0.3424 -0.2498 -0.2220
 4900TP3     H226520   4.627   1.532   8.801  0.3037  0.7253 -0.1556
 4901TP3      O26521   3.865   2.701   0.005 -0.5229  0.4926  0.0091
 4901TP3     H126522   3.941   2.683   0.061 -0.6374 -0.5384 -0.1442
 4901TP3     H226523   3.892   2.775  -0.049  0.9103 -0.6761 -0.9765
 4902TP3      O26524   0.916   4.214   6.847 -0.6953 -0.1398 -0.2105
 4902TP3     H126525   0.880   4.126   6.840 -0.1197 -0.4059  0.1500
 4902TP3     H226526   0.961   4.229   6.765  0.0490 -0.5629  0.1147
 4903TP3      O26527   4.077   0.011   1.213  0.4061 -0.1362  0.2709
 4903TP3     H126528   4.143   0.074   1.241 -0.2208 -0.3175  2.3651
 4903TP3     H226529   4.030   0.056   1.142  0.3053  1.5899  1.3525
 4904TP3      O26530   2.825   3.224   2.174 -0.1642 -0.0212  0.2303
 4904TP3     H126531   2.761   3.252   2.240  0.2632  0.1717  0.5673
 4904TP3     H226532   2.790   3.141   2.140 -1.2618  0.7041 -0.5126
 4905TP3      O26533   0.674   2.797   2.472  0.2119  0.4557 -0.6053
 4905TP3     H126534   0.718   2.808   2.556  0.1577  0.4953 -0.5823
 4905TP3     H226535   0.692   2.706   2.448  1.4532  0.8489 -1.2426
 4906TP3      O26536   0.109   2.422   8.591  0.1858  0.2377  0.0074
 4906TP3     H126537   0.157   2.465   8.662  1.0923  0.9118 -0.9839
 4906TP3     H226538   0.028   2.473   8.583  1.4451  2.1706 -1.4593
 4907TP3      O26539   4.286   4.089   1.652  0.3808 -0.3591 -0.1192
 4907TP3     H126540   4.294   4.137   1.570  1.3717 -1.8535 -0.9495
 4907TP3     H226541   4.372   4.095   1.693  0.4063 -1.0638 -0.0488
 4908TP3      O26542   0.692   4.132   9.680 -0.4452  0.5541 -0.4868
 4908TP3     H126543   0.685   4.220   9.717 -1.5347 -0.3182  1.5846
 4908TP3     H226544   0.603   4.109   9.655 -0.4913 -0.5650  0.6050
 4909TP3      O26545   4.741   3.669   8.693 -0.1952  0.0251 -0.4234
 4909TP3     H126546   4.746   3.764   8.703  0.6612 -0.0340 -0.1846
 4909TP3     H226547   4.736   3.656   8.599  2.0988  0.2457 -0.6232
 4910TP3      O26548   2.665   4.749   3.592 -0.1208 -0.0642  0.0347
 4910TP3     H126549   2.646   4.789   3.677 -0.6219  0.7463 -0.4363
 4910TP3     H226550   2.587   4.699   3.570  0.7523 -1.8978  0.9153
 4911TP3      O26551   4.058   2.432   8.798  0.2960  0.0663 -0.0370
 4911TP3     H126552   4.032   2.439   8.706 -3.1866  1.1219  0.8498
 4911TP3     H226553   4.020   2.350   8.828  2.5887 -0.9636  0.2074
 4912TP3      O26554   4.653   4.468   2.048 -0.0183  0.2303 -0.2208
 4912TP3     H126555   4.704   4.532   2.097 -2.1823  0.8761  1.3251
 4912TP3     H226556   4.592   4.520   1.996 -1.4358 -0.5275  0.6270
 4913TP3      O26557   4.218   1.740   2.407  0.0556  0.8017  0.0893
 4913TP3     H126558   4.211   1.770   2.317 -1.5227  1.3583  0.3633
 4913TP3     H226559   4.161   1.663   2.412 -1.2989  1.8065  0.9897
 4914TP3      O26560   4.095   4.719   1.466 -0.1269 -0.3121 -0.4300
 4914TP3     H126561   4.078   4.730   1.372  1.4163 -0.1341 -0.7162
 4914TP3     H226562   4.026   4.770   1.509  0.9097  2.1852 -1.5397
 4915TP3      O26563   1.836   4.267   0.317  0.4914 -0.5621  0.0329
 4915TP3     H126564   1.830   4.350   0.363  1.0650 -0.0455 -0.7836
 4915TP3     H226565   1.763   4.215   0.351  0.6282 -0.0427  1.1621
 4916TP3      O26566   2.927   2.313   9.453 -0.0943  0.2634 -0.4423
 4916TP3     H126567   2.901   2.350   9.369  0.8316 -0.9028 -1.2704
 4916TP3     H226568   2.978   2.383   9.494  3.4787 -0.5935 -2.8940
 4917TP3      O26569   0.414   2.519   8.178 -0.1546  0.0433 -0.4384
 4917TP3     H126570   0.472   2.587   8.145 -1.5803  0.6006 -1.8908
 4917TP3     H226571   0.334   2.529   8.128 -0.8355 -1.9475  0.1654
 4918TP3      O26572   3.227   4.642   3.247 -0.5301  0.6374  0.4823
 4918TP3     H126573   3.144   4.595   3.254 -0.4914  0.2379 -1.2766
 4918TP3     H226574   3.204   4.727   3.209 -0.1172  0.3889 -0.3542
 4919TP3      O26575   0.634   5.039   2.252  0.1700  0.2912  0.1486
 4919TP3     H126576   0.722   5.075   2.238  0.5684 -0.9240 -0.6038
 4919TP3     H226577   0.590   5.051   2.169  0.0706 -0.2917  0.1135
 4920TP3      O26578   2.222   0.251   3.356  0.1204  0.4324 -0.7336
 4920TP3     H126579   2.144   0.278   3.307 -0.0081 -0.8262 -1.2721
 4920TP3     H226580   2.260   0.181   3.303  2.1336  1.5972 -0.9308
 4921TP3      O26581   3.744   4.280   0.251 -0.2546  0.4074  0.4125
 4921TP3     H126582   3.665   4.263   0.199  0.1715  0.2666 -0.1997
 4921TP3     H226583   3.793   4.198   0.249 -0.3280  0.3360  1.2183
 4922TP3      O26584   3.834   4.290   2.694 -0.5797 -0.4071  0.1572
 4922TP3     H126585   3.874   4.295   2.607 -0.3347 -3.1317  0.0505
 4922TP3     H226586   3.900   4.327   2.752 -0.2212  0.2537 -0.6331
 4923TP3      O26587   3.652   2.102   0.351 -0.4217  0.0582 -0.0820
 4923TP3     H126588   3.629   2.107   0.258  0.5523 -0.7325 -0.3877
 4923TP3     H226589   3.689   2.188   0.371  2.5454 -0.7854 -1.3761
 4924TP3      O26590   5.229   3.474   1.231 -0.5436  0.1358  0.5170
 4924TP3     H126591   5.142   3.435   1.223 -0.3545 -0.2156  0.1471
 4924TP3     H226592   5.258   3.449   1.319 -0.0039 -1.4541 -0.0771
 4925TP3      O26593   4.004   4.187   2.030  0.6541  0.1341 -0.4087
 4925TP3     H126594   3.960   4.104   2.012  1.3380  0.3834 -3.8979
 4925TP3     H226595   3.953   4.252   1.981  0.7832  1.6442  1.3526
 4926TP3      O26596   0.605   3.255  10.102  0.8033 -0.8451  0.7173
 4926TP3     H126597   0.669   3.188  10.125 -1.0939 -2.8425  0.5171
 4926TP3     H226598   0.590   3.242  10.009  2.4829  1.8336 -0.0237
 4927TP3      O26599   0.935   1.489   2.158  0.7428  0.2268  0.4675
 4927TP3     H126600   0.885   1.434   2.217 -0.3061 -0.1458 -0.7384
 4927TP3     H226601   1.003   1.431   2.122  0.4794  0.0741  0.2161
 4928TP3      O26602   0.906   4.997   8.471  0.0775 -0.3310 -0.1761
 4928TP3     H126603   0.994   5.007   8.434  1.0913  0.9735  2.3083
 4928TP3     H226604   0.848   5.035   8.406  1.4994 -0.0416 -1.3334
 4929TP3      O26605   4.990   2.061   8.891  0.4269 -0.3721  0.2785
 4929TP3     H126606   5.048   2.007   8.837  1.0455  0.4677  0.0813
 4929TP3     H226607   5.048   2.126   8.931 -0.4265  0.7920 -0.3044
 4930TP3      O26608   2.489   5.054   3.615  0.3347  0.3041 -0.4327
 4930TP3     H126609   2.524   5.136   3.579  0.5844  0.2765 -0.2493
 4930TP3     H226610   2.437   5.017   3.544 -0.9313  1.3107 -0.0920
 4931TP3      O26611   3.014   2.941   3.377  0.4009 -0.5615  0.3818
 4931TP3     H126612   3.066   3.006   3.328  0.2373 -0.6935  0.0330
 4931TP3     H226613   2.945   2.993   3.418 -1.2830 -0.8085 -1.9567
 4932TP3      O26614   3.741   4.586   9.648  0.4267 -0.9038 -0.4442
 4932TP3     H126615   3.706   4.527   9.715  1.8263 -1.4005 -0.1114
 4932TP3     H226616   3.715   4.546   9.565 -0.2240 -0.9856 -0.2009
 4933TP3      O26617   1.622   0.688   7.273 -0.2297  0.1812  0.3692
 4933TP3     H126618   1.624   0.769   7.324  0.2993  0.3744  0.0511
 4933TP3     H226619   1.538   0.690   7.228 -0.1852  0.6027  0.2942
 4934TP3      O26620   4.461   2.806   2.775  0.1976 -0.2399 -0.5987
 4934TP3     H126621   4.511   2.860   2.714  1.8646 -1.7593 -0.6483
 4934TP3     H226622   4.419   2.869   2.834  0.2015  1.1712 -2.0342
 4935TP3      O26623   0.431   1.400   2.655  0.3159 -0.2644 -0.8102
 4935TP3     H126624   0.430   1.445   2.571 -0.4406 -0.6248 -1.0017
 4935TP3     H226625   0.453   1.468   2.719 -1.0153  0.4418 -1.0633
 4936TP3      O26626   4.845   4.468  10.122  0.3018 -0.3391  0.7378
 4936TP3     H126627   4.894   4.525  10.062 -1.7497 -0.1002 -0.8367
 4936TP3     H226628   4.793   4.528  10.175 -1.3097 -0.6222 -0.4222
 4937TP3      O26629   0.871   3.152   0.951 -0.1612 -0.2525  0.3033
 4937TP3     H126630   0.933   3.088   0.986 -0.6243  0.1107  1.8763
 4937TP3     H226631   0.788   3.105   0.949  0.0592 -0.6183 -1.4375
 4938TP3      O26632   1.718   3.992   2.035 -0.1044 -0.2240  0.6082
 4938TP3     H126633   1.735   3.964   1.945 -0.7467  0.7596  0.1571
 4938TP3     H226634   1.635   3.951   2.059  0.1113 -0.5571  0.7820
 4939TP3      O26635   4.485   0.930   2.209  0.0903  0.0923  0.2186
 4939TP3     H126636   4.493   0.996   2.279  1.3995  1.7562 -1.4006
 4939TP3     H226637   4.547   0.959   2.142 -1.7453 -0.9070 -2.0494
 4940TP3      O26638   2.531   0.350   0.531  0.4110  0.2917  0.4299
 4940TP3     H126639   2.466   0.281   0.521 -1.8390  2.6150 -3.1001
 4940TP3     H226640   2.613   0.303   0.546 -1.4924 -2.8843  2.0944
 4941TP3      O26641   0.134   0.792  10.025  0.1186  0.3783  0.6502
 4941TP3     H126642   0.172   0.763   9.943 -1.2962 -0.8250  0.3770
 4941TP3     H226643   0.193   0.758  10.093  0.9408  0.8224  0.1602
 4942TP3      O26644   3.218   2.020   0.164 -0.4449  0.0734  0.0214
 4942TP3     H126645   3.298   2.071   0.177 -2.4259  3.3014  0.7643
 4942TP3     H226646   3.221   1.952   0.231  0.7524  1.4366  1.4274
 4943TP3      O26647   1.865   2.766   1.426  0.2385  0.0361 -0.5973
 4943TP3     H126648   1.843   2.811   1.344  3.4515  2.8559 -0.1286
 4943TP3     H226649   1.905   2.684   1.397 -1.2811 -0.3663 -1.6920
 4944TP3      O26650   0.967   3.013   0.505  0.5083 -0.0022  0.0898
 4944TP3     H126651   0.874   3.035   0.500  0.6314  1.1306  1.8022
 4944TP3     H226652   0.991   3.031   0.596  2.5096  0.1965 -0.4219
 4945TP3      O26653   2.652   0.546   2.442 -0.0649  0.2024 -0.0766
 4945TP3     H126654   2.727   0.601   2.465 -2.1419  3.6163 -0.7317
 4945TP3     H226655   2.613   0.590   2.366 -3.2138 -0.8415  0.8069
 4946TP3      O26656   2.952   1.872   8.892  0.1882  0.8258  0.2676
 4946TP3     H126657   2.988   1.823   8.966 -2.4703 -1.5321  0.1522
 4946TP3     H226658   2.908   1.947   8.931  2.0819  1.7986  0.6608
 4947TP3      O26659   1.436   2.938   1.132  0.1333  0.1425 -0.3024
 4947TP3     H126660   1.355   2.942   1.182  0.2307 -1.6746  0.0696
 4947TP3     H226661   1.442   3.023   1.089 -0.2026  1.6450  2.3585
 4948TP3      O26662   1.452   1.940   0.644 -0.3702 -0.2524 -0.1787
 4948TP3     H126663   1.513   2.013   0.644 -0.1658 -0.4199 -0.0948
 4948TP3     H226664   1.366   1.980   0.655 -0.3848  0.0748 -1.4180
 4949TP3      O26665   2.465   0.561   1.738  0.5200 -0.2821  0.1123
 4949TP3     H126666   2.415   0.520   1.807 -0.3068 -0.6945 -0.7154
 4949TP3     H226667   2.524   0.492   1.707  1.0700 -0.0230  0.5695
 4950TP3      O26668   3.193   1.538  10.034 -0.3202 -0.1110 -0.4664
 4950TP3     H126669   3.241   1.487   9.969  0.1597  0.6046 -0.6875
 4950TP3     H226670   3.203   1.488  10.115  1.8599  0.6037 -0.2193
 4951TP3      O26671   2.445   0.283   1.626  1.0088  0.2015 -0.0411
 4951TP3     H126672   2.467   0.352   1.564 -1.5773  0.3948 -0.8735
 4951TP3     H226673   2.436   0.204   1.572 -0.6149  0.2297  0.1374
 4952TP3      O26674   0.317   4.447   2.805  0.1125 -0.2695 -0.1472
 4952TP3     H126675   0.253   4.509   2.840 -2.2317 -1.4127 -2.1298
 4952TP3     H226676   0.303   4.367   2.856  0.5046 -0.3077 -0.0963
 4953TP3      O26677   4.828   0.484   0.790 -0.2433  0.0743 -0.8582
 4953TP3     H126678   4.797   0.454   0.875  0.6767 -0.1995 -0.6071
 4953TP3     H226679   4.906   0.536   0.810 -1.0056  1.4862 -1.3992
 4954TP3      O26680   2.034   0.375   3.196 -0.6569 -0.1494  0.0480
 4954TP3     H126681   2.021   0.446   3.259  0.8334 -0.0862  0.3304
 4954TP3     H226682   1.947   0.358   3.160 -1.8735 -1.0914  3.0963
 4955TP3      O26683   2.220   1.767   1.931 -0.3703 -0.5479  0.0939
 4955TP3     H126684   2.166   1.752   2.009  0.8660 -1.2082  0.8642
 4955TP3     H226685   2.231   1.680   1.892  0.7027 -0.5530  0.3616
 4956TP3      O26686   0.984   1.537   3.168  0.3865  0.1786  0.8218
 4956TP3     H126687   1.026   1.615   3.205 -0.1025  0.2169  1.3249
 4956TP3     H226688   0.911   1.519   3.228 -1.1751  0.9432 -0.7464
 4957TP3      O26689   4.246   5.280  10.079  0.3251 -0.1457  0.1590
 4957TP3     H126690   4.225   5.235   9.997  0.0886 -2.4886  1.3996
 4957TP3     H226691   4.174   5.257  10.138  0.9432  0.7248  1.2870
 4958TP3      O26692   3.404   4.797   0.172  0.1548  0.1519 -0.1197
 4958TP3     H126693   3.491   4.781   0.136  0.3990 -0.0716  0.5498
 4958TP3     H226694   3.420   4.815   0.265 -0.3967  1.3439 -0.2332
 4959TP3      O26695   0.194   3.400   7.820  0.0556 -0.0153 -0.5447
 4959TP3     H126696   0.213   3.481   7.867  0.7061  0.0225 -0.8668
 4959TP3     H226697   0.102   3.408   7.794 -0.2162  0.1012  0.4360
 4960TP3      O26698   4.904   1.770   8.543  0.0111 -0.0317 -0.7501
 4960TP3     H126699   4.923   1.709   8.472  0.5089 -0.8253  0.0387
 4960TP3     H226700   4.813   1.751   8.566 -0.9030  1.7537 -2.5967
 4961TP3      O26701   3.443   1.728   1.983 -0.0020 -0.0651  0.5586
 4961TP3     H126702   3.432   1.822   2.001 -1.4393 -0.2857  0.9427
 4961TP3     H226703   3.444   1.722   1.888  2.9648  0.6087  0.4443
 4962TP3      O26704   2.308   0.999   3.278 -0.4699 -0.0930  0.6324
 4962TP3     H126705   2.364   0.963   3.346  0.0072  0.7704  0.7034
 4962TP3     H226706   2.237   1.042   3.325  0.2264  1.1071  0.6286
 4963TP3      O26707   4.181   0.407   0.639 -0.2995 -0.2093 -0.4691
 4963TP3     H126708   4.233   0.383   0.563 -1.5746 -0.8746 -1.1623
 4963TP3     H226709   4.122   0.476   0.607  0.6581  1.1158  0.5069
 4964TP3      O26710   0.519   1.674   7.943 -0.3232  0.0111 -0.5452
 4964TP3     H126711   0.592   1.715   7.897 -2.8554  2.7534 -2.4900
 4964TP3     H226712   0.535   1.580   7.933  2.3632  0.5089 -1.7729
 4965TP3      O26713   1.387   1.027   0.051 -0.1413  0.1144 -0.2955
 4965TP3     H126714   1.306   0.983   0.027 -0.6242  0.9497 -0.2419
 4965TP3     H226715   1.450   0.956   0.065 -0.7756 -0.5278 -0.6401
 4966TP3      O26716   4.781   3.122   9.752  0.6984  0.2654  0.1214
 4966TP3     H126717   4.872   3.140   9.776  0.7254 -2.2015  2.3281
 4966TP3     H226718   4.733   3.128   9.834 -0.9256  0.2069 -0.7803
 4967TP3      O26719   0.943   1.507   9.836  0.0727  0.0254  0.1624
 4967TP3     H126720   1.038   1.520   9.842  0.4356 -1.7723 -0.7988
 4967TP3     H226721   0.931   1.414   9.858 -1.4549  0.2192  0.2020
 4968TP3      O26722   0.498   2.483   6.962  0.5660 -0.2894 -0.4567
 4968TP3     H126723   0.417   2.508   6.918  0.2394 -1.0107 -0.2846
 4968TP3     H226724   0.533   2.564   6.998  0.5346  0.2225 -1.5432
 4969TP3      O26725   3.993   2.734   2.263  0.3316  0.1033  0.4164
 4969TP3     H126726   3.929   2.706   2.329  1.6211 -0.6361  1.3913
 4969TP3     H226727   3.981   2.829   2.258 -1.3257 -0.0885  0.0331
 4970TP3      O26728   0.183   0.146   9.093  0.0919 -0.0332 -0.3685
 4970TP3     H126729   0.245   0.219   9.086 -0.9381  0.7629 -1.7025
 4970TP3     H226730   0.117   0.165   9.027 -0.6565 -1.7613 -0.1594
 4971TP3      O26731   4.598   4.347   6.763 -0.6106 -0.0150 -0.1995
 4971TP3     H126732   4.620   4.257   6.738 -0.1131  0.3804 -1.2493
 4971TP3     H226733   4.665   4.401   6.720 -1.2271  0.9010 -0.0473
 4972TP3      O26734   0.841   4.322   1.170 -0.1185 -0.1790 -0.0040
 4972TP3     H126735   0.925   4.275   1.166 -1.7635 -3.3041 -1.1902
 4972TP3     H226736   0.805   4.301   1.256 -0.4158 -0.2024 -0.1337
 4973TP3      O26737   2.474   4.010   1.315 -0.0920 -0.1203  0.0072
 4973TP3     H126738   2.448   3.921   1.339 -0.6421  0.1257  0.3336
 4973TP3     H226739   2.476   4.010   1.219 -0.1313 -0.4668  0.0061
 4974TP3      O26740   3.960   2.049   2.825  0.4695  0.0867  0.5462
 4974TP3     H126741   3.954   2.130   2.775 -0.1472  1.3492  2.5676
 4974TP3     H226742   3.869   2.019   2.831  0.4733  0.2351  1.3557
 4975TP3      O26743   5.086   4.928   2.893  0.5579 -0.0156 -0.3227
 4975TP3     H126744   5.125   4.955   2.976  3.0467 -1.6927 -0.8548
 4975TP3     H226745   5.143   4.859   2.860 -0.5213  0.3466 -3.2972
 4976TP3      O26746   3.619   4.243   1.669  0.0977  0.1844  0.0017
 4976TP3     H126747   3.628   4.327   1.623  1.4206  0.7373  1.2062
 4976TP3     H226748   3.619   4.177   1.599  2.7192  0.9397 -0.8159
 4977TP3      O26749   1.572   1.066   7.652  0.8880  0.1978 -0.1431
 4977TP3     H126750   1.591   0.992   7.710  0.1950 -0.4594 -0.7268
 4977TP3     H226751   1.571   1.142   7.710  1.4293 -0.2750  0.5005
 4978TP3      O26752   2.230   2.893   8.976  0.1170  0.8246  0.1163
 4978TP3     H126753   2.179   2.813   8.974 -2.0561  1.9941  2.5030
 4978TP3     H226754   2.224   2.928   8.887  0.3324 -1.1336 -0.7152
 4979TP3      O26755   1.252   3.778   2.693 -0.2837  0.6121  0.2071
 4979TP3     H126756   1.286   3.830   2.620  0.0318 -0.1192 -0.1680
 4979TP3     H226757   1.261   3.836   2.769  0.0269  1.1229 -0.2079
 4980TP3      O26758   2.544   0.083   8.537 -0.4602  0.1369  0.4014
 4980TP3     H126759   2.634   0.114   8.527  0.0489 -1.3706 -0.0286
 4980TP3     H226760   2.496   0.159   8.570  1.1107  0.7643  1.3704
 4981TP3      O26761   3.178   2.771   8.612 -0.5166 -0.0805  0.3515
 4981TP3     H126762   3.191   2.681   8.639 -0.6448 -0.4156 -0.6626
 4981TP3     H226763   3.114   2.806   8.674 -0.7171 -0.7805  0.5493
 4982TP3      O26764   2.810   2.175   2.225  0.3057  0.4647 -0.9623
 4982TP3     H126765   2.870   2.120   2.276 -0.2645 -0.1114 -0.8977
 4982TP3     H226766   2.839   2.264   2.242  1.9902  0.1538 -1.9869
 4983TP3      O26767   3.539   4.020   7.880  0.1264  0.0416  0.1393
 4983TP3     H126768   3.535   4.029   7.975 -2.3108  1.5183  0.0022
 4983TP3     H226769   3.447   4.009   7.854  0.6490  0.4785 -2.0856
 4984TP3      O26770   3.784   3.500   7.362 -0.2638 -0.5711 -0.5549
 4984TP3     H126771   3.842   3.565   7.403 -0.9411  0.7886 -1.6654
 4984TP3     H226772   3.838   3.458   7.295 -0.5676  0.8512 -1.7410
 4985TP3      O26773   4.762   3.439   8.060  0.5626 -0.9569 -0.4211
 4985TP3     H126774   4.760   3.403   7.971  2.2811  0.0414 -0.9180
 4985TP3     H226775   4.820   3.381   8.109  0.0693 -1.1783 -0.0857
 4986TP3      O26776   3.523   0.380   2.979  0.0322 -0.1842  0.0459
 4986TP3     H126777   3.456   0.375   3.047  0.6886 -0.1429  0.7115
 4986TP3     H226778   3.536   0.290   2.952  1.1115 -0.4480  1.3354
 4987TP3      O26779   3.100   3.046   8.310 -0.0513  0.6573 -0.0596
 4987TP3     H126780   3.187   3.013   8.285 -0.3884  1.2811 -2.2073
 4987TP3     H226781   3.112   3.140   8.320 -0.5471  0.7810 -0.6354
 4988TP3      O26782   4.290   0.977   8.703  0.0447  0.0521  0.3620
 4988TP3     H126783   4.327   0.934   8.779  0.6793 -0.3647 -0.1695
 4988TP3     H226784   4.364   1.025   8.664 -0.3584  0.5750  0.2256
 4989TP3      O26785   0.721   4.276   7.536  0.1837  0.2878  0.3636
 4989TP3     H126786   0.702   4.209   7.471  1.3854  1.5894 -1.4590
 4989TP3     H226787   0.778   4.338   7.489  0.0800  1.9442  2.3025
 4990TP3      O26788   4.787   3.731   9.457 -0.3248 -0.7529 -0.7957
 4990TP3     H126789   4.752   3.812   9.419 -0.5425 -0.1489  0.6295
 4990TP3     H226790   4.830   3.759   9.537  0.9155 -1.8732 -1.0308
 4991TP3      O26791   3.697   0.957   2.113  0.3069  0.2984 -0.1202
 4991TP3     H126792   3.782   0.939   2.152  0.1110  1.0946  0.7110
 4991TP3     H226793   3.638   0.967   2.187 -0.3142  0.7096 -0.6540
 4992TP3      O26794   0.980   0.624   0.504  0.0732 -0.0546 -0.5356
 4992TP3     H126795   0.934   0.653   0.583  0.8431 -1.7091  0.5647
 4992TP3     H226796   1.032   0.699   0.478  0.2421  0.3481  0.8685
 4993TP3      O26797   4.489   1.980   3.597  0.2948  0.1437  0.3045
 4993TP3     H126798   4.516   1.950   3.511  2.0595 -1.3083  1.2828
 4993TP3     H226799   4.546   1.932   3.658 -1.9339 -0.0716  2.3703
 4994TP3      O26800   2.160   3.945   1.356 -0.7062 -0.2502 -0.3195
 4994TP3     H126801   2.204   4.022   1.318 -1.5656 -0.9337 -2.9327
 4994TP3     H226802   2.080   3.936   1.304 -1.2904 -2.1325  0.8333
 4995TP3      O26803   3.080   3.954   9.377 -0.4871  0.0815 -0.3930
 4995TP3     H126804   3.070   3.930   9.285 -1.3370  0.6954 -0.4720
 4995TP3     H226805   3.139   4.029   9.376  0.5371 -0.7028 -0.3169
 4996TP3      O26806   3.738   5.256   0.534 -0.2457  0.3400  0.6903
 4996TP3     H126807   3.706   5.199   0.464  1.0692  1.1732 -0.6218
 4996TP3     H226808   3.757   5.196   0.606  1.4393 -0.9710 -0.7782
 4997TP3      O26809   3.747   1.686   8.194 -0.0470  0.2397  0.1058
 4997TP3     H126810   3.804   1.639   8.134  2.5855  2.3735  0.7337
 4997TP3     H226811   3.699   1.618   8.241  0.8156 -1.5947 -1.5585
 4998TP3      O26812   3.354   2.939   2.940  1.1492  0.2994  0.2987
 4998TP3     H126813   3.268   2.926   2.900  2.1066  0.3618 -1.8849
 4998TP3     H226814   3.334   2.962   3.031 -1.1428  0.4513 -0.1769
 4999TP3      O26815   3.359   2.189   0.541  0.0229  0.5151  0.3818
 4999TP3     H126816   3.429   2.220   0.598  0.2346 -1.7262  1.4281
 4999TP3     H226817   3.405   2.162   0.460  0.5037 -1.3401  1.2168
 5000TP3      O26818   3.972   1.366   1.363  0.5285 -0.1088  0.5580
 5000TP3     H126819   3.904   1.321   1.313  1.0689  0.8967 -1.1944
 5000TP3     H226820   4.054   1.323   1.337  0.6472 -0.9172  2.1853
 5001TP3      O26821   0.636   0.512   1.442 -0.4170  0.3041 -0.2219
 5001TP3     H126822   0.568   0.452   1.472  0.2102 -0.0947  0.4405
 5001TP3     H226823   0.591   0.571   1.382 -1.6384  0.8676  1.1795
 5002TP3      O26824   3.844   3.139   8.398 -0.4282 -0.5236 -0.1257
 5002TP3     H126825   3.869   3.215   8.451 -0.5603 -0.7032  0.1927
 5002TP3     H226826   3.910   3.136   8.329 -0.4660 -0.0705 -0.1859
 5003TP3      O26827   3.685   3.370   7.997 -0.1034 -0.2491 -0.0670
 5003TP3     H126828   3.705   3.412   7.913 -0.2688 -0.7564 -0.3593
 5003TP3     H226829   3.608   3.418   8.029 -0.7442 -0.8036 -0.7506
 5004TP3      O26830   3.057   1.014   6.757  0.3950 -0.3646  0.1329
 5004TP3     H126831   3.012   1.065   6.690 -0.4321 -0.2094  0.7895
 5004TP3     H226832   3.033   1.056   6.840  0.5187 -1.1950  0.6086
 5005TP3      O26833   2.033   2.348   7.987 -0.2420 -0.3840  0.3858
 5005TP3     H126834   1.971   2.420   8.004  0.5691  0.3284  0.3828
 5005TP3     H226835   1.979   2.279   7.948 -1.2123 -0.1359  1.2210
 5006TP3      O26836   4.724   2.709   7.494  0.1642  0.2129  0.4386
 5006TP3     H126837   4.805   2.736   7.538  1.6307 -1.7991 -0.8819
 5006TP3     H226838   4.728   2.751   7.409  0.4491 -0.8414 -0.0835
 5007TP3      O26839   4.362   4.474   6.690 -0.4011 -0.2357  0.3273
 5007TP3     H126840   4.445   4.435   6.718  0.0772  0.2624 -0.3307
 5007TP3     H226841   4.320   4.406   6.638 -0.6393 -0.6670  1.0813
 5008TP3      O26842   2.345   1.794   1.586 -0.2113 -0.6164  0.2325
 5008TP3     H126843   2.298   1.713   1.605 -1.1630  0.1109  1.0513
 5008TP3     H226844   2.426   1.787   1.636 -0.1583 -1.1708  0.0801
 5009TP3      O26845   0.989   0.050   1.011  0.4207 -0.1656  0.3681
 5009TP3     H126846   1.059   0.044   0.945  0.3256  0.3156  0.2170
 5009TP3     H226847   0.911   0.074   0.961 -0.2704 -2.3404  0.2841
 5010TP3      O26848   3.683   4.496   6.800 -0.0209  0.1949  0.0779
 5010TP3     H126849   3.660   4.465   6.713 -1.8437  0.8557  0.2794
 5010TP3     H226850   3.750   4.434   6.831 -0.7098 -1.1665 -1.0427
 5011TP3      O26851   0.147   1.576   7.946 -0.5111 -0.1490  0.0616
 5011TP3     H126852   0.205   1.609   7.878 -0.5408  1.9941  0.9776
 5011TP3     H226853   0.185   1.492   7.972  0.8123  0.0936 -0.9813
 5012TP3      O26854   4.832   1.748   0.812  0.2499  0.0412 -0.0809
 5012TP3     H126855   4.875   1.665   0.791  0.2810  0.8295 -3.6056
 5012TP3     H226856   4.902   1.813   0.808 -0.2565  0.6001 -0.0563
 5013TP3      O26857   2.120   4.198   9.267  0.0068  0.1673  0.3667
 5013TP3     H126858   2.030   4.230   9.255 -0.1730 -0.9852 -1.7878
 5013TP3     H226859   2.165   4.223   9.187  0.8183 -1.7787  0.1600
 5014TP3      O26860   0.780   4.846   8.998  0.5061  0.8016 -0.2255
 5014TP3     H126861   0.751   4.777   8.938  5.3230 -0.4883 -1.4944
 5014TP3     H226862   0.754   4.815   9.085 -0.0633 -1.1024 -1.0270
 5015TP3      O26863   2.500   4.133   9.923 -0.0916  0.0123 -0.0774
 5015TP3     H126864   2.439   4.069   9.885  0.9192 -0.3467 -1.1579
 5015TP3     H226865   2.444   4.198   9.965 -1.1643 -1.3378  0.6522
 5016TP3      O26866   3.085   3.120   7.864  0.1671  0.0047 -0.4537
 5016TP3     H126867   3.130   3.042   7.897 -0.4568 -0.8166 -1.4773
 5016TP3     H226868   3.115   3.191   7.921  1.1548 -0.8835  0.1720
 5017TP3      O26869   0.321   4.272   1.143  0.2026  0.4057  0.2131
 5017TP3     H126870   0.266   4.209   1.097 -1.9993  1.0306  1.8279
 5017TP3     H226871   0.398   4.221   1.170 -1.7681 -1.8515  2.0036
 5018TP3      O26872   0.704   3.135   8.051  0.1074  0.5720  0.8062
 5018TP3     H126873   0.620   3.173   8.077 -0.0488 -0.2922  1.6084
 5018TP3     H226874   0.734   3.089   8.129  0.0807 -1.3343 -0.2596
 5019TP3      O26875   2.708   0.428   1.665 -0.1348  0.0448 -0.4125
 5019TP3     H126876   2.773   0.480   1.712 -1.3651  1.5908 -0.3446
 5019TP3     H226877   2.760   0.366   1.614  1.4603  1.6788 -0.9095
 5020TP3      O26878   1.096   0.233   1.360 -0.1156  0.2462 -0.1958
 5020TP3     H126879   1.046   0.152   1.370 -0.3086  0.2071 -1.3569
 5020TP3     H226880   1.141   0.223   1.276  3.2307 -0.4364  1.4872
 5021TP3      O26881   1.483   1.154   2.609 -0.6582 -0.4300  0.1833
 5021TP3     H126882   1.506   1.243   2.634  2.9223 -1.1334 -0.0794
 5021TP3     H226883   1.531   1.098   2.669 -0.6874 -2.1770 -1.3000
 5022TP3      O26884   2.068   4.152   0.347 -0.3503  0.4153  0.0021
 5022TP3     H126885   2.103   4.219   0.289 -2.4267  1.4714 -0.1351
 5022TP3     H226886   1.976   4.176   0.358 -1.2743 -2.6528 -0.3325
 5023TP3      O26887   5.091   5.203   6.627 -0.2303  0.3107 -0.2780
 5023TP3     H126888   5.038   5.257   6.685 -0.3174  3.1825 -2.7700
 5023TP3     H226889   5.029   5.142   6.587 -0.6350  0.0893  0.6632
 5024TP3      O26890   3.914   3.605   9.781 -0.4110 -0.2826  0.3570
 5024TP3     H126891   3.851   3.654   9.728  0.1235  1.2313  1.0752
 5024TP3     H226892   3.932   3.662   9.856  0.5176 -1.4299  1.0427
 5025TP3      O26893   3.193   1.204   3.771  0.0907 -0.3230  0.5430
 5025TP3     H126894   3.242   1.286   3.775 -1.0693  0.3425  2.3383
 5025TP3     H226895   3.259   1.137   3.753  1.5872  0.6307  2.1953
 5026TP3      O26896   3.661   0.442   0.493 -0.5576 -0.1779  0.0518
 5026TP3     H126897   3.716   0.476   0.563  0.2499  1.1401 -1.1812
 5026TP3     H226898   3.656   0.348   0.510  0.5430 -0.0482  1.2149
 5027TP3      O26899   0.343   1.917   2.441  0.5691  0.3904 -0.5800
 5027TP3     H126900   0.337   2.006   2.407 -0.1510  1.1188  1.2885
 5027TP3     H226901   0.294   1.919   2.523 -0.6075 -2.0849 -1.1089
 5028TP3      O26902   0.444   2.695   0.924 -0.0835 -0.1290  0.0786
 5028TP3     H126903   0.435   2.746   0.843 -0.8895 -1.5057 -0.7248
 5028TP3     H226904   0.489   2.615   0.897 -1.2299 -1.0403  0.7846
 5029TP3      O26905   5.221   4.128   2.279  0.1151 -0.2091  0.5106
 5029TP3     H126906   5.190   4.051   2.231  2.1043 -1.0622  0.5206
 5029TP3     H226907   5.281   4.172   2.219 -3.3527  3.3299 -0.8263
 5030TP3      O26908   2.225   3.375   0.466  0.0667 -0.3490  0.2233
 5030TP3     H126909   2.202   3.383   0.374 -0.1845 -0.9166  0.2354
 5030TP3     H226910   2.321   3.371   0.467  0.1171  0.6288  0.0688
 5031TP3      O26911   5.113   1.492   7.589  0.1630 -0.2805  0.2427
 5031TP3     H126912   5.127   1.508   7.496  0.7129  0.4161  0.4371
 5031TP3     H226913   5.021   1.468   7.596  0.2889 -1.0690 -0.5685
 5032TP3      O26914   2.668   1.431   9.107 -0.2746 -0.1625 -0.1960
 5032TP3     H126915   2.756   1.430   9.070 -0.3942 -0.8185 -0.4636
 5032TP3     H226916   2.643   1.524   9.105  0.2651 -0.0169 -0.4473
 5033TP3      O26917   3.969   4.655   7.392  0.8488 -0.2577 -0.0697
 5033TP3     H126918   3.884   4.682   7.426  0.9941  1.0396 -0.6798
 5033TP3     H226919   3.999   4.588   7.454 -0.3967 -0.4041  0.4079
 5034TP3      O26920   1.589   0.666   8.066 -0.2109 -0.3420 -0.5831
 5034TP3     H126921   1.533   0.741   8.088  0.1777 -0.5250  1.1622
 5034TP3     H226922   1.677   0.694   8.091  0.2766 -0.5877 -1.9783
 5035TP3      O26923   0.789   3.666   3.181 -0.2761 -0.0826  0.0219
 5035TP3     H126924   0.698   3.687   3.198  0.0202  0.3454  1.2010
 5035TP3     H226925   0.812   3.602   3.249 -0.4654 -2.4591 -1.9963
 5036TP3      O26926   0.305   3.803   6.671  0.5940  0.2084  0.0887
 5036TP3     H126927   0.304   3.773   6.761 -0.6966  2.0316  0.7527
 5036TP3     H226928   0.220   3.776   6.636 -0.5632  2.7670  0.6771
 5037TP3      O26929   0.043   1.470   2.431  0.1327 -0.3106 -0.0057
 5037TP3     H126930   0.065   1.453   2.339  0.6057 -1.4184  0.2931
 5037TP3     H226931   0.088   1.401   2.479 -1.3617 -0.6824  0.9206
 5038TP3      O26932   0.064   1.948   9.262 -0.0186 -0.2347 -0.6055
 5038TP3     H126933   0.153   1.975   9.283  0.8503 -2.2552 -1.4200
 5038TP3     H226934   0.074   1.866   9.214 -2.0987  1.2077 -3.9421
 5039TP3      O26935   3.091   4.329   0.959 -0.2046 -0.4835  0.0613
 5039TP3     H126936   3.000   4.331   0.928 -0.0733 -1.3378 -0.3942
 5039TP3     H226937   3.134   4.400   0.911 -0.5473 -0.3140  0.0033
 5040TP3      O26938   1.369   1.544   2.804  0.0401 -0.1794  0.0572
 5040TP3     H126939   1.378   1.639   2.802  2.4766 -0.3484  0.7391
 5040TP3     H226940   1.379   1.520   2.896 -1.8660 -1.0522  0.0989
 5041TP3      O26941   1.876   2.840   0.005  0.1791 -0.0333  0.1633
 5041TP3     H126942   1.920   2.756   0.013  1.3875  0.6117  0.5789
 5041TP3     H226943   1.794   2.820  -0.040  0.1924 -1.4999  0.7329
 5042TP3      O26944   1.166   4.159   9.630  0.1729  0.8918 -0.4768
 5042TP3     H126945   1.091   4.187   9.577 -0.1242  0.2363 -0.4135
 5042TP3     H226946   1.243   4.184   9.578 -0.0510  2.2742 -0.1917
 5043TP3      O26947   4.707   0.357   9.096 -0.1275 -0.1197 -0.9637
 5043TP3     H126948   4.681   0.274   9.135  1.1166  0.7696  2.1173
 5043TP3     H226949   4.783   0.385   9.148  0.2915  2.3314 -2.7019
 5044TP3      O26950   2.245   2.716   2.311  0.6666 -0.2315  0.2899
 5044TP3     H126951   2.244   2.808   2.284  1.5566  0.6582  2.9356
 5044TP3     H226952   2.152   2.694   2.326  0.4476  0.2192 -0.3901
 5045TP3      O26953   4.349   1.655   8.708  0.0063 -0.2712 -0.6835
 5045TP3     H126954   4.342   1.600   8.786 -0.5716 -0.5007 -0.8892
 5045TP3     H226955   4.442   1.674   8.700  0.3214 -1.8176 -1.0101
 5046TP3      O26956   2.508   1.824   9.214  0.0436  0.2280  0.5046
 5046TP3     H126957   2.447   1.843   9.285  1.2172  1.1129  1.3041
 5046TP3     H226958   2.586   1.790   9.258  1.2595  1.9433 -0.2206
 5047TP3      O26959   2.116   4.989   8.176  0.4566  0.4791  0.1505
 5047TP3     H126960   2.198   5.038   8.181 -0.2961  1.6434  2.9218
 5047TP3     H226961   2.144   4.897   8.173  1.8771  0.8519  0.7693
 5048TP3      O26962   4.205   4.215  10.041  0.1875 -0.1129  0.0969
 5048TP3     H126963   4.259   4.290  10.067  1.7464 -0.8945 -0.7530
 5048TP3     H226964   4.123   4.228  10.088  1.3533  0.7504  2.0489
 5049TP3      O26965   2.137   2.034   6.937  0.5547 -0.0492  0.0935
 5049TP3     H126966   2.197   1.965   6.909 -0.0009 -0.7836  0.6693
 5049TP3     H226967   2.050   1.995   6.929  0.2368  0.5461  0.5197
 5050TP3      O26968   2.158   3.079   0.406 -0.3359  0.1728  0.6651
 5050TP3     H126969   2.099   3.154   0.415 -1.3120 -0.4514 -0.2658
 5050TP3     H226970   2.217   3.103   0.335 -0.7666 -0.0014  0.2425
 5051TP3      O26971   2.049   1.066   1.396 -0.2758  0.0403 -0.7720
 5051TP3     H126972   1.958   1.049   1.373 -0.9471 -0.0233  1.7562
 5051TP3     H226973   2.049   1.153   1.434  0.4308 -0.5372  0.6202
 5052TP3      O26974   2.016   3.252   7.967 -0.1718 -0.6985  0.5571
 5052TP3     H126975   2.047   3.164   7.946  0.4030 -0.3070 -0.2769
 5052TP3     H226976   2.020   3.300   7.884 -1.4452 -0.1621  0.7797
 5053TP3      O26977   3.942   3.200  10.088  0.2983  0.1414 -0.0798
 5053TP3     H126978   3.895   3.225  10.008  2.8106 -0.3676 -1.8375
 5053TP3     H226979   3.915   3.266  10.153 -2.4193  0.1120 -1.0464
 5054TP3      O26980   3.942   3.394   7.172 -0.0045 -0.2711  0.2880
 5054TP3     H126981   3.919   3.345   7.094  1.0257 -2.4083  1.2440
 5054TP3     H226982   4.028   3.431   7.153  0.7541 -1.7199  0.7594
 5055TP3      O26983   2.616   0.035   7.904 -0.2659  0.7721  0.6480
 5055TP3     H126984   2.622   0.084   7.822  1.4803 -1.0264 -0.3775
 5055TP3     H226985   2.679   0.077   7.962 -0.4295  1.1284  0.5722
 5056TP3      O26986   4.930   3.681   1.152  0.1228 -0.4119  0.0569
 5056TP3     H126987   4.845   3.721   1.172 -0.3895 -1.8739  0.9955
 5056TP3     H226988   4.986   3.705   1.226 -0.1615 -1.2904  0.5805
 5057TP3      O26989   1.771   2.067   1.175  0.4155  0.3165  0.3078
 5057TP3     H126990   1.679   2.061   1.203  0.3955  2.6423  0.8767
 5057TP3     H226991   1.818   2.012   1.237 -0.5474 -0.7748  0.1181
 5058TP3      O26992   1.449   0.672   7.796  0.3082 -0.4108 -0.5635
 5058TP3     H126993   1.434   0.671   7.890 -2.3674  0.6723 -0.8866
 5058TP3     H226994   1.456   0.580   7.772 -0.1824 -0.7551  0.5458
 5059TP3      O26995   3.264   4.767   1.402 -0.0524  0.3803  0.5903
 5059TP3     H126996   3.239   4.675   1.404  1.1615 -0.0234 -0.6219
 5059TP3     H226997   3.300   4.784   1.489 -1.6407  0.1536  1.3240
 5060TP3      O26998   0.796   3.871   9.591 -0.5852  0.5065  0.4937
 5060TP3     H126999   0.731   3.843   9.527 -0.3600  0.4306  0.2989
 5060TP3     H227000   0.765   3.957   9.620  0.1276  1.2341 -0.8455
 5061TP3      O27001   0.202   0.493   7.489 -0.1081  1.0091 -0.7265
 5061TP3     H127002   0.118   0.480   7.534  0.0896  2.3249  0.0858
 5061TP3     H227003   0.178   0.535   7.406 -0.4027 -0.6362 -1.5137
 5062TP3      O27004   2.308   0.776   2.407 -0.2158  0.0160 -0.3342
 5062TP3     H127005   2.282   0.739   2.491  1.7080  0.2701  0.4448
 5062TP3     H227006   2.398   0.806   2.422  0.5789 -0.8914 -2.7796
 5063TP3      O27007   2.064   3.176   1.215 -0.0322  0.4923 -0.2066
 5063TP3     H127008   2.145   3.134   1.245  0.0868 -0.9995 -2.3788
 5063TP3     H227009   2.090   3.267   1.198  0.8692  0.3462  0.3102
 5064TP3      O27010   3.156   2.391   0.571 -0.5656  0.0258  0.5348
 5064TP3     H127011   3.098   2.322   0.541 -1.8090  0.9415  0.7393
 5064TP3     H227012   3.223   2.346   0.622 -2.0851 -0.9193  1.7893
 5065TP3      O27013   1.837   4.811   7.448  0.2560  0.1507  0.1230
 5065TP3     H127014   1.771   4.742   7.456  2.0977 -1.6676  0.5473
 5065TP3     H227015   1.811   4.876   7.513 -1.3989 -0.2389 -0.0930
 5066TP3      O27016   3.023   0.416   9.062  0.2045 -0.3417 -0.5131
 5066TP3     H127017   3.106   0.458   9.040 -0.4036  2.0207  1.3647
 5066TP3     H227018   3.043   0.362   9.138 -0.0646  0.6826  0.3002
 5067TP3      O27019   1.720   4.790   1.947 -0.1686  0.1112 -0.3018
 5067TP3     H127020   1.636   4.792   1.901 -1.0469  0.5969  1.2821
 5067TP3     H227021   1.765   4.714   1.909 -1.0385  0.2028 -1.6138
 5068TP3      O27022   4.044   2.753   3.891  0.4419  0.2780 -0.1188
 5068TP3     H127023   4.129   2.718   3.863 -0.1349 -1.6473  0.4511
 5068TP3     H227024   3.981   2.714   3.830 -0.3756 -0.8798  1.4004
 5069TP3      O27025   0.224   0.071   9.451 -0.2165 -0.0309  0.1964
 5069TP3     H127026   0.200   0.089   9.361 -1.2036 -1.4656  0.1592
 5069TP3     H227027   0.141   0.056   9.496  0.1662  1.7809  1.6241
 5070TP3      O27028   1.898   1.357   7.656 -0.6355  0.4427 -0.1509
 5070TP3     H127029   1.878   1.381   7.566  0.0950 -1.5604 -0.9003
 5070TP3     H227030   1.908   1.441   7.701  0.6376  1.5392 -2.3040
 5071TP3      O27031   1.890   2.582   9.854 -0.0726 -0.0529 -0.5480
 5071TP3     H127032   1.835   2.503   9.855 -0.5991  0.2610 -2.2334
 5071TP3     H227033   1.923   2.588   9.944 -2.2252 -0.6423  0.3734
 5072TP3      O27034   3.957   3.962   8.111  0.2611  0.3619 -0.3916
 5072TP3     H127035   4.029   4.025   8.109 -0.3528  1.0644 -0.6310
 5072TP3     H227036   3.885   4.006   8.066 -0.6883  0.1291  0.8542
 5073TP3      O27037   3.341   0.753   1.940  0.2839 -0.7270  0.4031
 5073TP3     H127038   3.360   0.751   2.034 -0.5083 -2.2916  0.5558
 5073TP3     H227039   3.256   0.711   1.932  0.4482 -0.8162 -1.0521
 5074TP3      O27040   2.131   4.468   7.822 -0.4650 -0.5467  0.1858
 5074TP3     H127041   2.076   4.543   7.848 -0.1333 -0.1920 -0.1353
 5074TP3     H227042   2.151   4.424   7.905 -0.1611  0.0670  0.4488
 5075TP3      O27043   1.558   0.151   0.013 -0.4394 -0.0689 -0.2300
 5075TP3     H127044   1.493   0.082   0.029 -1.3607  0.9432  0.5484
 5075TP3     H227045   1.549   0.171  -0.080 -0.5511 -0.6285 -0.3436
 5076TP3      O27046   3.864   3.383   8.576 -0.4275  0.0118  0.0310
 5076TP3     H127047   3.955   3.397   8.605  0.4029  0.7115 -2.5890
 5076TP3     H227048   3.817   3.459   8.609  0.2032  0.2250  0.4691
 5077TP3      O27049   5.171   4.841   1.984  0.4344 -0.3686  0.1916
 5077TP3     H127050   5.151   4.868   1.895  0.2517 -1.1220 -0.0051
 5077TP3     H227051   5.265   4.858   1.994 -0.0829  2.5203  0.8828
 5078TP3      O27052   0.567   4.589   2.981  0.0648 -0.0312  0.2648
 5078TP3     H127053   0.612   4.589   3.065 -0.1485  0.0256  0.3787
 5078TP3     H227054   0.475   4.578   3.003  0.0568 -0.4925  0.0150
 5079TP3      O27055   5.077   5.216   9.869  0.4386  0.4667  0.0476
 5079TP3     H127056   5.131   5.150   9.825  2.1797  1.0044  1.2739
 5079TP3     H227057   5.045   5.271   9.797 -0.2770 -1.1272 -0.9059
 5080TP3      O27058   5.157   0.967   9.440 -0.4066  0.5079  0.5017
 5080TP3     H127059   5.187   0.891   9.391  1.1567  1.7700 -0.6229
 5080TP3     H227060   5.198   0.958   9.526 -1.0485 -0.4125  0.7177
 5081TP3      O27061   4.321   4.092   6.984  0.7603 -0.6715 -0.1838
 5081TP3     H127062   4.358   4.005   6.996  1.2260 -0.4016  0.3908
 5081TP3     H227063   4.322   4.105   6.889  1.8228 -0.8122 -0.2033
 5082TP3      O27064   0.664   2.136   9.778 -0.0256 -0.3912 -0.2702
 5082TP3     H127065   0.595   2.167   9.837  0.3284  0.1110 -0.1191
 5082TP3     H227066   0.702   2.216   9.742  0.8281 -0.6517  0.0462
 5083TP3      O27067   2.975   2.535   8.290 -0.0673 -0.0816 -0.2048
 5083TP3     H127068   2.964   2.440   8.281 -3.1837  0.3144 -1.4681
 5083TP3     H227069   2.969   2.550   8.384 -0.6996 -1.0382 -0.0732
 5084TP3      O27070   0.306   4.135   0.766 -0.5275  0.2349 -0.5243
 5084TP3     H127071   0.396   4.154   0.739 -0.6693  0.3312 -0.9419
 5084TP3     H227072   0.315   4.087   0.848 -0.0819 -0.2073 -0.8297
 5085TP3      O27073   2.809   4.180   0.039  0.0036  0.0750  0.0837
 5085TP3     H127074   2.779   4.122  -0.031 -0.4632 -0.3799  0.6450
 5085TP3     H227075   2.742   4.249   0.042  0.7188  0.8194 -0.7850
 5086TP3      O27076   2.568   4.815   1.700 -0.3539 -0.0511 -0.7938
 5086TP3     H127077   2.586   4.881   1.634  0.2246  1.8210  1.1283
 5086TP3     H227078   2.515   4.860   1.766 -0.2571 -1.6097  0.4258
 5087TP3      O27079   3.748   1.767   9.861  0.2918 -0.2706  0.3656
 5087TP3     H127080   3.686   1.703   9.896  0.4057 -0.6298 -0.0781
 5087TP3     H227081   3.775   1.819   9.936 -0.2315 -0.3818  0.6330
 5088TP3      O27082   2.610   4.727   0.197 -0.1280 -0.8987 -0.1855
 5088TP3     H127083   2.534   4.735   0.254 -0.1934  2.5953 -0.5172
 5088TP3     H227084   2.685   4.726   0.256 -0.3210 -1.7310  0.0567
 5089TP3      O27085   1.174   3.505   9.987 -0.2720  0.2131 -0.0160
 5089TP3     H127086   1.143   3.490  10.076  0.9305  0.8231  0.5167
 5089TP3     H227087   1.254   3.555   9.997  0.2529 -0.2951 -1.4161
 5090TP3      O27088   4.930   4.310   0.222  0.0828 -0.6965 -0.6965
 5090TP3     H127089   4.910   4.341   0.134 -1.9539  2.0934  0.5996
 5090TP3     H227090   4.845   4.297   0.263  0.7689  2.3359  2.1289
 5091TP3      O27091   4.760   0.233   8.393 -0.7670 -0.4317 -0.1808
 5091TP3     H127092   4.777   0.139   8.385 -0.4744 -0.2879 -1.5795
 5091TP3     H227093   4.665   0.241   8.377 -0.3396 -0.2491 -3.2349
 5092TP3      O27094   0.736   2.023   1.914 -0.1846  0.3830 -0.2532
 5092TP3     H127095   0.644   2.049   1.919 -0.7880 -1.9114  2.5103
 5092TP3     H227096   0.738   1.931   1.940  3.0871  0.8565  1.8608
 5093TP3      O27097   4.504   0.142   9.135  0.2349 -0.0729 -0.1521
 5093TP3     H127098   4.545   0.068   9.089  1.0319  1.2113 -1.6229
 5093TP3     H227099   4.488   0.110   9.223  0.7457 -1.9342 -0.6995
 5094TP3      O27100   0.016   4.990   9.329  0.3668 -0.0253 -0.5945
 5094TP3     H127101   0.010   5.068   9.273  1.9606 -0.1524 -0.9802
 5094TP3     H227102   0.109   4.970   9.332  0.1136 -1.1191  0.6293
 5095TP3      O27103   0.104   3.039   7.927  0.0623 -0.7650 -0.0166
 5095TP3     H127104   0.057   2.965   7.887  0.4269 -0.6424 -0.6883
 5095TP3     H227105   0.039   3.110   7.928  0.1360 -0.6815 -0.6734
 5096TP3      O27106   3.507   4.249   1.083 -0.6568 -0.1485 -0.3937
 5096TP3     H127107   3.578   4.186   1.100 -0.4237  0.0281 -0.7064
 5096TP3     H227108   3.538   4.299   1.008  0.4192  2.1887  1.4778
 5097TP3      O27109   5.265   4.421   8.474  0.4004  0.1006 -0.2358
 5097TP3     H127110   5.310   4.486   8.421  3.4063 -2.4068 -1.0582
 5097TP3     H227111   5.295   4.337   8.440 -0.3892 -1.7084  3.0405
 5098TP3      O27112   0.551   4.620   9.293 -0.0207  0.2622  0.1663
 5098TP3     H127113   0.563   4.532   9.328 -0.1584 -0.0931 -0.6562
 5098TP3     H227114   0.460   4.622   9.264  0.2372  0.3612 -0.6558
 5099TP3      O27115   0.937   4.687   2.560 -0.3788  0.1372 -0.4459
 5099TP3     H127116   0.881   4.611   2.574  1.3597 -1.6471 -2.3591
 5099TP3     H227117   0.881   4.751   2.516 -1.6578 -0.3824  0.3831
 5100TP3      O27118   1.346   3.834   1.093  0.0658  0.2822  0.5432
 5100TP3     H127119   1.392   3.750   1.094  0.1306  0.3194  0.6840
 5100TP3     H227120   1.254   3.810   1.077  0.2716  0.2804 -0.7078
 5101TP3      O27121   1.838   0.761   8.121  0.0066 -0.2490  0.5137
 5101TP3     H127122   1.878   0.811   8.192  1.3541  2.7214 -2.1188
 5101TP3     H227123   1.910   0.714   8.081 -0.8288 -2.3148  1.2808
 5102TP3      O27124   2.995   5.277   8.304 -0.3781 -0.2562 -0.0509
 5102TP3     H127125   3.052   5.266   8.228 -0.5620 -3.5707  0.1170
 5102TP3     H227126   2.919   5.221   8.285 -0.8665 -0.4317  2.1244
 5103TP3      O27127   2.872   1.178   2.624 -0.3736  0.4318 -0.1395
 5103TP3     H127128   2.873   1.266   2.587 -0.5250 -0.1942 -1.7088
 5103TP3     H227129   2.937   1.180   2.694 -1.9629  2.4065  1.4059
 5104TP3      O27130   4.836   0.406   8.200  0.4908 -0.3424 -0.0536
 5104TP3     H127131   4.807   0.490   8.236  0.2905  0.7721 -2.6465
 5104TP3     H227132   4.820   0.344   8.271 -1.8951  1.3433  1.0318
 5105TP3      O27133   3.540   0.309   1.063  0.0301 -0.2382  0.0706
 5105TP3     H127134   3.622   0.357   1.054 -0.8707  1.1706 -1.2735
 5105TP3     H227135   3.518   0.283   0.973 -0.2844 -1.8581  0.5969
 5106TP3      O27136   2.522   0.874   0.481 -0.3392  0.0411  0.1648
 5106TP3     H127137   2.614   0.886   0.459 -0.0242 -2.8512 -0.5038
 5106TP3     H227138   2.501   0.947   0.539  2.0897  1.2866 -0.4150
 5107TP3      O27139   1.263   0.850   9.026  0.3423  0.1925 -0.4088
 5107TP3     H127140   1.251   0.910   8.952  0.9979  1.9913  0.8668
 5107TP3     H227141   1.338   0.796   9.001 -0.4333 -0.3079 -1.7041
 5108TP3      O27142   2.121   3.154   7.381  0.2526 -0.1179  0.1554
 5108TP3     H127143   2.193   3.200   7.424  0.6251 -0.8837  0.3715
 5108TP3     H227144   2.064   3.127   7.453  0.0719 -0.0543  0.0368
 5109TP3      O27145   5.026   2.939   1.015  0.0499 -0.3893  0.2450
 5109TP3     H127146   4.999   2.868   0.957  1.4204 -0.2631 -0.5996
 5109TP3     H227147   4.991   2.914   1.101 -0.5417 -1.4628 -0.2864
 5110TP3      O27148   4.967   0.012   2.097  0.0829 -0.3594 -0.0039
 5110TP3     H127149   4.944   0.031   2.006 -0.5885  0.3694  0.3079
 5110TP3     H227150   4.975  -0.083   2.100 -1.1031 -0.4908 -0.5526
 5111TP3      O27151   4.415   4.609   2.826  0.0663 -0.2796  0.1146
 5111TP3     H127152   4.509   4.606   2.845  0.2477  0.5672 -0.5888
 5111TP3     H227153   4.405   4.682   2.765 -1.3073  0.8039  1.5696
 5112TP3      O27154   1.881   4.176   0.065 -0.1766 -0.0144  0.4204
 5112TP3     H127155   1.911   4.087   0.079  2.1191  0.8697  1.5890
 5112TP3     H227156   1.849   4.205   0.150 -1.4300  0.1328 -0.0776
 5113TP3      O27157   2.389   3.781   2.596  0.3735  0.1493  0.3223
 5113TP3     H127158   2.392   3.827   2.512  0.6462 -0.7611 -0.1832
 5113TP3     H227159   2.345   3.841   2.655 -3.0228 -0.5040 -1.3169
 5114TP3      O27160   3.625   3.723   8.158  0.1441  0.2035 -0.0644
 5114TP3     H127161   3.618   3.774   8.239  1.7283  1.3393 -0.5960
 5114TP3     H227162   3.703   3.668   8.171 -0.4070 -0.6558 -0.2864
 5115TP3      O27163   2.787   4.779   0.398 -0.2362 -0.2800  0.6361
 5115TP3     H127164   2.874   4.790   0.437 -0.1457  0.5396  0.2198
 5115TP3     H227165   2.738   4.855   0.427 -0.7456 -0.6158  0.6637
 5116TP3      O27166   1.832   1.029   7.108 -0.5596 -0.5743  0.3282
 5116TP3     H127167   1.795   1.074   7.032 -1.8387  0.4255  1.4852
 5116TP3     H227168   1.900   1.087   7.140 -1.3647 -0.0061  1.0794
 5117TP3      O27169   3.077   3.439   2.483  0.3616  0.3648  0.0929
 5117TP3     H127170   2.995   3.475   2.515  2.2394  2.6472  2.9015
 5117TP3     H227171   3.069   3.344   2.495 -1.0790  0.7177  2.4742
 5118TP3      O27172   4.908   5.012   9.572 -0.3272  0.1637  0.2947
 5118TP3     H127173   4.991   5.008   9.619  0.4234  0.6620 -0.9296
 5118TP3     H227174   4.932   4.999   9.480 -1.5187  0.9147 -0.1512
 5119TP3      O27175   1.048   0.749   2.507 -0.0862  0.2733  0.0318
 5119TP3     H127176   1.083   0.660   2.503 -0.0644  0.2673  0.3030
 5119TP3     H227177   1.001   0.752   2.590  1.1220  0.9455  0.7227
 5120TP3      O27178   4.786   3.035   8.081 -0.2612  0.6327  0.1747
 5120TP3     H127179   4.825   2.969   8.024  1.0720 -0.2745  2.0131
 5120TP3     H227180   4.714   3.071   8.030 -0.6367 -1.7848 -1.1618
 5121TP3      O27181   1.764   1.664   2.209 -0.3369 -0.0915 -0.9054
 5121TP3     H127182   1.720   1.594   2.256  0.4189 -0.1875 -0.3189
 5121TP3     H227183   1.693   1.714   2.168 -0.8761 -1.2532 -1.4402
 5122TP3      O27184   2.119   2.098   0.881  0.4257 -0.1346 -0.3520
 5122TP3     H127185   2.068   2.146   0.946  0.8686 -0.1335 -0.0014
 5122TP3     H227186   2.089   2.133   0.797  0.1555  0.1703 -0.1319
 5123TP3      O27187   0.961   4.644   0.992 -0.1813 -0.0584 -0.4035
 5123TP3     H127188   1.050   4.670   1.016 -0.3458 -0.7092  1.0411
 5123TP3     H227189   0.968   4.550   0.974 -0.2256  0.2535 -2.2537
 5124TP3      O27190   1.649   4.160   7.421 -0.1716  0.5473  0.3843
 5124TP3     H127191   1.670   4.109   7.343  1.4404 -0.4868  1.4446
 5124TP3     H227192   1.619   4.245   7.387  0.5658  0.1536 -1.3364
 5125TP3      O27193   4.943   2.436   2.024 -0.5253 -0.3891 -0.0483
 5125TP3     H127194   4.890   2.359   2.043 -0.7623  0.1476  1.7077
 5125TP3     H227195   5.027   2.402   1.995 -1.2563 -1.2658 -1.2254
 5126TP3      O27196   0.628   4.469   2.563 -0.5644 -0.1165  0.3972
 5126TP3     H127197   0.601   4.561   2.558 -1.8434 -0.4653  0.7015
 5126TP3     H227198   0.691   4.467   2.636 -1.1854  0.3674  0.9619
 5127TP3      O27199   4.477   4.864   3.618 -0.1918 -0.3608 -0.2618
 5127TP3     H127200   4.451   4.945   3.574 -1.3163 -1.4374 -1.6946
 5127TP3     H227201   4.400   4.807   3.610  0.5675 -1.5737  0.7029
 5128TP3      O27202   4.619   4.727   9.683 -0.5069  0.3191 -0.5847
 5128TP3     H127203   4.705   4.760   9.654  0.7489 -0.6984  1.6864
 5128TP3     H227204   4.635   4.635   9.705 -2.3261 -0.0131 -0.5010
 5129TP3      O27205   4.114   4.869   0.069  0.1864 -0.5670  0.3829
 5129TP3     H127206   4.194   4.865   0.122 -0.1150  1.7358  1.0900
 5129TP3     H227207   4.142   4.911  -0.013 -0.3162  0.4586  0.7232
 5130TP3      O27208   0.585   2.766   8.092  0.4580  0.3412 -0.7257
 5130TP3     H127209   0.583   2.841   8.153 -0.8034  0.0685 -0.4023
 5130TP3     H227210   0.580   2.806   8.005  1.0222  0.6759 -0.6140
 5131TP3      O27211   0.376   0.384   8.481  0.8165  0.6345  0.1689
 5131TP3     H127212   0.439   0.448   8.516  2.2984 -1.0940  0.8128
 5131TP3     H227213   0.305   0.382   8.545  0.9451  1.3504  0.3391
 5132TP3      O27214   0.885   1.075   0.701  0.4780  0.3028  0.2699
 5132TP3     H127215   0.885   1.113   0.789  2.8667 -0.4432  0.6914
 5132TP3     H227216   0.968   1.104   0.663  0.6665 -1.4468 -0.7538
 5133TP3      O27217   3.023   0.294   6.617  0.0950 -0.4950  0.2094
 5133TP3     H127218   2.994   0.305   6.707 -4.5149  0.5837 -1.1601
 5133TP3     H227219   3.067   0.376   6.596  1.3245 -0.7993  1.4044
 5134TP3      O27220   0.379   0.732   9.366  0.0216  0.3411  0.7209
 5134TP3     H127221   0.361   0.820   9.332 -1.5702  0.6214  2.1275
 5134TP3     H227222   0.442   0.745   9.437  0.3068  0.2585  0.4830
 5135TP3      O27223   3.710   3.116   1.803  0.2692  0.1362  0.1503
 5135TP3     H127224   3.623   3.078   1.790 -0.1332  0.3524  1.9423
 5135TP3     H227225   3.715   3.133   1.897  1.2597  2.5704 -0.2657
 5136TP3      O27226   0.987   1.763   2.202  0.0490  0.5993 -0.3326
 5136TP3     H127227   0.969   1.687   2.146  0.1980  0.0167  0.3883
 5136TP3     H227228   1.082   1.773   2.198 -0.0991  1.7961 -1.7354
 5137TP3      O27229   2.712   4.898   3.330  0.2887  0.1583  0.4928
 5137TP3     H127230   2.712   4.994   3.322 -0.8789  0.3045  1.7785
 5137TP3     H227231   2.708   4.882   3.425  0.5741 -1.1661  0.3000
 5138TP3      O27232   4.359   3.831   1.554  0.7873 -0.0393  0.0197
 5138TP3     H127233   4.371   3.822   1.459 -0.8243 -1.1912 -0.1094
 5138TP3     H227234   4.327   3.921   1.565  0.4757 -0.0703 -0.5892
 5139TP3      O27235   3.919   2.834   3.061 -0.4047  0.2123  0.2722
 5139TP3     H127236   3.866   2.805   3.136 -0.3009  2.1719  1.1692
 5139TP3     H227237   3.917   2.929   3.066  0.9001  0.3700 -1.3424
 5140TP3      O27238   1.047   2.123  10.112  0.0828 -0.0214 -0.4368
 5140TP3     H127239   1.137   2.145  10.135  0.4286 -0.6523 -1.1702
 5140TP3     H227240   1.050   2.032  10.086 -0.6603  0.1284 -1.0835
 5141TP3      O27241   1.922   4.628   9.797  0.3125  0.2375 -0.0804
 5141TP3     H127242   1.888   4.702   9.846  1.1217  0.3553  0.3262
 5141TP3     H227243   1.953   4.567   9.864 -2.1033 -1.3809 -0.3131
 5142TP3      O27244   0.521   2.827   1.669 -0.1048 -0.0121  0.1624
 5142TP3     H127245   0.456   2.889   1.638  1.7316  1.4986 -0.8304
 5142TP3     H227246   0.515   2.753   1.608  0.5988  1.1019 -1.3096
 5143TP3      O27247   3.125   3.506   7.481 -0.0981  0.2838  0.8106
 5143TP3     H127248   3.171   3.429   7.514  0.5926  0.2347 -0.2247
 5143TP3     H227249   3.156   3.515   7.391 -1.6481  0.6235  0.2855
 5144TP3      O27250   3.706   0.571   1.708  0.2350 -0.2753  0.2816
 5144TP3     H127251   3.757   0.646   1.678  0.3769 -0.4772  0.0151
 5144TP3     H227252   3.712   0.507   1.637 -1.4910  0.2065 -0.3500
 5145TP3      O27253   1.094   0.671   1.002 -0.1230 -0.3182  0.1944
 5145TP3     H127254   1.117   0.759   0.973  1.1076 -0.8408 -0.4741
 5145TP3     H227255   0.999   0.666   0.990 -0.4149  1.3170  1.4113
 5146TP3      O27256   4.760   1.331   1.777  0.1396  0.1229 -0.4774
 5146TP3     H127257   4.719   1.402   1.826 -0.9095  1.0125 -2.5311
 5146TP3     H227258   4.853   1.353   1.778 -0.0999  1.2004 -0.5677
 5147TP3      O27259   1.462   4.326   0.063  0.2104 -0.3354  0.0974
 5147TP3     H127260   1.374   4.330   0.100 -0.2286  0.3349 -0.9919
 5147TP3     H227261   1.498   4.413   0.076  0.7274 -0.6050  0.5329
 5148TP3      O27262   3.028   3.181   2.356  0.5090 -0.4782  0.0635
 5148TP3     H127263   2.964   3.213   2.293  0.6376  3.1166  1.5431
 5148TP3     H227264   2.993   3.096   2.385 -2.6089  0.5044 -0.5061
 5149TP3      O27265   3.838   3.017   3.740  0.2534 -0.4144  0.1178
 5149TP3     H127266   3.774   3.075   3.699  0.9640  0.1143 -0.2752
 5149TP3     H227267   3.797   2.990   3.822  0.1805  1.2441  0.6651
 5150TP3      O27268   1.642   0.978   2.762 -0.3018  0.1821 -0.8504
 5150TP3     H127269   1.591   0.897   2.763 -1.1910  0.6469  2.5324
 5150TP3     H227270   1.654   1.000   2.854  2.5585  2.3185 -1.5985
 5151TP3      O27271   0.022   3.383   2.194 -0.5655  0.2028 -0.2536
 5151TP3     H127272   0.037   3.356   2.104  0.3738  1.8324 -0.6274
 5151TP3     H227273   0.050   3.308   2.246  1.4510  0.1884 -1.2534
 5152TP3      O27274   2.169   4.808   0.187  0.1909 -0.0765 -0.0796
 5152TP3     H127275   2.188   4.785   0.095 -1.4428  0.0143 -0.4626
 5152TP3     H227276   2.135   4.898   0.182 -0.4002 -0.2631  0.5577
 5153TP3      O27277   5.267   2.422   8.017  0.1085 -0.1420 -0.4774
 5153TP3     H127278   5.232   2.511   8.029  0.3289 -0.1039 -0.1115
 5153TP3     H227279   5.333   2.413   8.085  0.1124 -0.5778 -0.5380
 5154TP3      O27280   3.361   3.895   0.202  0.0590  0.0880  0.3308
 5154TP3     H127281   3.310   3.906   0.122 -0.5917 -3.5388  0.0958
 5154TP3     H227282   3.306   3.933   0.271 -0.0860  1.7942 -0.6741
 5155TP3      O27283   3.623   4.962   1.813  0.2994  0.0775  0.2483
 5155TP3     H127284   3.708   4.965   1.858  0.2812 -1.1878  0.3959
 5155TP3     H227285   3.560   4.940   1.881  0.0385 -0.2829 -0.1049
 5156TP3      O27286   0.200   4.592   8.698  0.7885 -0.6413 -0.4309
 5156TP3     H127287   0.239   4.661   8.644  1.2545 -1.5815 -1.3504
 5156TP3     H227288   0.206   4.513   8.643 -0.2677 -1.2916  0.3522
 5157TP3      O27289   4.244   4.969   7.087  0.0881 -0.2558  0.7313
 5157TP3     H127290   4.200   5.052   7.105 -0.8084 -1.0431  2.3839
 5157TP3     H227291   4.227   4.915   7.165 -1.3792 -2.8254 -1.1818
 5158TP3      O27292   1.847   1.340   8.317  0.0217  0.4476  0.1931
 5158TP3     H127293   1.859   1.435   8.315  0.1422  0.4268 -0.1766
 5158TP3     H227294   1.930   1.305   8.348  1.2897  0.2599 -3.0330
 5159TP3      O27295   4.549   4.753   7.405  0.3942  0.0774 -0.3373
 5159TP3     H127296   4.525   4.749   7.312 -1.5040  0.9287  0.0891
 5159TP3     H227297   4.467   4.744   7.452  1.2965 -0.0268  1.2836
 5160TP3      O27298   1.788   4.115   1.066  0.1729  0.0264 -0.5865
 5160TP3     H127299   1.698   4.087   1.052  0.3747 -0.1533 -1.6070
 5160TP3     H227300   1.801   4.188   1.005  1.6173 -1.9004 -2.7419
 5161TP3      O27301   1.321   5.243   0.011  0.3751 -0.4424  0.5018
 5161TP3     H127302   1.295   5.192  -0.066  0.2940 -0.4665  0.5446
 5161TP3     H227303   1.259   5.317   0.013 -0.7132 -1.3443  1.4974
 5162TP3      O27304   3.089   4.764   6.890 -0.1212  0.3507 -0.2365
 5162TP3     H127305   2.995   4.769   6.872 -0.6528  2.1851  2.5310
 5162TP3     H227306   3.128   4.833   6.835 -0.5983  0.6612 -0.1871
 5163TP3      O27307   1.129   4.238   7.461  0.2519  0.8306 -0.3334
 5163TP3     H127308   1.200   4.286   7.504  0.5693  1.6640 -1.7214
 5163TP3     H227309   1.173   4.169   7.411 -0.1222 -0.2201  0.7477
 5164TP3      O27310   4.141   1.182   9.567 -0.4525  0.3407  0.0274
 5164TP3     H127311   4.219   1.170   9.514 -0.0368  1.1230  0.4450
 5164TP3     H227312   4.130   1.099   9.614  1.0415  0.7420  1.1537
 5165TP3      O27313   3.061   4.306  10.101  0.4983  0.1904 -0.0653
 5165TP3     H127314   2.974   4.268  10.112 -0.5625  2.6285  0.7348
 5165TP3     H227315   3.059   4.345  10.014  1.5920 -1.5390 -0.9091
 5166TP3      O27316   1.256   0.131   6.512  0.0553 -0.0155 -0.2103
 5166TP3     H127317   1.200   0.158   6.439  3.3862 -0.1936 -3.0861
 5166TP3     H227318   1.235   0.192   6.582 -1.9903  1.4155 -1.9287
 5167TP3      O27319   1.444   1.181   9.190 -0.0081  0.1108  0.3601
 5167TP3     H127320   1.408   1.171   9.101 -1.1457  1.6029  0.6164
 5167TP3     H227321   1.369   1.168   9.248  0.8883 -1.7423  1.2114
 5168TP3      O27322   0.234   3.546   9.741 -0.0526 -0.6529  0.1258
 5168TP3     H127323   0.150   3.507   9.764 -0.0737  0.1170  1.4437
 5168TP3     H227324   0.232   3.634   9.779  0.5789  0.1134 -1.5156
 5169TP3      O27325   0.339   3.601   2.716  0.2308 -0.1596  0.3306
 5169TP3     H127326   0.300   3.525   2.760  1.2369 -0.0486  1.4358
 5169TP3     H227327   0.398   3.564   2.651  0.5318 -0.3281  0.6990
 5170TP3      O27328   4.590   0.194   1.811  0.2523  0.1682  0.5052
 5170TP3     H127329   4.658   0.225   1.751 -0.9682  0.4897 -0.7561
 5170TP3     H227330   4.610   0.237   1.894  1.4231  0.4704  0.0872
 5171TP3      O27331   1.785   1.448   1.974  0.4481  0.5280 -0.0951
 5171TP3     H127332   1.757   1.539   1.979 -1.7344 -0.0119 -1.3090
 5171TP3     H227333   1.719   1.400   2.024  0.1620 -0.6198 -1.5086
 5172TP3      O27334   4.491   0.742   0.135 -0.3804 -0.5390  0.0279
 5172TP3     H127335   4.545   0.671   0.171 -1.6742 -2.5364 -1.7112
 5172TP3     H227336   4.477   0.718   0.044 -1.3472  1.7204 -0.4838
 5173TP3      O27337   0.510   3.346   9.589 -0.3041 -0.2369  0.2458
 5173TP3     H127338   0.464   3.262   9.597 -0.5911 -0.1608 -0.5548
 5173TP3     H227339   0.455   3.408   9.636 -0.2725 -0.4293  0.5381
 5174TP3      O27340   0.628   3.833   8.701 -0.4847 -0.5479 -0.2482
 5174TP3     H127341   0.623   3.884   8.781 -0.6729 -1.0264  0.0483
 5174TP3     H227342   0.545   3.851   8.656 -0.1428  0.1607 -0.6117
 5175TP3      O27343   4.806   0.019   0.235 -0.1141 -0.0317 -0.3806
 5175TP3     H127344   4.768  -0.008   0.151 -0.9435  1.1326 -0.4091
 5175TP3     H227345   4.873   0.082   0.211  0.3321 -0.4344 -0.2081
 5176TP3      O27346   2.851   1.419   7.269 -0.1282  0.6992 -0.5768
 5176TP3     H127347   2.846   1.350   7.335 -0.4382  1.4121  0.1529
 5176TP3     H227348   2.828   1.375   7.187  1.1449 -0.4044 -0.3812
 5177TP3      O27349   2.976   0.192   7.211  0.2387  0.5169  0.0984
 5177TP3     H127350   2.892   0.182   7.166 -1.4180 -0.0521  3.1064
 5177TP3     H227351   2.982   0.116   7.269  2.9932  0.4113 -0.1674
 5178TP3      O27352   1.626   0.099   9.449 -0.6395  0.0141  0.3012
 5178TP3     H127353   1.701   0.113   9.391 -0.2545  1.4065  1.0739
 5178TP3     H227354   1.622   0.004   9.461  1.3886 -0.0664  0.7077
 5179TP3      O27355   4.139   4.463   6.893  0.7582 -0.0599  0.0146
 5179TP3     H127356   4.178   4.515   6.823  0.6301 -1.1772 -0.9185
 5179TP3     H227357   4.060   4.427   6.855 -0.0959  0.4510  1.2120
 5180TP3      O27358   3.144   1.002   8.416  0.1205  0.0806 -0.2620
 5180TP3     H127359   3.183   1.045   8.339  0.2074 -1.3927 -1.0852
 5180TP3     H227360   3.074   0.948   8.379  0.1598 -0.6383  0.6974
 5181TP3      O27361   4.300   1.518   9.980  0.3714  0.0932 -0.1422
 5181TP3     H127362   4.359   1.455  10.022 -0.1381 -0.0004  0.4596
 5181TP3     H227363   4.352   1.556   9.910  0.7995 -0.7623 -0.3118
 5182TP3      O27364   4.692   2.388   0.152 -0.1502 -0.8251  0.4478
 5182TP3     H127365   4.718   2.354   0.067 -1.0991  0.9598 -0.6216
 5182TP3     H227366   4.612   2.438   0.134  0.0221  0.1875  2.2506
 5183TP3      O27367   1.166   1.970   0.969 -0.1856  0.0296 -0.3729
 5183TP3     H127368   1.164   1.874   0.974 -1.0778  0.0931  1.2345
 5183TP3     H227369   1.091   1.997   1.022  0.8451  1.6508  0.3125
 5184TP3      O27370   1.440   3.846   2.405 -0.9582  0.1488 -0.3009
 5184TP3     H127371   1.485   3.790   2.468 -1.2373  0.3043  0.0390
 5184TP3     H227372   1.393   3.785   2.348 -1.8684  0.0421  0.5244
 5185TP3      O27373   5.271   1.604   0.385  0.0393  0.3670 -0.0674
 5185TP3     H127374   5.195   1.558   0.349 -1.3148  1.4848  1.2164
 5185TP3     H227375   5.313   1.642   0.308  0.2439 -1.5703 -0.9707
 5186TP3      O27376   2.013   0.266   8.966  0.7134 -0.3956  0.1826
 5186TP3     H127377   1.953   0.340   8.959 -0.0308 -0.6345  2.9423
 5186TP3     H227378   1.965   0.193   8.927  0.3033 -0.0072 -0.0484
 5187TP3      O27379   4.921   1.206   8.399 -0.0213 -0.1212 -0.0394
 5187TP3     H127380   4.972   1.174   8.325  0.5735 -0.5615  0.5535
 5187TP3     H227381   4.880   1.127   8.435  1.0689 -0.1795  1.1405
 5188TP3      O27382   4.184   0.044   2.858 -0.4167 -0.9302 -0.0378
 5188TP3     H127383   4.275   0.018   2.875 -0.0851  0.3159  0.1918
 5188TP3     H227384   4.191   0.113   2.792 -1.2022 -0.8171 -0.0104
 5189TP3      O27385   0.653   0.793   9.818 -0.3111  0.2821  0.7157
 5189TP3     H127386   0.608   0.829   9.894 -0.6801  0.7253  0.2863
 5189TP3     H227387   0.725   0.742   9.856 -0.7209  0.1826  1.3731
 5190TP3      O27388   4.239   1.943   1.808  0.3024  0.0626  0.0944
 5190TP3     H127389   4.147   1.920   1.797 -0.7160  3.0651  1.3894
 5190TP3     H227390   4.277   1.932   1.720 -1.4210 -0.6385 -0.5987
 5191TP3      O27391   1.801   3.607   1.788  0.4473  0.1919  0.3100
 5191TP3     H127392   1.823   3.528   1.739 -0.8156 -0.5882  0.9520
 5191TP3     H227393   1.882   3.631   1.833  0.9140 -0.5764 -0.1133
 5192TP3      O27394   1.208   2.859   1.349 -0.3206  0.0603  0.5198
 5192TP3     H127395   1.165   2.798   1.409  0.3407 -1.0862 -0.1336
 5192TP3     H227396   1.240   2.803   1.277  3.4687  0.5643  1.5991
 5193TP3      O27397   1.620   3.472   1.204 -0.6444 -0.2760  0.5143
 5193TP3     H127398   1.571   3.542   1.162  0.7652  1.1629  1.1957
 5193TP3     H227399   1.561   3.396   1.198 -1.3803  0.3716 -2.0898
 5194TP3      O27400   0.873   0.533   9.814  0.6102 -0.0218  0.0578
 5194TP3     H127401   0.848   0.512   9.904 -0.8394  1.2938  0.0140
 5194TP3     H227402   0.937   0.466   9.790 -0.1308 -1.3194  1.5284
 5195TP3      O27403   3.744   5.009   8.209  0.1961  0.5343 -0.3008
 5195TP3     H127404   3.831   4.998   8.170 -0.7400 -2.7838 -1.7963
 5195TP3     H227405   3.743   4.948   8.282 -0.6776  0.9879  0.0718
 5196TP3      O27406   4.182   1.747   2.136  0.0411  0.0119 -0.5490
 5196TP3     H127407   4.139   1.823   2.096 -0.7915  0.4346  1.0712
 5196TP3     H227408   4.264   1.738   2.087 -0.1121  1.5820 -1.1672
 5197TP3      O27409   2.156   2.275   9.119  0.1392  0.2709 -0.0145
 5197TP3     H127410   2.210   2.211   9.072 -0.3143  0.3180 -0.6129
 5197TP3     H227411   2.112   2.224   9.187  1.1386  0.2838  0.6569
 5198TP3      O27412   0.603   1.009   8.420  0.7594 -0.7027  0.1320
 5198TP3     H127413   0.633   0.940   8.479 -0.6455  0.3731  2.2666
 5198TP3     H227414   0.582   0.963   8.339  0.6655 -2.6596  1.1811
 5199TP3      O27415   1.020   2.750   2.495  0.0516 -0.1121  0.3476
 5199TP3     H127416   1.036   2.843   2.477  2.8149 -0.6011 -0.2505
 5199TP3     H227417   1.055   2.737   2.584  0.6267 -0.7597  0.0357
 5200TP3      O27418   2.952   2.476   7.368  0.2149 -0.0883  0.1112
 5200TP3     H127419   2.858   2.493   7.370  0.3231  0.4796  0.5298
 5200TP3     H227420   2.959   2.381   7.359 -0.4013 -0.2218  0.9529
 5201TP3      O27421   2.058   5.072   0.231  0.4679 -0.3811 -0.2008
 5201TP3     H127422   2.011   5.075   0.314  1.5327 -0.7456  0.4421
 5201TP3     H227423   2.051   5.160   0.196 -0.7502 -0.4495 -0.1645
 5202TP3      O27424   3.930   1.703   1.316  0.0587 -0.4329  0.4477
 5202TP3     H127425   3.998   1.639   1.336  2.2385  0.2897 -3.5466
 5202TP3     H227426   3.905   1.684   1.226 -1.8695  2.0924  0.3219
 5203TP3      O27427   0.805   4.503   2.168  0.4620 -0.4261 -0.0785
 5203TP3     H127428   0.868   4.449   2.217 -2.1765 -2.9321  0.8256
 5203TP3     H227429   0.810   4.470   2.079  1.5839  0.5833 -0.4174
 5204TP3      O27430   4.020   0.822   3.679 -0.9055  0.2729 -0.1877
 5204TP3     H127431   3.961   0.881   3.632 -0.2094  0.6895 -0.5670
 5204TP3     H227432   4.025   0.744   3.624 -1.6133 -0.0358  0.1776
 5205TP3      O27433   2.888   1.204   1.377  0.1945  0.1797 -0.2957
 5205TP3     H127434   2.897   1.116   1.340  0.1480  0.4091 -0.8626
 5205TP3     H227435   2.824   1.194   1.448  0.9220 -0.4331  0.2971
 5206TP3      O27436   2.056   0.203   0.502 -0.4438 -0.1871 -1.2726
 5206TP3     H127437   2.014   0.289   0.504 -0.0726 -0.0132 -0.6714
 5206TP3     H227438   2.141   0.218   0.462 -0.1027 -0.1422 -0.5433
 5207TP3      O27439   3.030   2.706   8.076  0.2204  0.0130  0.3601
 5207TP3     H127440   2.999   2.642   8.140  0.1400 -1.1964 -0.8407
 5207TP3     H227441   2.994   2.676   7.993 -0.7109  2.2372 -0.1058
 5208TP3      O27442   4.585   5.204   6.776  0.5103  0.4864 -0.1394
 5208TP3     H127443   4.618   5.293   6.765 -0.1018  0.8031  0.5307
 5208TP3     H227444   4.661   5.153   6.804  0.7871  0.8611 -0.2060
 5209TP3      O27445   3.538   3.565   8.425  0.0836 -0.5111  0.1734
 5209TP3     H127446   3.447   3.541   8.409 -0.6432  1.3931  1.1424
 5209TP3     H227447   3.585   3.528   8.350 -1.3270 -2.2498  0.0710
 5210TP3      O27448   0.595   2.358   8.631  0.5522  0.5946  0.1285
 5210TP3     H127449   0.511   2.313   8.622  0.5837  0.2783  1.2724
 5210TP3     H227450   0.658   2.288   8.648  1.5248  0.5357 -3.0602
 5211TP3      O27451   0.305   3.225   8.082 -0.4904 -0.6707 -0.0193
 5211TP3     H127452   0.279   3.135   8.100 -0.1190 -1.3940 -2.6428
 5211TP3     H227453   0.277   3.240   7.992  2.0242  0.8267 -0.6375
 5212TP3      O27454   1.037   1.418   2.565  0.1839  0.3776 -0.3390
 5212TP3     H127455   0.966   1.360   2.593  0.6588  0.9782  2.4310
 5212TP3     H227456   1.097   1.361   2.516 -1.2551 -0.5457 -1.0813
 5213TP3      O27457   4.373   1.094   1.777 -0.0159  0.2370 -0.5595
 5213TP3     H127458   4.421   1.156   1.832 -1.6925  0.1882  1.0322
 5213TP3     H227459   4.312   1.149   1.728 -2.9395 -0.1493  2.3233
 5214TP3      O27460   4.231   4.859   9.590  0.3663  0.1999 -0.4040
 5214TP3     H127461   4.243   4.950   9.617  0.4568 -0.0823  0.5455
 5214TP3     H227462   4.233   4.862   9.495 -0.2956  1.2856 -0.4056
 5215TP3      O27463   3.504   1.260   3.579  0.0739 -0.6392 -0.6437
 5215TP3     H127464   3.487   1.167   3.594  1.8218 -0.7989  0.7288
 5215TP3     H227465   3.568   1.261   3.508 -0.4067 -0.4364 -1.0799
 5216TP3      O27466   2.634   3.938   8.225 -0.0266 -0.3170  0.1796
 5216TP3     H127467   2.589   4.019   8.250  0.1449 -0.4695  1.0124
 5216TP3     H227468   2.591   3.870   8.277  3.0356 -0.0818  3.3677
 5217TP3      O27469   2.735   3.626   0.196  0.6562 -0.0239  0.2904
 5217TP3     H127470   2.705   3.685   0.266  0.4560 -1.4852  1.4817
 5217TP3     H227471   2.708   3.539   0.225 -0.4262 -0.5635 -2.1690
 5218TP3      O27472   1.050   2.955   1.051 -0.1278  0.0527  0.1494
 5218TP3     H127473   0.978   2.927   1.108 -1.4606 -1.5785 -2.1673
 5218TP3     H227474   1.082   2.874   1.011  0.3306  1.1784 -1.8740
 5219TP3      O27475   4.286   2.808   1.468 -0.9036 -0.4822 -0.0386
 5219TP3     H127476   4.343   2.881   1.493  0.0613 -0.6572 -1.5779
 5219TP3     H227477   4.198   2.846   1.464 -0.9465 -0.1963  2.3430
 5220TP3      O27478   4.446   4.104   1.371  0.3259  0.4258 -0.0127
 5220TP3     H127479   4.499   4.107   1.292  0.6899 -1.3786  0.1244
 5220TP3     H227480   4.507   4.074   1.439 -0.6470 -0.8870  0.3200
 5221TP3      O27481   0.688   1.025   8.003 -0.2234 -0.4842  0.3938
 5221TP3     H127482   0.725   1.106   8.040 -0.3072 -0.9487  1.5535
 5221TP3     H227483   0.648   1.052   7.921  0.2180  0.5569  0.5037
 5222TP3      O27484   3.102   4.375   0.483 -0.1364 -0.1399 -0.8150
 5222TP3     H127485   3.161   4.323   0.429 -0.6562 -2.7669  0.9736
 5222TP3     H227486   3.022   4.384   0.430  0.7996  1.0249 -2.1026
 5223TP3      O27487   4.335   0.597   9.775  0.2599 -0.0198  0.0445
 5223TP3     H127488   4.396   0.618   9.846 -0.9938 -0.2521  1.2415
 5223TP3     H227489   4.253   0.577   9.820 -0.4115 -0.7734 -1.4603
 5224TP3      O27490   4.199   4.869   0.747  0.5555  0.6184 -0.3863
 5224TP3     H127491   4.147   4.850   0.825  0.7706 -0.4735 -0.4934
 5224TP3     H227492   4.230   4.958   0.760 -0.6606  0.9901  0.0681
 5225TP3      O27493   0.693   3.585   1.367  0.0760  0.0197  0.3172
 5225TP3     H127494   0.677   3.658   1.427  0.1598 -0.9494  1.5504
 5225TP3     H227495   0.605   3.552   1.345  0.0835 -0.2790  0.7351
 5226TP3      O27496   3.797   0.493   9.602  0.5841 -0.0977 -0.0475
 5226TP3     H127497   3.834   0.478   9.515  1.7058  1.7241  0.0541
 5226TP3     H227498   3.720   0.548   9.586  0.4639 -0.2346  0.0652
 5227TP3      O27499   0.758   3.324   6.830 -0.3511  0.2309 -0.3263
 5227TP3     H127500   0.835   3.380   6.835  0.6891 -1.0539 -1.3306
 5227TP3     H227501   0.695   3.375   6.778 -0.2124  1.2801  0.4932
 5228TP3      O27502   3.243   2.280   1.431 -0.1933 -0.5304 -0.0055
 5228TP3     H127503   3.282   2.350   1.484  1.8232 -1.1160 -0.6405
 5228TP3     H227504   3.275   2.297   1.342 -1.6644 -0.8896 -0.6404
 5229TP3      O27505   1.374   2.707   9.487  0.2850 -0.4280  0.3234
 5229TP3     H127506   1.415   2.734   9.405  1.2118  0.1371  0.9648
 5229TP3     H227507   1.296   2.761   9.494 -0.4749 -1.3276 -0.7746
 5230TP3      O27508   0.288   4.385   9.681  0.7440 -0.2642  0.2734
 5230TP3     H127509   0.308   4.476   9.701 -0.8723  0.1856 -0.0602
 5230TP3     H227510   0.279   4.382   9.586 -0.1394 -0.5488  0.3521
 5231TP3      O27511   0.854   4.672   7.855  0.3274 -0.2799 -0.3585
 5231TP3     H127512   0.814   4.632   7.778 -1.2165  1.7521 -0.7018
 5231TP3     H227513   0.784   4.673   7.920  1.1778 -0.6187  0.5913
 5232TP3      O27514   2.800   0.971   0.430 -0.1420  0.5492  0.1571
 5232TP3     H127515   2.871   1.028   0.460  0.0898 -0.8381  2.5397
 5232TP3     H227516   2.746   1.027   0.375  0.2528  3.0069  2.0906
 5233TP3      O27517   3.568   1.572   3.854 -0.2950  0.0510 -0.2604
 5233TP3     H127518   3.547   1.645   3.912  0.0034  1.2207 -1.5590
 5233TP3     H227519   3.634   1.522   3.902  0.6002  1.4836  0.0935
 5234TP3      O27520   0.584   1.121   7.727 -0.3598 -0.2401  0.1181
 5234TP3     H127521   0.627   1.103   7.643 -1.2626  1.9117 -0.8755
 5234TP3     H227522   0.529   1.197   7.710  0.1296  0.8588  2.9100
 5235TP3      O27523   3.700   4.725   2.037 -0.2729 -0.6127  0.2717
 5235TP3     H127524   3.692   4.749   2.129  0.9816 -0.8646  0.4576
 5235TP3     H227525   3.718   4.631   2.038  1.8506 -0.2545 -0.0945
 5236TP3      O27526   3.371   2.182   1.013  0.3441 -0.5344 -0.1273
 5236TP3     H127527   3.387   2.088   1.013  0.3855 -0.5276  0.6871
 5236TP3     H227528   3.396   2.210   0.925 -0.3689 -1.3976 -0.6221
 5237TP3      O27529   3.558   1.048   9.895 -0.2551 -0.3029  0.3301
 5237TP3     H127530   3.636   0.996   9.879 -0.2250 -0.2700  0.3718
 5237TP3     H227531   3.584   1.111   9.961 -0.8259 -1.4631  1.7172
 5238TP3      O27532   0.018   2.318   2.404 -1.1257 -0.2362  0.7578
 5238TP3     H127533  -0.011   2.385   2.467  1.9751 -0.0277  2.1854
 5238TP3     H227534   0.026   2.365   2.321  1.7269  1.5740  1.8847
 5239TP3      O27535   0.999   0.312   9.724 -0.1086  0.2908  0.0216
 5239TP3     H127536   0.949   0.250   9.777 -1.1955  0.8986 -0.2797
 5239TP3     H227537   1.004   0.270   9.638 -0.8865  0.6341 -0.1958
 5240TP3      O27538   1.360   4.771   0.328  0.5822  0.0663  0.0544
 5240TP3     H127539   1.405   4.779   0.413 -1.7735  1.6223  1.2693
 5240TP3     H227540   1.370   4.857   0.288 -1.0131  0.3562  0.2305
 5241TP3      O27541   5.054   0.908   2.051  0.1780 -0.4767  0.1007
 5241TP3     H127542   5.101   0.868   1.978  0.7563  1.5621 -0.7142
 5241TP3     H227543   4.975   0.944   2.011  0.4428  0.5634  0.5002
 5242TP3      O27544   3.889   3.165   9.428 -0.5493  0.5898  0.3107
 5242TP3     H127545   3.936   3.157   9.346  0.2214  0.9198  0.7148
 5242TP3     H227546   3.875   3.259   9.439  0.2081  0.6259  1.0276
 5243TP3      O27547   1.749   2.970   2.001 -0.5862  0.3097  0.0346
 5243TP3     H127548   1.775   2.907   2.068  0.4926 -0.1358 -0.7670
 5243TP3     H227549   1.659   2.947   1.980 -0.0554 -1.3514 -0.6186
 5244TP3      O27550   4.866   4.905   1.546  0.9099 -0.0400  1.2934
 5244TP3     H127551   4.916   4.857   1.480  0.8376  0.3644  0.9458
 5244TP3     H227552   4.932   4.936   1.608  0.9799 -0.3933  1.3956
 5245TP3      O27553   4.795   3.278   1.433  0.3258 -0.1770  0.2468
 5245TP3     H127554   4.772   3.284   1.526 -0.0369 -1.4645  0.2493
 5245TP3     H227555   4.730   3.219   1.395 -2.9943  4.2382 -2.0116
 5246TP3      O27556   3.357   0.263   3.143 -0.3805  0.0973  0.0319
 5246TP3     H127557   3.400   0.178   3.157  1.4318  0.9341 -0.0810
 5246TP3     H227558   3.298   0.272   3.217 -0.3281 -1.1027  0.2440
 5247TP3      O27559   3.624   0.648   8.011 -0.1862  0.2493  0.1802
 5247TP3     H127560   3.621   0.702   8.089  0.0917  0.6363 -0.0770
 5247TP3     H227561   3.544   0.595   8.016 -1.2009  1.6879 -0.2780
 5248TP3      O27562   3.975   4.668   2.421 -0.0282  0.2331  0.0063
 5248TP3     H127563   3.965   4.654   2.516 -0.2290 -1.1968 -0.1974
 5248TP3     H227564   4.051   4.725   2.414 -0.6103  1.1863  1.0689
 5249TP3      O27565   5.030   3.537   1.774 -0.2524  0.4533 -0.3039
 5249TP3     H127566   5.051   3.609   1.715  1.1986  0.3532  0.0408
 5249TP3     H227567   4.935   3.542   1.785 -0.5980  0.3630 -2.7499
 5250TP3      O27568   0.349   1.655   2.613  0.0697  0.0397 -0.3660
 5250TP3     H127569   0.344   1.687   2.704 -0.8752 -1.1722  0.0389
 5250TP3     H227570   0.443   1.658   2.592  0.2730  0.6222  0.5475
 5251TP3      O27571   0.917   4.205   9.500  0.4851 -0.1049  0.2812
 5251TP3     H127572   0.860   4.187   9.575 -1.1251 -0.8977 -1.0648
 5251TP3     H227573   0.872   4.274   9.451  1.0543 -0.2007 -0.4002
 5252TP3      O27574   4.265   2.910   7.163  0.0782  0.1384 -0.1142
 5252TP3     H127575   4.231   2.989   7.121  0.5434 -0.5050 -1.7794
 5252TP3     H227576   4.360   2.920   7.157  0.1403 -0.6810 -0.6385
 5253TP3      O27577   3.628   4.151   0.546 -0.2517 -0.1511  0.4045
 5253TP3     H127578   3.675   4.173   0.626  0.7560  1.5087 -0.5864
 5253TP3     H227579   3.677   4.077   0.510 -0.5563 -0.7391  1.1578
 5254TP3      O27580   3.335   2.065   7.324  1.0250 -0.0325  0.2865
 5254TP3     H127581   3.357   2.007   7.252  0.6173  0.5274 -0.3003
 5254TP3     H227582   3.343   2.153   7.287 -1.1282  0.2445  0.3229
 5255TP3      O27583   0.043   1.957   0.367 -0.0893 -0.2756  0.0405
 5255TP3     H127584   0.047   1.977   0.274 -2.2284  0.4848  0.0534
 5255TP3     H227585   0.011   2.037   0.408  0.1754 -0.8078  1.3451
 5256TP3      O27586   3.177   2.431   8.994 -0.0937  0.0143  0.7920
 5256TP3     H127587   3.255   2.376   8.998 -0.3546 -0.3110  2.3225
 5256TP3     H227588   3.202   2.512   9.038 -0.0538  0.6748 -0.4320
 5257TP3      O27589   0.465   1.913   1.443  0.7303  0.6189 -0.3971
 5257TP3     H127590   0.413   1.833   1.457  0.1829  1.1161  0.5349
 5257TP3     H227591   0.532   1.909   1.511 -0.2160  1.6711  0.6453
 5258TP3      O27592   5.124   2.576   7.696 -0.2067  0.6464  0.4835
 5258TP3     H127593   5.056   2.537   7.751 -0.9761  0.7832 -0.3425
 5258TP3     H227594   5.098   2.554   7.606  1.4887 -0.3364  0.1853
 5259TP3      O27595   1.042   0.046   9.057  0.0372  0.1731  0.3095
 5259TP3     H127596   0.966   0.090   9.095 -0.4115  0.2488 -0.6601
 5259TP3     H227597   1.020  -0.047   9.058 -0.1136  0.2047 -0.0730
 5260TP3      O27598   2.926   4.735   9.902 -0.0236 -0.1304  0.3713
 5260TP3     H127599   2.958   4.714   9.990 -0.7840  1.3493  1.0292
 5260TP3     H227600   2.833   4.754   9.914 -0.2588 -0.4195 -0.8497
 5261TP3      O27601   3.436   5.027   8.174  0.1700  0.5252 -0.1573
 5261TP3     H127602   3.497   4.964   8.212 -0.8009  0.8904  2.1397
 5261TP3     H227603   3.441   5.011   8.080  1.9871 -1.0846  0.1595
 5262TP3      O27604   0.353   0.960   7.433  0.1103  0.6436  0.1613
 5262TP3     H127605   0.332   0.902   7.360  0.4976  0.2820  0.3318
 5262TP3     H227606   0.351   1.048   7.395 -1.1455  0.5830  0.0515
 5263TP3      O27607   0.004   3.593   9.514  0.0212  0.5336 -0.2053
 5263TP3     H127608  -0.009   3.625   9.603  1.4562 -2.3860  1.2220
 5263TP3     H227609  -0.081   3.558   9.488  0.2968 -1.6024  1.4698
 5264TP3      O27610   3.898   4.614   2.702 -0.2287 -0.5750 -0.0493
 5264TP3     H127611   3.938   4.529   2.716  0.4890 -0.0564  1.2296
 5264TP3     H227612   3.806   4.602   2.724 -0.1011 -0.9907  0.2620
 5265TP3      O27613   2.065   4.753   9.228 -0.1440 -0.3681 -0.0322
 5265TP3     H127614   2.108   4.817   9.285  0.1546  0.0375 -0.6958
 5265TP3     H227615   1.972   4.760   9.250 -0.1981  0.7546 -0.5196
 5266TP3      O27616   2.942   3.831   7.374  0.5751  0.3142  0.8136
 5266TP3     H127617   2.897   3.755   7.410  0.6563 -0.2555 -0.2422
 5266TP3     H227618   3.009   3.793   7.316  0.4418  1.1898  0.0761
 5267TP3      O27619   3.977   0.765   9.515  0.1062 -0.2254  0.1970
 5267TP3     H127620   3.973   0.858   9.493  1.4054 -0.1414  0.2723
 5267TP3     H227621   3.890   0.732   9.492 -0.3260  0.9722  0.0398
 5268TP3      O27622   4.383   1.050   7.687 -0.1264 -0.1656  0.4706
 5268TP3     H127623   4.296   1.065   7.723 -0.2018  0.2476  0.1177
 5268TP3     H227624   4.420   0.982   7.743  0.0148  0.9293  1.7807
 5269TP3      O27625   2.122   0.737   9.123  0.1456 -0.3658 -0.5720
 5269TP3     H127626   2.123   0.644   9.103  1.9254 -0.5437  0.1361
 5269TP3     H227627   2.167   0.744   9.208 -0.1656  1.1081 -0.4983
 5270TP3      O27628   0.315   3.811   8.981  0.4474  0.4179 -0.0508
 5270TP3     H127629   0.276   3.762   8.909  0.3642  0.9348 -0.3608
 5270TP3     H227630   0.240   3.845   9.030  0.5033  0.0193  0.3134
 5271TP3      O27631   1.406   3.629   0.242  0.2680 -0.0521 -0.1073
 5271TP3     H127632   1.457   3.661   0.167  0.3461  0.5604  0.2044
 5271TP3     H227633   1.388   3.538   0.220  1.5528 -0.3067 -0.1962
 5272TP3      O27634   3.747   1.911   9.595  0.2332 -0.5175 -0.5838
 5272TP3     H127635   3.659   1.897   9.563  0.2776 -0.1078 -0.8980
 5272TP3     H227636   3.745   1.881   9.686 -0.3623 -0.0537 -0.4373
 5273TP3      O27637   2.995   1.129   0.518  0.3924 -0.5391 -0.5589
 5273TP3     H127638   3.037   1.154   0.601  1.1885  1.5335 -1.5100
 5273TP3     H227639   2.957   1.211   0.486  0.6697 -1.1605 -2.5544
 5274TP3      O27640   0.649   3.373   8.897  0.6526  0.2107  0.9850
 5274TP3     H127641   0.601   3.290   8.894  2.9815 -1.1932 -0.8955
 5274TP3     H227642   0.588   3.436   8.858 -0.3137 -1.1189  0.2475
 5275TP3      O27643   5.228   5.119   1.065 -0.0897  0.0697  0.3932
 5275TP3     H127644   5.142   5.098   1.103  0.0732  0.9878  1.2747
 5275TP3     H227645   5.207   5.174   0.989 -0.2774  0.4814  0.7381
 5276TP3      O27646   3.248   2.771   1.416 -0.0076  0.5562  0.0996
 5276TP3     H127647   3.324   2.715   1.405 -1.5110 -1.7355  0.7734
 5276TP3     H227648   3.222   2.794   1.327  1.2486  1.1075 -0.1470
 5277TP3      O27649   4.105   3.347   8.679 -0.3040 -0.3514  0.2930
 5277TP3     H127650   4.197   3.339   8.655 -0.5155  0.0438 -0.7019
 5277TP3     H227651   4.083   3.262   8.718 -0.1390 -1.4041 -1.7129
 5278TP3      O27652   3.206   4.835   0.897 -0.1878 -0.3849  0.2401
 5278TP3     H127653   3.135   4.771   0.890  1.6050 -2.3698 -1.0380
 5278TP3     H227654   3.228   4.838   0.990 -1.0957 -0.6878  0.4738
 5279TP3      O27655   4.490   3.039   0.083 -0.4538 -0.6186 -0.2501
 5279TP3     H127656   4.429   3.084   0.025 -0.3018 -0.1026 -0.0164
 5279TP3     H227657   4.502   3.098   0.157 -0.0721 -0.9417 -0.0441
 5280TP3      O27658   4.850   4.072   7.888  0.4699 -0.4832  0.7440
 5280TP3     H127659   4.785   4.114   7.945 -0.3507  0.5873 -0.8980
 5280TP3     H227660   4.902   4.144   7.853  0.8610 -1.0965  0.0327
 5281TP3      O27661   4.659   3.487   6.640 -0.3381 -0.2176 -0.0519
 5281TP3     H127662   4.571   3.523   6.652 -0.1323  0.3537 -0.2316
 5281TP3     H227663   4.711   3.529   6.708  0.0984  0.4972 -0.8169
 5282TP3      O27664   3.040   4.236   3.311  0.4966 -0.6617 -0.9821
 5282TP3     H127665   2.974   4.252   3.244  1.1687  1.5386 -1.1848
 5282TP3     H227666   3.116   4.205   3.262  1.0165  1.0287 -1.3081
 5283TP3      O27667   1.083   1.964   1.352  0.0212  0.5176  0.1578
 5283TP3     H127668   1.075   1.896   1.420  1.9773  0.1079  0.0462
 5283TP3     H227669   1.177   1.969   1.335 -0.2151  2.3273 -0.8201
 5284TP3      O27670   0.478   3.600   1.628  0.0928 -0.0463  0.0816
 5284TP3     H127671   0.404   3.645   1.588  0.5689  0.0054 -0.7630
 5284TP3     H227672   0.523   3.668   1.678 -0.9149 -0.2671  1.3330
 5285TP3      O27673   4.341   2.598   2.641  0.4578 -0.4171 -0.5926
 5285TP3     H127674   4.407   2.582   2.574  0.7029 -0.7894 -0.2643
 5285TP3     H227675   4.386   2.650   2.707  0.9307 -2.0896  0.4528
 5286TP3      O27676   4.236   4.402   8.474  0.3679 -0.5626 -0.0461
 5286TP3     H127677   4.171   4.420   8.541 -0.7242  0.0246 -1.2132
 5286TP3     H227678   4.316   4.380   8.522 -0.2839  0.1777  1.4208
 5287TP3      O27679   4.756   1.127   3.053  0.9550 -0.2911  0.2775
 5287TP3     H127680   4.681   1.074   3.080  0.5462  0.4000  0.5227
 5287TP3     H227681   4.832   1.074   3.076  0.5632 -2.0062 -2.0323
 5288TP3      O27682   2.764   3.162  10.106  0.6889 -0.3752 -0.1450
 5288TP3     H127683   2.741   3.081  10.059 -0.4512 -1.6825  2.4568
 5288TP3     H227684   2.780   3.133  10.196 -0.5293  2.3753  1.0549
 5289TP3      O27685   3.248   4.952   7.656 -0.1620  0.2181  0.3232
 5289TP3     H127686   3.338   4.918   7.654 -0.0462  0.5222 -0.5469
 5289TP3     H227687   3.193   4.875   7.643 -0.0388  0.0113  0.9903
 5290TP3      O27688   3.294   1.640   1.122 -0.0594  0.7261  0.0533
 5290TP3     H127689   3.338   1.713   1.077 -0.0455  0.7794  0.1519
 5290TP3     H227690   3.246   1.682   1.194  1.0588  0.5124  0.9607
 5291TP3      O27691   3.280   3.960  10.067 -0.7027  0.0076 -0.1503
 5291TP3     H127692   3.314   4.049  10.061  0.6772 -0.5223 -0.5535
 5291TP3     H227693   3.203   3.960  10.011 -0.9508  1.0326  0.1613
 5292TP3      O27694   2.376   1.264   8.728 -0.0124 -0.0962  0.2792
 5292TP3     H127695   2.451   1.247   8.784  1.5270  0.7405 -1.4106
 5292TP3     H227696   2.307   1.206   8.760  2.3249 -3.3518 -0.0926
 5293TP3      O27697   4.021   0.623   0.557  0.7220 -0.2043  0.1653
 5293TP3     H127698   3.927   0.638   0.561  0.5846 -1.0228  0.1010
 5293TP3     H227699   4.058   0.710   0.544  0.0028  0.1696  0.5751
 5294TP3      O27700   1.974   1.351   1.803 -0.7853 -0.2399 -0.1834
 5294TP3     H127701   1.920   1.398   1.867  0.5721 -0.0003  0.8312
 5294TP3     H227702   2.009   1.277   1.851  1.9135  1.0526  0.0369
 5295TP3      O27703   5.119   3.245   2.582  0.7070  0.0566 -0.0282
 5295TP3     H127704   5.038   3.286   2.612  0.5284 -0.8240  0.7452
 5295TP3     H227705   5.183   3.317   2.580  0.0508  0.6473 -0.1205
 5296TP3      O27706   3.514   4.982   2.376 -0.0324  0.4564 -0.0556
 5296TP3     H127707   3.477   5.041   2.440  2.5908  3.1593 -0.8168
 5296TP3     H227708   3.556   4.913   2.428  0.0185  1.2846  1.0232
 5297TP3      O27709   1.000   3.589   3.544 -0.6150 -0.5772 -0.3254
 5297TP3     H127710   0.959   3.542   3.471 -0.9274 -0.3961 -0.2687
 5297TP3     H227711   0.997   3.681   3.518 -0.8218 -0.5015 -0.0438
 5298TP3      O27712   1.128   1.669   0.052 -0.3777 -0.1384  0.4496
 5298TP3     H127713   1.035   1.648   0.042 -0.3219 -0.1202 -0.1176
 5298TP3     H227714   1.142   1.671   0.147 -0.9381 -0.2170  0.5355
 5299TP3      O27715   1.921   0.963   9.016  0.0930  0.0215  0.2571
 5299TP3     H127716   1.859   0.974   9.088 -0.3084  1.2456 -0.2461
 5299TP3     H227717   2.007   0.970   9.058 -0.1356  1.9111  0.4927
 5300TP3      O27718   2.681   4.820   1.999  0.2807 -0.2307  0.1738
 5300TP3     H127719   2.605   4.850   1.948  1.5415  0.4011 -1.4231
 5300TP3     H227720   2.689   4.884   2.070 -1.8911 -1.4838  1.6520
 5301TP3      O27721   1.230   2.876   2.819 -0.1204 -0.0911 -0.0519
 5301TP3     H127722   1.310   2.834   2.787  0.1586  1.2249 -1.1681
 5301TP3     H227723   1.257   2.922   2.899  0.2335  0.3196 -0.4068
 5302TP3      O27724   0.019   3.805   2.494 -0.0646 -0.1409 -0.0801
 5302TP3     H127725   0.017   3.755   2.412  1.2036 -0.6775  0.1899
 5302TP3     H227726  -0.060   3.778   2.541  0.7391 -2.2019  0.2010
 5303TP3      O27727   4.964   2.323   2.803 -0.2457  0.3191  0.3009
 5303TP3     H127728   4.959   2.400   2.747  1.0976 -0.4773 -0.9740
 5303TP3     H227729   5.022   2.350   2.875  1.2659  0.1494 -0.8062
 5304TP3      O27730   0.778   0.171   1.350  0.8354 -0.3742  0.5571
 5304TP3     H127731   0.689   0.135   1.344 -0.0464  1.7790 -0.3562
 5304TP3     H227732   0.835   0.094   1.348 -0.9450 -1.7616 -0.1221
 5305TP3      O27733   4.385   4.013   2.616 -0.3122  0.3935  0.2656
 5305TP3     H127734   4.339   4.028   2.534  1.5229  0.6388 -0.7821
 5305TP3     H227735   4.450   4.083   2.620  1.4443 -1.1592  0.5283
 5306TP3      O27736   1.707   4.293  10.004 -0.0240  0.4686 -0.3482
 5306TP3     H127737   1.722   4.387   9.998  0.5015  0.3524 -0.9526
 5306TP3     H227738   1.784   4.259  10.050  0.7071  0.1120 -1.7765
 5307TP3      O27739   1.187   3.760   6.924  0.1625  0.0335 -0.7299
 5307TP3     H127740   1.222   3.703   6.856  0.7985 -0.3102 -0.1240
 5307TP3     H227741   1.218   3.722   7.006  0.2736  1.0160 -0.2962
 5308TP3      O27742   1.766   4.833   3.260  0.0690 -0.1038  0.5513
 5308TP3     H127743   1.688   4.789   3.226 -0.7517 -0.4695  2.7487
 5308TP3     H227744   1.812   4.765   3.308  1.0320  0.4498  0.4240
 5309TP3      O27745   4.072   2.801   0.158  0.1682 -0.1898 -0.4184
 5309TP3     H127746   4.086   2.713   0.124  2.7830 -0.1005  0.1925
 5309TP3     H227747   4.097   2.795   0.251  0.3734  1.1841 -0.3616
 5310TP3      O27748   3.308   3.973   2.340 -0.2751 -0.3755 -0.3957
 5310TP3     H127749   3.401   3.956   2.357 -0.6294 -1.1846  0.9187
 5310TP3     H227750   3.278   3.897   2.290 -0.2758 -0.2270 -0.6193
 5311TP3      O27751   4.635   4.028   9.496 -0.2630  0.1461  0.0589
 5311TP3     H127752   4.603   4.019   9.407  0.3042 -1.4021 -0.0157
 5311TP3     H227753   4.562   4.000   9.551 -0.1088 -0.3583  0.0119
 5312TP3      O27754   4.443   0.867   1.556  0.3974 -0.2858  0.1359
 5312TP3     H127755   4.442   0.865   1.652  0.8514  0.7519  0.1746
 5312TP3     H227756   4.382   0.798   1.530  1.2622 -1.4753  1.1518
 5313TP3      O27757   1.321   2.345   9.260 -0.0149 -0.1162 -0.4758
 5313TP3     H127758   1.270   2.340   9.341 -1.5215  0.6797 -1.3345
 5313TP3     H227759   1.370   2.427   9.268 -1.1035  0.5908 -0.8700
 5314TP3      O27760   3.314   0.168   2.523  0.1588 -0.2265  0.1232
 5314TP3     H127761   3.342   0.108   2.592 -0.5363  0.3261  0.9053
 5314TP3     H227762   3.223   0.189   2.546 -0.2734 -0.4778 -1.2786
 5315TP3      O27763   4.192   1.615   0.777 -0.0387  0.2040 -0.0798
 5315TP3     H127764   4.185   1.690   0.718  0.9053  1.3996  1.2476
 5315TP3     H227765   4.285   1.613   0.802 -0.6521  0.7604  2.5642
 5316TP3      O27766   2.597   4.649   0.576 -0.1990  0.5103  0.1178
 5316TP3     H127767   2.672   4.669   0.520 -0.1069  0.4847  0.2327
 5316TP3     H227768   2.627   4.670   0.664 -0.1420 -0.0380  0.2259
 5317TP3      O27769   4.766   0.379   9.946  0.0828  0.1182  0.1027
 5317TP3     H127770   4.681   0.363   9.987 -2.1842  0.3306 -3.9405
 5317TP3     H227771   4.773   0.475   9.943  1.7648  0.1569  2.5329
 5318TP3      O27772   1.674   0.928  10.034  0.5348  0.6449  0.1368
 5318TP3     H127773   1.612   0.883  10.091  1.1822  1.0418  1.1978
 5318TP3     H227774   1.731   0.977  10.094  0.6558  1.8501 -0.8991
 5319TP3      O27775   3.959   4.135   9.074 -0.3396 -0.6236  0.0626
 5319TP3     H127776   3.899   4.061   9.075  0.7475 -1.5536 -0.6328
 5319TP3     H227777   4.043   4.097   9.047  0.3225  0.8068  0.0251
 5320TP3      O27778   2.886   0.160   1.584  0.1490  0.2478  0.1971
 5320TP3     H127779   2.907   0.241   1.537 -0.1906  0.2827  0.1026
 5320TP3     H227780   2.971   0.128   1.615  0.1786  1.2404  1.2291
 5321TP3      O27781   0.331   3.286   7.623  0.1902  0.6835  0.2228
 5321TP3     H127782   0.281   3.338   7.686 -1.1085 -0.5011  0.2183
 5321TP3     H227783   0.366   3.213   7.674  0.0484  0.3099 -0.2045
 5322TP3      O27784   1.340   1.331  10.061 -0.1991 -0.0840 -0.2084
 5322TP3     H127785   1.407   1.332   9.993  2.2493  1.3508  1.9701
 5322TP3     H227786   1.260   1.361  10.018  1.1121  0.2784 -2.5272
 5323TP3      O27787   3.824   4.013   0.259  0.2734 -0.6331 -0.0630
 5323TP3     H127788   3.762   3.945   0.233  0.5562 -1.6168  1.6696
 5323TP3     H227789   3.821   4.013   0.354  0.0670  2.0228  0.0263
 5324TP3      O27790   0.913   1.240   9.972  1.1111 -0.1639  0.1195
 5324TP3     H127791   0.927   1.252  10.066  2.1793 -2.6942  0.3703
 5324TP3     H227792   0.819   1.222   9.964  0.8828  0.7791  0.5945
 5325TP3      O27793   4.274   0.551   8.414  0.0015 -0.6834 -0.3501
 5325TP3     H127794   4.222   0.563   8.493  1.3837  2.3480  0.2709
 5325TP3     H227795   4.363   0.535   8.446  0.4842  0.0484 -1.2600
 5326TP3      O27796   1.347   5.216   6.669 -0.1081 -0.5197 -0.5342
 5326TP3     H127797   1.355   5.292   6.611  0.4414  0.3468  0.6355
 5326TP3     H227798   1.255   5.214   6.693 -0.4794 -1.2695 -1.8937
 5327TP3      O27799   4.101   2.519   2.712  0.6093  0.2321  0.0152
 5327TP3     H127800   4.183   2.534   2.665  0.3454 -0.1791 -0.5807
 5327TP3     H227801   4.127   2.471   2.791  0.8253 -0.8188 -0.6816
 5328TP3      O27802   2.394   1.258   2.285  0.0641 -0.3049 -0.5091
 5328TP3     H127803   2.359   1.326   2.228  1.3110 -0.0783 -1.0271
 5328TP3     H227804   2.477   1.293   2.317  0.3888 -1.2895 -0.2248
 5329TP3      O27805   2.848   4.897   0.808 -0.7097  0.1129  0.0411
 5329TP3     H127806   2.825   4.808   0.837 -0.6571  0.5658  1.5012
 5329TP3     H227807   2.825   4.953   0.881  2.0745  0.9854  0.3468
 5330TP3      O27808   3.940   2.549   0.756  0.1968 -0.2685  1.1914
 5330TP3     H127809   3.890   2.579   0.832 -1.3614 -0.1362  0.1317
 5330TP3     H227810   3.936   2.453   0.762 -0.8227 -0.2651  0.7144
 5331TP3      O27811   0.972   0.822   1.912 -0.4531 -0.1845 -0.1015
 5331TP3     H127812   0.901   0.759   1.927 -0.5638  0.0560  0.4189
 5331TP3     H227813   0.932   0.891   1.860 -0.1287 -0.9136 -1.3543
 5332TP3      O27814   3.329   1.450   2.102 -0.1287 -0.1612  0.0830
 5332TP3     H127815   3.332   1.545   2.092 -0.2894 -0.2853 -1.4224
 5332TP3     H227816   3.417   1.426   2.130 -0.4599  0.5365  1.8460
 5333TP3      O27817   5.226   2.856   7.499  0.3254  0.2997  0.0996
 5333TP3     H127818   5.247   2.779   7.447 -0.2080 -0.3042  0.7561
 5333TP3     H227819   5.196   2.921   7.435  3.7908  1.1354 -0.8802
 5334TP3      O27820   3.073   1.757   0.507 -0.9459 -0.5504 -0.2057
 5334TP3     H127821   3.034   1.821   0.566  0.5426 -1.2802  1.6667
 5334TP3     H227822   2.999   1.706   0.475 -1.7464 -0.6138  1.6343
 5335TP3      O27823   4.658   1.543   8.110 -0.0696  0.2822 -0.3102
 5335TP3     H127824   4.671   1.486   8.185  1.9463  1.1001  0.0066
 5335TP3     H227825   4.567   1.572   8.117 -0.7447 -1.8036  0.2435
 5336TP3      O27826   1.932   0.427   8.049 -0.2180 -0.5319  0.2234
 5336TP3     H127827   1.847   0.434   8.092 -1.4125 -0.9703 -1.9276
 5336TP3     H227828   1.913   0.384   7.965  2.0970 -0.4564 -0.4026
 5337TP3      O27829   2.200   3.221   2.892 -0.2319  0.3471  0.7355
 5337TP3     H127830   2.224   3.135   2.927 -1.1514 -0.9628 -1.6458
 5337TP3     H227831   2.134   3.254   2.953 -1.2321 -1.5038  0.7230
 5338TP3      O27832   1.449   2.081   9.055  0.1452 -0.2826  0.2806
 5338TP3     H127833   1.395   2.099   9.132 -0.0019 -0.6160  0.2580
 5338TP3     H227834   1.500   2.004   9.080  0.5345 -0.0318  0.2627
 5339TP3      O27835   1.030   1.220   9.710 -0.0224  0.2166 -0.3608
 5339TP3     H127836   1.007   1.225   9.802 -0.9670  2.6966 -0.6672
 5339TP3     H227837   1.123   1.198   9.709 -0.2540 -0.9793  1.1064
 5340TP3      O27838   2.929   1.838   1.518  0.5931 -0.1506  0.3902
 5340TP3     H127839   2.857   1.802   1.467  1.8446 -1.2331 -0.7086
 5340TP3     H227840   2.916   1.933   1.516 -0.1905 -0.2727 -0.7157
 5341TP3      O27841   1.479   1.563   8.389  0.3735 -0.4205 -0.2508
 5341TP3     H127842   1.384   1.555   8.395  0.2043  0.1189 -1.7477
 5341TP3     H227843   1.510   1.473   8.378  0.4186 -1.0515  3.7287
 5342TP3      O27844   2.960   1.575   1.847 -0.4195  0.3504 -0.2124
 5342TP3     H127845   2.898   1.575   1.920  0.1542  0.0583  0.2887
 5342TP3     H227846   3.031   1.632   1.876  0.5552 -0.9952  0.1258
 5343TP3      O27847   2.695   3.635  10.053  0.0501  0.0220 -0.5823
 5343TP3     H127848   2.712   3.665  10.142  0.3241 -0.0156 -0.6216
 5343TP3     H227849   2.685   3.540  10.062  3.0767 -0.4273 -0.9991
 5344TP3      O27850   0.087   1.173   2.071  0.0133  0.2995  0.0605
 5344TP3     H127851   0.165   1.201   2.023 -1.4591  1.4732 -1.7878
 5344TP3     H227852   0.111   1.087   2.107  1.6897 -0.0043 -1.6103
 5345TP3      O27853   0.365   0.175   0.061 -0.0157 -0.3085  0.6813
 5345TP3     H127854   0.418   0.101   0.034  0.0565 -0.2359  0.6239
 5345TP3     H227855   0.407   0.251   0.020  0.3985 -0.1343  1.4108
 5346TP3      O27856   0.768   3.517   2.944  0.8504 -0.7231 -0.5905
 5346TP3     H127857   0.674   3.502   2.939  1.0337 -1.8699 -0.7948
 5346TP3     H227858   0.779   3.569   3.024  0.2924 -3.0230  1.0813
 5347TP3      O27859   5.159   3.349   8.036  0.6412 -0.6312  0.4499
 5347TP3     H127860   5.160   3.292   7.959 -0.9405 -1.3338  0.9086
 5347TP3     H227861   5.124   3.432   8.005  1.0208 -0.5677  0.1941
 5348TP3      O27862   3.875   2.661   8.834 -0.2895 -0.3296 -0.0709
 5348TP3     H127863   3.925   2.734   8.872 -0.2204 -0.8876  0.9517
 5348TP3     H227864   3.935   2.586   8.840 -0.3606 -0.4771 -1.1162
 5349TP3      O27865   0.203   4.453   0.671  0.1262  0.2062  0.1946
 5349TP3     H127866   0.183   4.365   0.641  0.7057  0.5614 -1.3497
 5349TP3     H227867   0.283   4.443   0.723 -1.1962 -0.5005  2.1892
 5350TP3      O27868   2.809   2.111   9.001  0.0499 -0.1610  0.0783
 5350TP3     H127869   2.890   2.129   9.048 -0.1986 -2.1158  1.3904
 5350TP3     H227870   2.747   2.176   9.034  0.9672  1.2064 -0.7704
 5351TP3      O27871   4.167   0.242   9.368 -0.3932 -0.5991  0.5447
 5351TP3     H127872   4.179   0.199   9.452 -2.1619  0.2919  1.3035
 5351TP3     H227873   4.240   0.304   9.362 -0.4176 -0.4607  1.5549
 5352TP3      O27874   1.147   0.737   6.684  0.1421  0.2060  0.1298
 5352TP3     H127875   1.115   0.648   6.668 -0.2155  0.4774 -0.7340
 5352TP3     H227876   1.068   0.792   6.677  0.4276  0.6348  0.2419
 5353TP3      O27877   5.057   4.062   1.141 -0.3634  0.0283  0.0104
 5353TP3     H127878   5.035   4.094   1.228  0.2875  1.2980 -0.2612
 5353TP3     H227879   5.123   3.995   1.155 -0.5570 -0.0602  0.5079
 5354TP3      O27880   0.929   0.513   8.229  0.0895  0.4307 -0.0030
 5354TP3     H127881   0.930   0.608   8.230  1.9221  0.4375  2.2767
 5354TP3     H227882   0.951   0.486   8.318 -1.1629 -2.1587 -0.3539
 5355TP3      O27883   2.176   4.394   9.045 -0.3232  0.5771 -0.1010
 5355TP3     H127884   2.162   4.333   8.973 -0.1259 -1.0626  1.1709
 5355TP3     H227885   2.152   4.479   9.010 -0.6132 -0.2245 -1.9610
 5356TP3      O27886   3.479   1.935   9.637  0.3453 -0.0940  0.0309
 5356TP3     H127887   3.488   1.988   9.716  1.5914 -0.8776  0.4542
 5356TP3     H227888   3.402   1.970   9.593 -1.2681 -0.5512  2.2983
 5357TP3      O27889   1.129   1.123   1.820 -0.2698  0.3557 -0.2070
 5357TP3     H127890   1.180   1.126   1.739  1.8109  3.3121  1.0076
 5357TP3     H227891   1.120   1.030   1.840  4.5434 -0.4664 -0.6958
 5358TP3      O27892   4.695   1.274   6.910  1.1319  0.3330  0.5191
 5358TP3     H127893   4.743   1.356   6.923  2.8874 -0.9124  2.3209
 5358TP3     H227894   4.751   1.206   6.946  0.5044 -1.9723 -2.4322
 5359TP3      O27895   1.416   0.988   1.972  0.1323  0.1086 -0.5240
 5359TP3     H127896   1.352   0.956   1.909  0.4542 -0.2500 -0.6749
 5359TP3     H227897   1.500   0.964   1.935  0.5971  3.4781 -1.9855
 5360TP3      O27898   3.306   5.064   0.307  0.3068 -0.1985  0.0941
 5360TP3     H127899   3.352   5.058   0.391 -1.5087  1.3311  1.2887
 5360TP3     H227900   3.214   5.062   0.330 -0.2666 -0.8104 -2.0103
 5361TP3      O27901   4.389   0.327   9.587  0.3321 -0.2911 -0.1605
 5361TP3     H127902   4.385   0.367   9.501 -0.8339  0.5076  0.2361
 5361TP3     H227903   4.379   0.401   9.648  1.2407 -0.8237  0.6557
 5362TP3      O27904   3.932   2.967   9.645 -0.3326 -0.3513 -0.4212
 5362TP3     H127905   3.855   2.930   9.690 -0.2025 -1.4735 -1.0795
 5362TP3     H227906   3.895   3.031   9.585 -0.7677 -0.8475 -0.6983
 5363TP3      O27907   4.925   2.914   2.048 -0.3049 -0.0065  0.2471
 5363TP3     H127908   4.883   2.882   2.129 -0.3831 -1.0849 -0.1974
 5363TP3     H227909   4.897   3.005   2.041 -1.8294 -0.4361  0.4538
 5364TP3      O27910   0.740   4.746   7.333 -0.4551 -0.3760  0.4947
 5364TP3     H127911   0.799   4.753   7.258  0.1308 -0.8638  0.8922
 5364TP3     H227912   0.799   4.737   7.408 -1.0171  0.5869  1.0792
 5365TP3      O27913   4.475   4.391   7.972 -0.0764  0.3012 -0.0474
 5365TP3     H127914   4.487   4.415   7.880  0.4756  2.5028  0.5547
 5365TP3     H227915   4.496   4.298   7.975  1.1808  0.4653 -1.9221
 5366TP3      O27916   1.286   3.870   1.811 -0.3422 -0.1256  0.2763
 5366TP3     H127917   1.347   3.914   1.751 -1.7053  2.2499  0.5306
 5366TP3     H227918   1.274   3.783   1.772  1.4566  0.1184 -0.9799
 5367TP3      O27919   4.555   3.865   2.316 -0.1407 -0.3079 -0.1940
 5367TP3     H127920   4.596   3.921   2.381  0.6242 -0.7950 -0.2472
 5367TP3     H227921   4.467   3.848   2.351 -0.6001  1.3641 -0.4536
 5368TP3      O27922   4.299   0.745   2.146 -0.3166 -0.5736 -0.2574
 5368TP3     H127923   4.293   0.799   2.066 -1.0935  0.3423  0.3962
 5368TP3     H227924   4.371   0.784   2.195  2.0191 -2.8112 -1.6810
 5369TP3      O27925   2.807   3.977   3.076  0.2732 -0.2062  0.5957
 5369TP3     H127926   2.766   3.892   3.093 -0.9335  0.2736  0.2186
 5369TP3     H227927   2.854   3.998   3.157  0.5567 -1.2178  0.6968
 5370TP3      O27928   0.628   1.245   9.630  0.1851  0.1154 -0.3270
 5370TP3     H127929   0.660   1.335   9.635  0.7070 -0.0883  0.0982
 5370TP3     H227930   0.534   1.252   9.647  0.6812  0.2730  2.9983
 5371TP3      O27931   3.449   3.351   3.015  0.2942 -0.1950 -0.5367
 5371TP3     H127932   3.447   3.302   3.097  2.6738 -0.3976 -0.5549
 5371TP3     H227933   3.402   3.296   2.952 -1.6417  0.0062  0.6561
 5372TP3      O27934   0.153   2.930   8.814  0.5534 -0.0361  0.1636
 5372TP3     H127935   0.181   2.942   8.905 -0.8412 -2.7841  1.0540
 5372TP3     H227936   0.234   2.939   8.764  1.9929 -1.6387  2.0265
 5373TP3      O27937   2.651   0.246   7.424 -0.5042  0.9483 -0.0705
 5373TP3     H127938   2.564   0.284   7.425 -1.1839 -0.5237  0.9040
 5373TP3     H227939   2.696   0.289   7.351 -0.7009  4.5545  1.7626
 5374TP3      O27940   3.997   5.230   0.325 -0.6561  0.4951 -0.0978
 5374TP3     H127941   3.932   5.236   0.395 -0.2885 -0.4816  0.3476
 5374TP3     H227942   4.080   5.217   0.371 -0.5175 -0.9888 -0.7215
 5375TP3      O27943   3.449   5.153   2.577  0.0268 -0.1336  0.2617
 5375TP3     H127944   3.510   5.225   2.565  0.0825  0.0634  1.5941
 5375TP3     H227945   3.431   5.152   2.671 -1.3515 -0.7354  0.0173
 5376TP3      O27946   4.094   3.290   0.762  0.0282  0.4135  0.2374
 5376TP3     H127947   4.055   3.238   0.833  1.2569 -1.3175 -0.2992
 5376TP3     H227948   4.019   3.330   0.718 -0.8238  0.7542  1.8884
 5377TP3      O27949   3.819   3.911   7.511  0.3076 -0.1519  0.1529
 5377TP3     H127950   3.770   3.976   7.560  2.5511  1.6355  0.1639
 5377TP3     H227951   3.756   3.877   7.447 -0.7932  2.4748 -0.2765
 5378TP3      O27952   0.103   4.176   8.384 -0.2458 -0.2836 -0.2860
 5378TP3     H127953   0.095   4.124   8.304 -1.0909  0.0908 -0.4580
 5378TP3     H227954   0.161   4.124   8.440 -1.7230 -1.8416 -0.1160
 5379TP3      O27955   3.595   3.971   1.064 -0.0022  0.2340  0.5011
 5379TP3     H127956   3.551   4.004   0.985  0.5774  1.8898  0.8235
 5379TP3     H227957   3.523   3.945   1.122 -0.4263 -1.7132 -0.8215
 5380TP3      O27958   0.024   3.447   0.661  0.3324  0.0427  0.3815
 5380TP3     H127959   0.077   3.526   0.653 -0.7552  0.7340 -0.3582
 5380TP3     H227960   0.002   3.442   0.754  0.6049  0.4754  0.4723
 5381TP3      O27961   2.298   0.602   8.659 -0.1946 -0.5444 -0.2645
 5381TP3     H127962   2.207   0.576   8.646 -0.5692  0.6794 -0.1851
 5381TP3     H227963   2.320   0.570   8.747 -1.3415  1.2273  0.7318
 5382TP3      O27964   0.530   0.706   1.285  0.7269  0.2773 -0.0490
 5382TP3     H127965   0.462   0.755   1.330  1.1523  0.5434  0.3156
 5382TP3     H227966   0.490   0.679   1.203  0.4561  1.1857 -0.2303
 5383TP3      O27967   2.792   3.972   1.597  1.1683  0.3401  0.4150
 5383TP3     H127968   2.830   3.988   1.684 -0.2321 -0.0319  1.1115
 5383TP3     H227969   2.704   3.940   1.615 -0.4246  3.4569 -1.1553
 5384TP3      O27970   1.301   0.502   9.091 -0.3533  0.0248  0.3191
 5384TP3     H127971   1.227   0.547   9.132 -0.8844  0.6872 -1.2563
 5384TP3     H227972   1.354   0.573   9.053  0.2480 -0.5273  0.0941
 5385TP3      O27973   0.019   2.312   2.808  0.3460 -0.0592 -0.2476
 5385TP3     H127974   0.010   2.268   2.723 -0.4638 -0.4495  0.0328
 5385TP3     H227975  -0.066   2.351   2.825  1.1045  1.8430 -0.5774
 5386TP3      O27976   3.447   4.562   0.710  0.3254 -0.0553 -0.1573
 5386TP3     H127977   3.445   4.515   0.627  0.9280  0.2186 -0.3317
 5386TP3     H227978   3.518   4.625   0.700 -0.3972  0.8122  0.1199
 5387TP3      O27979   2.358   3.662   0.486  0.5615  0.1526  0.3772
 5387TP3     H127980   2.384   3.736   0.541  0.2965  0.2319  0.3949
 5387TP3     H227981   2.405   3.676   0.404  0.0832  0.6314  0.1893
 5388TP3      O27982   3.790   4.086   0.766 -0.8031 -0.1892  0.2033
 5388TP3     H127983   3.857   4.155   0.756  0.0295 -1.0147 -0.1020
 5388TP3     H227984   3.768   4.088   0.859  1.2178 -1.2858  0.7664
 5389TP3      O27985   3.576   3.414   9.934 -0.2590 -0.2109  0.4545
 5389TP3     H127986   3.540   3.334   9.972 -0.8228  0.3418  1.1279
 5389TP3     H227987   3.601   3.467  10.010 -0.0499  0.3174  0.0236
 5390TP3      O27988   5.151   0.997   3.353  0.2554 -0.0864  0.3438
 5390TP3     H127989   5.150   1.073   3.411 -1.2463  0.3337 -0.1907
 5390TP3     H227990   5.244   0.980   3.337  0.6510  0.6717  1.7002
 5391TP3      O27991   1.111   1.696   2.568  0.1244  0.3271  0.5705
 5391TP3     H127992   1.078   1.718   2.655 -0.0813 -0.2156  0.6368
 5391TP3     H227993   1.097   1.601   2.561  1.6702  0.0680  0.6021
 5392TP3      O27994   0.811   0.226   8.418  0.0386 -0.3123  0.4136
 5392TP3     H127995   0.790   0.255   8.329 -1.6053 -0.1395  0.8211
 5392TP3     H227996   0.856   0.142   8.407 -2.1928 -1.4486 -0.5350
 5393TP3      O27997   3.305   2.051   9.287  0.1798  0.0554 -0.1632
 5393TP3     H127998   3.371   2.120   9.291 -0.3388  0.5724 -0.3325
 5393TP3     H227999   3.306   2.013   9.375  0.5574  0.2008 -0.1034
 5394TP3      O28000   4.087   3.679   2.768  0.2916 -0.2163  0.2119
 5394TP3     H128001   4.006   3.692   2.818  0.1330 -0.9901  0.1736
 5394TP3     H228002   4.064   3.610   2.705  0.4024  0.9185 -1.1179
 5395TP3      O28003   1.441   2.808   3.385 -0.1621  0.1094 -0.1697
 5395TP3     H128004   1.381   2.744   3.347  1.0120  1.0350 -4.0906
 5395TP3     H228005   1.386   2.882   3.408 -0.9849 -0.5767  0.1246
 5396TP3      O28006   2.534   4.010   9.606  0.6055 -0.3382 -0.3944
 5396TP3     H128007   2.626   4.026   9.624  0.5885 -0.7668  0.1007
 5396TP3     H228008   2.504   4.089   9.560  0.8244  0.5196  0.8739
 5397TP3      O28009   2.325   2.626   2.591 -0.1934 -0.0151 -0.5052
 5397TP3     H128010   2.336   2.532   2.577 -2.0202 -0.2984 -0.2416
 5397TP3     H228011   2.297   2.660   2.506  1.1747  0.4360 -0.7945
 5398TP3      O28012   5.192   0.834   0.299  0.3579  0.1115 -0.7214
 5398TP3     H128013   5.134   0.844   0.223  0.4192  1.8100 -0.5950
 5398TP3     H228014   5.134   0.807   0.370  0.1221 -0.4715 -1.1327
 5399TP3      O28015   1.911   2.162   1.429  0.0501 -0.2837 -0.1383
 5399TP3     H128016   1.989   2.218   1.437  0.6512 -0.9480 -1.0750
 5399TP3     H228017   1.946   2.078   1.400 -0.6520 -1.6254  2.5752
 5400TP3      O28018   2.528   4.594   6.681 -0.2380  0.4860 -0.4068
 5400TP3     H128019   2.564   4.565   6.765 -1.4700 -0.3940 -0.1462
 5400TP3     H228020   2.461   4.658   6.705  0.4254  1.3638 -0.8268
 5401TP3      O28021   4.759   4.499   6.555 -0.4530 -0.3312 -0.0980
 5401TP3     H128022   4.853   4.481   6.565 -0.5522 -1.1362 -0.5336
 5401TP3     H228023   4.753   4.558   6.480 -0.3893 -1.4953 -1.0618
 5402TP3      O28024   2.859   1.751   3.359 -0.2172 -0.0460  0.1224
 5402TP3     H128025   2.835   1.743   3.267  0.9802 -3.8326 -0.0244
 5402TP3     H228026   2.954   1.744   3.360 -0.1991  0.0728  1.6369
 5403TP3      O28027   0.528   2.478   2.311 -0.3947 -0.3184  0.3610
 5403TP3     H128028   0.493   2.558   2.272  1.6043  0.1027 -0.6805
 5403TP3     H228029   0.545   2.502   2.402  0.1999  0.4590  0.0553
 5404TP3      O28030   1.871   3.466   1.068  0.5533 -0.0036  0.8005
 5404TP3     H128031   1.843   3.445   0.979  1.1256 -2.3844  1.1027
 5404TP3     H228032   1.791   3.465   1.119  0.4479 -0.5961  0.6289
 5405TP3      O28033   3.787   0.066   8.088  0.0468 -0.4290 -0.4519
 5405TP3     H128034   3.832  -0.006   8.132  1.0410 -0.1002 -0.8996
 5405TP3     H228035   3.826   0.145   8.126 -0.6689 -0.1289 -0.3355
 5406TP3      O28036   1.953   1.197   2.053 -0.2761  0.4987 -0.1875
 5406TP3     H128037   1.946   1.270   2.115 -2.4343 -0.3741  0.6927
 5406TP3     H228038   2.040   1.160   2.069  0.4386  2.1865  0.0993
 5407TP3      O28039   1.389   1.972   9.595 -0.2224 -0.3867  0.0483
 5407TP3     H128040   1.332   1.979   9.672  0.3852  0.2587  0.4563
 5407TP3     H228041   1.455   1.907   9.619  0.6628  0.6489  0.5606
 5408TP3      O28042   3.872   5.108   0.767  0.7747 -0.1982 -0.6749
 5408TP3     H128043   3.927   5.173   0.811  0.7541 -0.7700  0.2212
 5408TP3     H228044   3.924   5.080   0.692  0.4925  1.3521 -1.4889
 5409TP3      O28045   0.910   3.961   1.270 -0.3179 -0.2967 -0.0450
 5409TP3     H128046   0.997   3.922   1.281  0.4046  1.0845 -0.5064
 5409TP3     H228047   0.853   3.888   1.247  0.7624 -1.2127  0.0977
 5410TP3      O28048   2.347   3.716   2.277  0.1285  0.3380  0.0339
 5410TP3     H128049   2.277   3.696   2.339 -1.4527  0.9799 -1.4217
 5410TP3     H228050   2.326   3.663   2.200  1.2775  0.5204 -0.4198
 5411TP3      O28051   4.078   1.311  10.048 -0.2736 -0.2332 -0.3554
 5411TP3     H128052   3.998   1.341  10.004 -0.2585  0.8827  0.3435
 5411TP3     H228053   4.148   1.357  10.002  0.0005 -1.2529 -1.0023
 5412TP3      O28054   4.043   2.462   7.914 -0.2337  0.2437  0.2323
 5412TP3     H128055   4.039   2.477   8.008 -0.8256 -0.7002  0.3710
 5412TP3     H228056   3.957   2.426   7.892  1.1113 -3.2596  0.0283
 5413TP3      O28057   0.811   3.392   8.679 -0.0012 -0.2110 -0.1136
 5413TP3     H128058   0.891   3.398   8.732  1.0222  2.3323 -1.7217
 5413TP3     H228059   0.740   3.395   8.742  1.1728  0.9550  1.2206
 5414TP3      O28060   0.531   2.092   1.034  0.0544  0.8570 -0.1694
 5414TP3     H128061   0.475   2.111   0.958 -1.1180 -0.0444  0.4331
 5414TP3     H228062   0.493   2.014   1.072  0.2935  1.5941  1.6745
 5415TP3      O28063   3.594   1.526   9.512 -0.5301  0.2023 -0.7077
 5415TP3     H128064   3.534   1.591   9.550 -0.3541  1.1251 -1.9385
 5415TP3     H228065   3.537   1.453   9.487 -0.7310 -0.1486  0.6918
 5416TP3      O28066   2.673   0.605   9.610 -0.5412  0.4309  0.2218
 5416TP3     H128067   2.628   0.604   9.526 -1.7074 -1.3497  0.8137
 5416TP3     H228068   2.604   0.595   9.675  0.6110 -3.2042  1.1364
 5417TP3      O28069   1.875   4.403   8.881 -0.4197  0.0272  0.0319
 5417TP3     H128070   1.909   4.467   8.943 -1.3833  0.0107  0.5895
 5417TP3     H228071   1.822   4.344   8.934  1.0050 -1.6784 -0.3517
 5418TP3      O28072   0.779   1.579   2.767 -0.2517  0.0566 -0.3667
 5418TP3     H128073   0.814   1.500   2.808  0.1871  0.5436  0.2159
 5418TP3     H228074   0.690   1.585   2.799  0.1084  0.4684  0.5829
 5419TP3      O28075   2.436   0.613   0.758  0.0847 -0.2050  0.1356
 5419TP3     H128076   2.340   0.622   0.759 -0.1485 -1.9454 -1.6495
 5419TP3     H228077   2.451   0.522   0.784  1.2995  0.1253  0.6299
 5420TP3      O28078   0.961   4.524   0.367 -0.5158  0.3438  0.3343
 5420TP3     H128079   0.902   4.480   0.305 -0.4735 -0.8590  1.1070
 5420TP3     H228080   1.041   4.472   0.365 -0.3801  0.5060  1.1265
 5421TP3      O28081   2.286   2.417   9.475  0.1822 -0.3306 -0.1486
 5421TP3     H128082   2.191   2.428   9.475  0.2169  0.1688  1.2058
 5421TP3     H228083   2.314   2.447   9.389 -0.9856 -1.4878 -0.9575
 5422TP3      O28084   5.025   5.007   2.332  0.4214 -0.4397 -0.3648
 5422TP3     H128085   4.995   4.922   2.362 -2.8530  0.6082 -0.3464
 5422TP3     H228086   4.991   5.016   2.244 -0.5445  1.3841  0.1467
 5423TP3      O28087   1.620   3.678   2.566 -0.1525  0.2538  0.1499
 5423TP3     H128088   1.689   3.671   2.500 -0.8907  0.1510 -0.6315
 5423TP3     H228089   1.660   3.646   2.646 -0.1047 -2.5560 -0.8851
 5424TP3      O28090   1.699   4.683   0.755 -0.8734  0.3932  0.1869
 5424TP3     H128091   1.677   4.697   0.847  0.6228  0.6338  0.5363
 5424TP3     H228092   1.734   4.767   0.726 -1.1576  0.2611 -0.5444
 5425TP3      O28093   1.018   3.966   1.771  0.2229  0.0317  0.3473
 5425TP3     H128094   1.032   4.054   1.738 -0.9655  0.5901  1.2628
 5425TP3     H228095   1.105   3.935   1.795  0.7367  0.6701 -0.6356
 5426TP3      O28096   5.129   3.918   2.136  0.3965  0.3578  0.5991
 5426TP3     H128097   5.109   3.964   2.055 -0.7554 -1.4652 -0.2327
 5426TP3     H228098   5.182   3.843   2.108 -0.8785 -0.8664  1.3657
 5427TP3      O28099   3.628   3.890   0.082  0.2488  0.2892 -0.1524
 5427TP3     H128100   3.613   3.980   0.053  1.8894  0.5591 -0.2520
 5427TP3     H228101   3.540   3.855   0.100 -0.5843  1.2400 -2.0791
 5428TP3      O28102   2.935   4.661   3.484  0.5014  0.2231  0.2550
 5428TP3     H128103   2.866   4.683   3.547 -0.3756  0.7765 -0.8658
 5428TP3     H228104   2.974   4.581   3.518 -1.9422 -1.1758 -0.0178
 5429TP3      O28105   1.381   1.427   3.369  0.5062 -0.4661 -0.0067
 5429TP3     H128106   1.467   1.384   3.371  1.4982  1.2672 -1.3612
 5429TP3     H228107   1.334   1.383   3.298  0.1766 -1.5694  0.8843
 5430TP3      O28108   2.552   0.681   9.367  0.0432 -0.4181  0.0869
 5430TP3     H128109   2.480   0.650   9.312 -0.0496 -1.0260  0.5420
 5430TP3     H228110   2.630   0.671   9.313 -0.0786 -0.7850 -0.0207
 5431TP3      O28111   2.816   1.050   9.298  1.0861 -0.2048  0.3324
 5431TP3     H128112   2.858   0.998   9.367  1.5468 -1.5945 -0.9584
 5431TP3     H228113   2.724   1.055   9.325  0.4654 -3.8122 -0.6440
 5432TP3      O28114   0.377   2.232   9.494  0.5754 -0.0036 -0.4538
 5432TP3     H128115   0.356   2.319   9.529 -1.1200 -0.7112  0.4644
 5432TP3     H228116   0.311   2.217   9.426  1.5536 -0.1263 -1.3831
 5433TP3      O28117   3.966   1.984   8.519 -0.6244 -0.2670  0.1765
 5433TP3     H128118   3.979   1.905   8.572  2.1994  0.3309  0.5188
 5433TP3     H228119   3.877   2.013   8.540 -0.8996 -2.0987  1.7512
 5434TP3      O28120   3.001   4.241   7.923 -0.4345  0.1340  0.1583
 5434TP3     H128121   2.909   4.222   7.939 -0.4281 -0.9013 -0.9356
 5434TP3     H228122   3.001   4.331   7.891 -0.8470  0.8079  1.9529
 5435TP3      O28123   0.619   0.817   2.681 -0.3383 -0.1412 -0.2617
 5435TP3     H128124   0.567   0.737   2.677  1.2141 -1.0972 -2.3963
 5435TP3     H228125   0.662   0.823   2.596  1.7179  1.5268  0.8076
 5436TP3      O28126   2.730   4.763   7.050 -0.7724 -0.0751  0.1577
 5436TP3     H128127   2.773   4.848   7.058  0.7612 -0.5061 -2.3241
 5436TP3     H228128   2.707   4.739   7.140  1.5447  1.5771  1.3003
 5437TP3      O28129   2.032   0.541   8.288 -0.0468  1.4079 -0.2471
 5437TP3     H128130   1.966   0.495   8.235 -0.0850  2.1540 -0.8652
 5437TP3     H228131   2.109   0.484   8.285 -0.6579  0.5293  0.4798
 5438TP3      O28132   1.493   3.420   2.344 -0.1616  0.0620  0.0756
 5438TP3     H128133   1.501   3.435   2.438  3.0221  0.2949 -0.1096
 5438TP3     H228134   1.439   3.492   2.312  1.9948  2.3430  1.2506
 5439TP3      O28135   3.536   1.360   1.231  0.1050 -0.0700  0.2809
 5439TP3     H128136   3.444   1.343   1.214  0.3123 -0.2021 -0.7832
 5439TP3     H228137   3.545   1.455   1.224  0.3917 -0.1957 -1.5894
 5440TP3      O28138   1.058   0.846   0.337  0.1426  0.2355 -0.1112
 5440TP3     H128139   1.116   0.922   0.345  1.5975 -0.7062 -1.0998
 5440TP3     H228140   1.006   0.865   0.259  0.4993  0.2329 -0.3543
 5441TP3      O28141   2.837   0.413  10.011  0.7351  0.0573 -0.1129
 5441TP3     H128142   2.758   0.393  10.061  0.3994  0.6625 -0.3979
 5441TP3     H228143   2.807   0.421   9.920  1.2445 -0.4472 -0.3302
 5442TP3      O28144   2.433   2.792   0.411  0.1712 -0.5941 -0.2052
 5442TP3     H128145   2.367   2.796   0.341 -0.5916 -1.4794  0.4281
 5442TP3     H228146   2.391   2.739   0.479  0.2032  1.6454  1.6710
 5443TP3      O28147   4.897   1.469   2.121  0.5499  0.1830  0.3603
 5443TP3     H128148   4.948   1.459   2.041 -0.3710  0.8907 -0.3415
 5443TP3     H228149   4.814   1.507   2.092  0.1309  0.2940  1.6304
 5444TP3      O28150   3.127   3.654   1.556  0.5945  0.2094 -0.0955
 5444TP3     H128151   3.152   3.693   1.641  0.9450 -0.3285  0.0519
 5444TP3     H228152   3.162   3.715   1.491  0.5886  0.4714  0.1453
 5445TP3      O28153   1.937   4.817   1.690 -0.0271 -0.5352 -0.2228
 5445TP3     H128154   2.014   4.778   1.731  1.0934  1.7430 -0.0247
 5445TP3     H228155   1.936   4.907   1.720 -1.2209  0.2469 -2.3523
 5446TP3      O28156   0.489   1.730   7.559 -0.6611 -0.2084 -0.0871
 5446TP3     H128157   0.445   1.741   7.475 -0.1949 -1.1508 -0.4681
 5446TP3     H228158   0.476   1.814   7.604 -0.3706  0.5342 -1.3499
 5447TP3      O28159   0.275   1.598   1.267 -0.3830  0.4940  0.1894
 5447TP3     H128160   0.331   1.534   1.310 -3.1486 -1.4328  1.1684
 5447TP3     H228161   0.260   1.666   1.332  0.3623  0.7558  0.0949
 5448TP3      O28162   1.787   4.953   0.741 -0.1654  0.7396 -0.5051
 5448TP3     H128163   1.866   4.987   0.701  0.0129  1.0922  0.1343
 5448TP3     H228164   1.720   5.020   0.724 -0.7773 -0.3096 -2.5108
 5449TP3      O28165   0.256   3.628   0.512  0.2789 -0.3366  0.5653
 5449TP3     H128166   0.226   3.693   0.449 -1.0121 -0.0623  1.4355
 5449TP3     H228167   0.272   3.550   0.459  1.2616  0.4772 -0.3964
 5450TP3      O28168   1.175   0.466   7.415  0.6110 -0.3864 -0.0169
 5450TP3     H128169   1.230   0.536   7.451 -2.9068  2.1380  1.0174
 5450TP3     H228170   1.188   0.471   7.320  3.1253 -0.8935  0.2347
 5451TP3      O28171   5.258   3.924   9.399 -0.3742 -0.3888  0.2767
 5451TP3     H128172   5.211   3.846   9.369 -1.7974  1.6929 -3.6363
 5451TP3     H228173   5.190   3.979   9.439  0.3354 -0.4367  1.6324
 5452TP3      O28174   0.707   2.036   0.833 -0.2453  0.0918 -0.1007
 5452TP3     H128175   0.653   2.054   0.910 -1.0069 -0.8763 -0.3880
 5452TP3     H228176   0.775   2.103   0.836 -1.3886  1.2924  0.3320
 5453TP3      O28177   0.027   3.670   2.266 -0.2860 -0.5710  0.3250
 5453TP3     H128178   0.091   3.599   2.255  0.4154  0.2374 -1.0872
 5453TP3     H228179  -0.035   3.657   2.194  0.3859  0.7653 -0.5382
 5454TP3      O28180   1.580   2.934   8.519  0.1361  0.0922 -0.3595
 5454TP3     H128181   1.635   2.897   8.589  0.4821  0.1589 -0.5951
 5454TP3     H228182   1.638   2.938   8.443  0.3429  1.8781 -0.1344
 5455TP3      O28183   3.647   1.301   8.749 -0.3465 -0.5295  0.4267
 5455TP3     H128184   3.726   1.255   8.722  0.1443  0.4988  0.0687
 5455TP3     H228185   3.678   1.376   8.799 -0.9837  0.9392 -1.2841
 5456TP3      O28186   1.097   2.915   0.312 -0.1570  0.0904 -0.2322
 5456TP3     H128187   1.041   2.947   0.383 -0.4162  1.1851 -0.8984
 5456TP3     H228188   1.059   2.954   0.233 -1.7234 -3.4339 -1.4278
 5457TP3      O28189   3.126   4.874   3.182 -0.5670  0.2416 -0.0893
 5457TP3     H128190   3.103   4.945   3.243 -1.2410  1.4597 -1.6848
 5457TP3     H228191   3.045   4.857   3.134  0.0960 -0.2592 -1.0607
 5458TP3      O28192   2.888   3.812   2.017 -0.1911  0.3352  0.3526
 5458TP3     H128193   2.809   3.762   1.995 -0.0690  0.5168 -0.5252
 5458TP3     H228194   2.909   3.784   2.106 -1.2903  0.3455  0.6361
 5459TP3      O28195   0.676   3.097   9.140 -0.5271 -0.8572  0.1535
 5459TP3     H128196   0.642   3.140   9.218 -2.3907 -0.5287 -0.7860
 5459TP3     H228197   0.608   3.111   9.073  1.2703 -0.5817 -1.7175
 5460TP3      O28198   3.463   2.172   6.967  0.3164 -0.5053  0.2356
 5460TP3     H128199   3.448   2.079   6.985 -1.3969 -0.3943 -0.4322
 5460TP3     H228200   3.444   2.216   7.050 -2.3166 -0.4825 -0.2842
 5461TP3      O28201   3.877   1.769   6.699 -0.0639  0.3215  0.2814
 5461TP3     H128202   3.815   1.737   6.633 -0.0641  2.0894 -0.6529
 5461TP3     H228203   3.948   1.806   6.647  1.7391 -1.4941  1.3396
 5462TP3      O28204   5.224   1.497   9.774  0.1729  0.4620 -0.6195
 5462TP3     H128205   5.141   1.482   9.728  1.0218  0.9912 -2.3737
 5462TP3     H228206   5.250   1.410   9.805 -2.4975  0.6233  2.7196
 5463TP3      O28207   2.256   1.336   2.764 -0.2141  0.1550 -0.1370
 5463TP3     H128208   2.179   1.359   2.816 -0.8276 -1.3169 -0.3474
 5463TP3     H228209   2.318   1.408   2.780 -1.8220  1.6589 -0.4196
 5464TP3      O28210   2.110   0.047   2.985  0.1551  0.1734  0.1946
 5464TP3     H128211   2.021   0.053   3.019  0.6932  1.5022  1.4944
 5464TP3     H228212   2.101   0.003   2.901 -1.2799 -3.4819  2.0448
 5465TP3      O28213   3.537   3.838   2.395  0.4656  0.2679  0.4458
 5465TP3     H128214   3.600   3.828   2.466  0.3545 -1.0872  0.3869
 5465TP3     H228215   3.547   3.758   2.343 -0.7797  0.3649  0.0192
 5466TP3      O28216   1.929   2.991   9.498  0.7430  0.2736  0.6797
 5466TP3     H128217   1.949   2.987   9.404 -1.0897 -0.3289  0.2623
 5466TP3     H228218   1.925   2.900   9.526  1.4515  0.4534  1.4037
 5467TP3      O28219   5.035   1.417   8.716  0.0219  0.3892 -0.3564
 5467TP3     H128220   5.095   1.473   8.667 -0.7084  0.0533 -1.6918
 5467TP3     H228221   5.077   1.331   8.715  0.5356  0.6115  0.6019
 5468TP3      O28222   2.585   1.946   8.969  0.1311 -0.0420  0.1622
 5468TP3     H128223   2.659   1.992   9.008 -0.8963  0.1796  1.9545
 5468TP3     H228224   2.526   1.928   9.042 -2.5148  1.4767 -1.4466
 5469TP3      O28225   3.542   0.465   7.543  0.3155  0.2552  0.5516
 5469TP3     H128226   3.479   0.491   7.611 -0.2644 -0.0885  0.1571
 5469TP3     H228227   3.495   0.400   7.490  0.3869  1.2739 -0.8043
 5470TP3      O28228   3.556   1.982   0.562 -0.3594  0.3153  0.2178
 5470TP3     H128229   3.545   2.057   0.620  0.3686  0.4567  0.1930
 5470TP3     H228230   3.580   2.020   0.477  1.8127  0.0455  0.6408
 5471TP3      O28231   2.280   2.692   1.523 -0.4125 -0.6301 -0.2323
 5471TP3     H128232   2.374   2.708   1.534 -0.8724  1.2342  1.6313
 5471TP3     H228233   2.242   2.780   1.517 -2.0743 -1.3588 -0.8209
 5472TP3      O28234   5.056   4.493   7.966 -0.0724  0.6353 -0.0888
 5472TP3     H128235   5.079   4.409   8.006 -1.3928  0.0058 -0.5784
 5472TP3     H228236   5.095   4.489   7.879  0.1804  0.6847  0.0226
 5473TP3      O28237   2.263   5.087  10.060 -0.2168 -0.2180 -0.0540
 5473TP3     H128238   2.353   5.110  10.039 -0.3225 -0.2742 -0.5699
 5473TP3     H228239   2.239   5.147  10.131 -0.8634  2.1399 -2.1030
 5474TP3      O28240   4.938   3.813   7.698 -0.1231 -0.1180 -0.2136
 5474TP3     H128241   4.870   3.880   7.690  0.5302  0.7669  1.2950
 5474TP3     H228242   4.890   3.730   7.703 -1.0468  0.4239  0.0084
 5475TP3      O28243   4.242   4.228   8.728  0.5072  0.3995 -0.1194
 5475TP3     H128244   4.232   4.163   8.659 -1.5967  0.0830  0.4309
 5475TP3     H228245   4.176   4.294   8.709  3.5977  3.3342 -1.5793
 5476TP3      O28246   1.142   4.217   1.636  0.0720  0.1594 -0.0486
 5476TP3     H128247   1.211   4.281   1.654  2.2671 -2.1479  0.2748
 5476TP3     H228248   1.061   4.268   1.637  1.3685  2.4417  3.1224
 5477TP3      O28249   3.031   0.267   9.831 -0.7291  0.0014 -0.0268
 5477TP3     H128250   3.005   0.266   9.739  0.4766 -1.0419 -0.3830
 5477TP3     H228251   3.046   0.360   9.850 -0.3059  0.1637 -1.0895
 5478TP3      O28252   5.237   1.819   2.419 -0.4510  0.1316  0.0922
 5478TP3     H128253   5.259   1.883   2.351 -1.9041  0.0842 -0.4782
 5478TP3     H228254   5.146   1.840   2.441 -0.3995 -0.6770  1.1174
 5479TP3      O28255   1.683   0.996   9.199 -0.4335  0.2117 -0.1100
 5479TP3     H128256   1.709   1.075   9.247  0.5915  0.6202 -1.2668
 5479TP3     H228257   1.591   0.984   9.221  0.0269  0.2723  2.0486
 5480TP3      O28258   3.708   4.708   2.307  0.7365  0.4921 -0.4833
 5480TP3     H128259   3.801   4.729   2.310  0.7495  0.4483 -0.5788
 5480TP3     H228260   3.702   4.620   2.345  0.8278  0.1831 -1.1734
 5481TP3      O28261   0.449   3.129   0.904  0.0793  0.0939 -0.2067
 5481TP3     H128262   0.470   3.203   0.960 -2.4301  0.8434 -0.1419
 5481TP3     H228263   0.391   3.074   0.957 -2.0585  0.6244 -1.8321
 5482TP3      O28264   0.483   4.493   1.247 -0.2244 -0.5595 -0.7818
 5482TP3     H128265   0.482   4.434   1.322  2.1326  0.1543 -0.0949
 5482TP3     H228266   0.412   4.462   1.190 -3.2269 -0.1597  2.4026
 5483TP3      O28267   1.734   5.281   1.116  0.6338 -0.2375 -0.3127
 5483TP3     H128268   1.670   5.214   1.142  1.1352 -1.8944 -2.9881
 5483TP3     H228269   1.764   5.319   1.199 -1.5258 -1.5515  1.1685
 5484TP3      O28270   0.996   0.250   2.212 -0.1661  0.0255  0.1870
 5484TP3     H128271   1.073   0.304   2.228  0.7624 -1.1003 -0.2729
 5484TP3     H228272   0.955   0.288   2.135  1.8367 -1.2822 -1.6270
 5485TP3      O28273   3.189   0.272   7.584 -0.8577 -0.4124 -0.3947
 5485TP3     H128274   3.221   0.186   7.608  0.2427 -0.5177 -2.0696
 5485TP3     H228275   3.097   0.258   7.558 -1.2979 -0.6971  1.2182
 5486TP3      O28276   3.200   3.415   1.459 -0.2870  0.0167  0.6227
 5486TP3     H128277   3.154   3.493   1.488  0.2209  1.2884 -1.6841
 5486TP3     H228278   3.292   3.432   1.481  0.2419  1.3922 -2.1681
 5487TP3      O28279   1.376   1.320   1.270  0.2917  0.5496 -0.0680
 5487TP3     H128280   1.424   1.342   1.191 -0.6827  1.8453 -0.3407
 5487TP3     H228281   1.285   1.345   1.251 -0.1257  0.0508  1.1291
 5488TP3      O28282   4.215   1.998   0.983  0.0529 -0.1660 -0.0603
 5488TP3     H128283   4.206   1.905   1.005  2.9308 -0.4156  0.4534
 5488TP3     H228284   4.265   1.998   0.901 -0.2405  0.9386 -0.2487
 5489TP3      O28285   3.034   2.685   3.459  0.1307  0.2583 -0.2295
 5489TP3     H128286   2.968   2.683   3.528 -0.0746 -2.2297 -0.3830
 5489TP3     H228287   3.048   2.778   3.440 -0.7303  0.9539  2.2516
 5490TP3      O28288   1.083   2.543   7.411  0.3014  0.3042 -0.3819
 5490TP3     H128289   1.049   2.500   7.333 -2.6340  0.1271  0.8669
 5490TP3     H228290   1.062   2.483   7.483 -1.4826  2.4800  1.0814
 5491TP3      O28291   3.294   4.705   9.190 -0.0127 -0.4897 -0.3029
 5491TP3     H128292   3.339   4.623   9.171 -0.3399 -0.6584 -0.3580
 5491TP3     H228293   3.209   4.678   9.225  0.7503 -0.2285  1.9498
 5492TP3      O28294   4.663   4.179   0.077 -0.4707 -0.0135  0.3156
 5492TP3     H128295   4.634   4.264   0.045 -1.9731  0.0589  1.7260
 5492TP3     H228296   4.661   4.188   0.173  1.8997 -0.8312  0.5279
 5493TP3      O28297   4.732   2.056   0.060  0.5930  0.4783  0.2721
 5493TP3     H128298   4.692   2.029  -0.023  1.0354  2.7578 -0.7476
 5493TP3     H228299   4.660   2.052   0.123  0.2611 -1.3393 -0.1643
 5494TP3      O28300   1.588   1.724   9.044 -0.0826  0.1736 -0.3268
 5494TP3     H128301   1.529   1.660   9.083 -1.2904  1.2492 -0.3098
 5494TP3     H228302   1.578   1.711   8.949  1.7026 -1.4181 -0.3456
 5495TP3      O28303   5.090   1.562   6.898 -0.0786 -0.0524  0.9139
 5495TP3     H128304   5.035   1.501   6.947  0.0152 -0.2719  0.7491
 5495TP3     H228305   5.158   1.589   6.960 -0.6383  0.5841  1.2635
 5496TP3      O28306   2.118   1.630   9.623 -0.2142 -0.4864  0.2865
 5496TP3     H128307   2.156   1.684   9.693  0.4396 -1.6095  0.8148
 5496TP3     H228308   2.027   1.659   9.617 -0.3962 -0.6664  1.8925
 5497TP3      O28309   1.629   2.613   8.960  0.0779 -0.3627 -0.3623
 5497TP3     H128310   1.683   2.534   8.966 -0.3152 -0.6380 -0.4717
 5497TP3     H228311   1.545   2.589   8.997  0.6357  0.6585  1.7168
 5498TP3      O28312   2.331   4.658   1.580 -0.1741  0.3889  0.1789
 5498TP3     H128313   2.249   4.666   1.630  0.4716  2.0024  1.0517
 5498TP3     H228314   2.399   4.649   1.647  0.3271 -1.7145 -0.5544
 5499TP3      O28315   4.213   3.515   1.532  0.1652  0.4840 -0.0774
 5499TP3     H128316   4.228   3.453   1.603  0.8452  0.6582 -0.0600
 5499TP3     H228317   4.252   3.597   1.562 -0.3230  0.7994 -0.2876
 5500TP3      O28318   0.330   5.177   8.292 -0.2521 -0.3660 -0.2139
 5500TP3     H128319   0.241   5.193   8.260 -0.3076  0.4874  0.3438
 5500TP3     H228320   0.350   5.253   8.346  1.1269 -0.1435 -0.9870
 5501TP3      O28321   5.030   1.074   1.601  0.5160 -0.2279  0.2818
 5501TP3     H128322   4.938   1.075   1.625  0.4768 -1.0426  0.1790
 5501TP3     H228323   5.077   1.089   1.684  0.2972  0.6797  0.2606
 5502TP3      O28324   0.886   3.392   0.536  0.5852 -0.4487 -0.4374
 5502TP3     H128325   0.911   3.477   0.502 -1.0032  0.3907  0.3913
 5502TP3     H228326   0.818   3.360   0.476  0.8110 -0.9082 -0.4574
 5503TP3      O28327   2.823   3.530   2.590 -0.5359  0.2766 -0.4673
 5503TP3     H128328   2.834   3.620   2.560 -1.0895  0.2685 -0.6979
 5503TP3     H228329   2.729   3.519   2.600 -0.3775  0.4389  1.7758
 5504TP3      O28330   2.151   2.320   3.099 -0.2598 -0.1823  0.9803
 5504TP3     H128331   2.223   2.287   3.045 -0.3432 -0.1953  0.8765
 5504TP3     H228332   2.151   2.414   3.083 -0.7309 -0.2768  0.4151
 5505TP3      O28333   2.578   1.672   8.991  0.3886 -0.4815 -0.1119
 5505TP3     H128334   2.627   1.664   8.910  0.6372  0.3084 -0.0432
 5505TP3     H228335   2.583   1.765   9.014  1.0314 -0.8334  1.2482
 5506TP3      O28336   5.093   2.231   3.208 -0.3649 -0.1599 -0.0591
 5506TP3     H128337   5.038   2.158   3.237  0.5607 -0.1558  1.9055
 5506TP3     H228338   5.180   2.192   3.195  0.1514  0.5389  1.0597
 5507TP3      O28339   1.470   1.040   1.313 -0.2691 -0.0437 -0.1730
 5507TP3     H128340   1.473   1.127   1.273  1.4380  0.3978  0.8090
 5507TP3     H228341   1.486   1.057   1.406 -1.3556 -1.2902  0.2532
 5508TP3      O28342   3.402   2.908   8.512  0.1766 -0.1702  0.5075
 5508TP3     H128343   3.354   2.857   8.577 -0.5157  0.1308  0.2392
 5508TP3     H228344   3.377   2.999   8.530 -0.4915 -0.1365 -0.5551
 5509TP3      O28345   4.283   1.843   7.712 -0.3901  0.0508 -0.0784
 5509TP3     H128346   4.326   1.859   7.797 -0.2557  0.3918 -0.2089
 5509TP3     H228347   4.308   1.754   7.690 -1.6006 -0.5682  0.9239
 5510TP3      O28348   0.525   0.551   1.922 -0.1210 -0.3420  0.1595
 5510TP3     H128349   0.497   0.460   1.911 -0.2127 -0.3986  0.7765
 5510TP3     H228350   0.453   0.603   1.886 -0.1280 -0.5133 -0.0734
 5511TP3      O28351   0.366   4.097   8.492  0.2685  0.2293  0.1473
 5511TP3     H128352   0.349   4.008   8.521  0.2225  0.1079 -0.2516
 5511TP3     H228353   0.461   4.106   8.495  0.4659 -0.5977 -2.0193
 5512TP3      O28354   2.286   4.733   8.689 -0.5129 -0.0249 -0.4904
 5512TP3     H128355   2.241   4.783   8.620 -0.4939  0.4177 -0.1887
 5512TP3     H228356   2.292   4.644   8.654 -1.0412  0.0567 -0.8092
 5513TP3      O28357   2.614   3.046   1.342  0.6000 -0.4165 -0.6147
 5513TP3     H128358   2.597   3.112   1.410  1.0773 -1.3799  0.4813
 5513TP3     H228359   2.663   3.092   1.275  0.0435  0.5844 -0.3575
 5514TP3      O28360   3.542   3.078   7.924  0.6826 -0.1125 -0.6120
 5514TP3     H128361   3.506   3.155   7.879 -1.1176 -0.9126 -0.6568
 5514TP3     H228362   3.635   3.080   7.905  0.7578  2.2720 -0.2700
 5515TP3      O28363   2.753   4.844   8.222 -0.3329 -0.2228 -0.1190
 5515TP3     H128364   2.667   4.824   8.260 -1.7634  0.3421 -2.7668
 5515TP3     H228365   2.762   4.938   8.235 -0.4162 -0.1769 -0.3941
 5516TP3      O28366   2.046   1.131   7.602 -0.0248 -0.4220  0.5269
 5516TP3     H128367   1.975   1.193   7.619 -0.3577 -0.7833  0.4789
 5516TP3     H228368   2.118   1.160   7.658  0.7560  1.5613 -1.3781
 5517TP3      O28369   0.493   0.533   1.060 -0.4843  0.2317  0.2370
 5517TP3     H128370   0.419   0.525   1.000 -0.6215 -0.1706  0.4601
 5517TP3     H228371   0.480   0.465   1.125  0.5132 -0.3757 -0.1682
 5518TP3      O28372   1.490   1.439   1.724  0.1253  0.3219 -0.6128
 5518TP3     H128373   1.547   1.364   1.736 -0.5976 -0.5729 -2.3200
 5518TP3     H228374   1.531   1.510   1.773  0.9283 -1.1249  0.8710
 5519TP3      O28375   4.088   4.362   3.058  0.2296 -0.4913  0.0662
 5519TP3     H128376   4.163   4.346   3.115  0.0546  0.7737  0.6908
 5519TP3     H228377   4.067   4.455   3.071 -0.4298 -0.4170 -1.3216
 5520TP3      O28378   0.757   4.535   0.745  0.0342 -0.4063 -0.1141
 5520TP3     H128379   0.811   4.580   0.809  0.0457 -0.8079  0.1572
 5520TP3     H228380   0.732   4.453   0.787 -0.0874 -0.6024 -0.5619
 5521TP3      O28381   0.197   1.013   7.656 -0.2056 -0.0788  0.1431
 5521TP3     H128382   0.244   0.961   7.590 -0.2937  0.1489 -0.1017
 5521TP3     H228383   0.164   1.088   7.607 -0.4570 -0.0185  0.4064
 5522TP3      O28384   2.037   0.076   8.398  0.2372 -0.1263  0.5705
 5522TP3     H128385   2.113   0.019   8.390  1.6394  1.8797 -2.4559
 5522TP3     H228386   2.069   0.152   8.447 -0.1738  0.1883  0.3623
 5523TP3      O28387   4.977   0.034   8.937  0.3141 -0.4304 -0.1432
 5523TP3     H128388   5.001   0.082   9.017 -1.2645 -0.5373  0.4279
 5523TP3     H228389   4.933   0.099   8.882  1.4287 -0.3480 -0.9906
 5524TP3      O28390   1.120   1.550   7.804  0.5766  0.0769  0.1276
 5524TP3     H128391   1.149   1.613   7.870  0.0662  1.2367 -0.7172
 5524TP3     H228392   1.159   1.581   7.722 -0.0929 -0.4081 -0.3903
 5525TP3      O28393   3.168   4.108   6.878 -0.1034 -0.0877 -0.0516
 5525TP3     H128394   3.194   4.048   6.947  1.7702 -1.3085 -1.7400
 5525TP3     H228395   3.072   4.099   6.873 -0.7764  2.1107  4.1244
 5526TP3      O28396   0.904   5.213   0.490  0.3413 -0.0798 -0.5372
 5526TP3     H128397   0.971   5.179   0.549 -0.3149 -0.6851 -0.1358
 5526TP3     H228398   0.918   5.308   0.492  0.1084 -0.0458  0.8788
 5527TP3      O28399   5.073   2.255   8.602 -0.9006  0.6580 -0.4575
 5527TP3     H128400   5.091   2.271   8.695 -1.1853  0.5201 -0.3786
 5527TP3     H228401   4.981   2.229   8.599 -0.7250  0.0305 -0.6968
 5528TP3      O28402   1.912   5.066   7.990 -0.3811 -0.0411  0.0502
 5528TP3     H128403   1.853   5.006   7.944 -0.8141  0.7502 -0.4607
 5528TP3     H228404   1.963   5.010   8.048 -1.5318 -0.7653  0.3973
 5529TP3      O28405   4.506   5.176   9.320 -0.4031  0.0525 -0.0317
 5529TP3     H128406   4.428   5.137   9.358  0.0075 -2.0654 -1.2109
 5529TP3     H228407   4.567   5.184   9.394 -1.0707 -0.0297  0.5373
 5530TP3      O28408   3.523   5.153   1.651 -0.4838 -0.6110  0.1293
 5530TP3     H128409   3.478   5.140   1.567  0.3029 -1.4101 -0.1903
 5530TP3     H228410   3.527   5.066   1.690 -2.1494 -0.0213  1.7185
 5531TP3      O28411   1.069   3.809   3.413 -0.0728  0.0950 -0.3616
 5531TP3     H128412   1.113   3.831   3.331  0.1404 -0.1078 -0.3019
 5531TP3     H228413   1.066   3.892   3.462 -1.3501  0.5237 -1.1019
 5532TP3      O28414   1.908   0.450   2.163  0.2482  0.3092  0.3847
 5532TP3     H128415   1.995   0.456   2.123 -0.0442  2.7100 -0.0522
 5532TP3     H228416   1.913   0.509   2.238 -0.6092 -0.6196  1.1919
 5533TP3      O28417   0.599   2.749   7.644 -0.2392 -0.1376  0.4372
 5533TP3     H128418   0.655   2.811   7.598 -1.5069  0.0682 -0.8873
 5533TP3     H228419   0.591   2.785   7.732  0.8998  0.3317  0.3726
 5534TP3      O28420   3.407   1.632   0.728 -0.1059  0.2642 -0.4160
 5534TP3     H128421   3.483   1.585   0.762  0.0732  0.6380 -0.2994
 5534TP3     H228422   3.339   1.565   0.720 -0.0066  0.0845  0.2354
 5535TP3      O28423   3.670   4.048   1.477 -0.1243 -0.0113  0.0244
 5535TP3     H128424   3.764   4.034   1.464 -0.2021 -2.0619  1.1697
 5535TP3     H228425   3.632   4.035   1.391  0.3566 -2.8535  0.1386
 5536TP3      O28426   0.775   2.552   8.758  0.0652 -0.0779 -0.0085
 5536TP3     H128427   0.710   2.489   8.728  0.1248  0.1292 -0.5909
 5536TP3     H228428   0.787   2.532   8.851 -1.1772  0.1867  0.2310
 5537TP3      O28429   2.776   3.661   8.436 -0.3170  0.0811  0.5315
 5537TP3     H128430   2.763   3.651   8.342 -1.1269  0.3433  0.6088
 5537TP3     H228431   2.848   3.601   8.457 -0.8054 -0.7401 -0.0859
 5538TP3      O28432   2.580   2.007   2.158 -0.4034 -0.2482  0.5348
 5538TP3     H128433   2.592   2.009   2.063 -2.9439 -0.1090  0.1378
 5538TP3     H228434   2.646   2.067   2.192  0.8728 -0.6693 -1.0824
 5539TP3      O28435   4.225   1.291   1.684  0.2195  0.2177 -0.0947
 5539TP3     H128436   4.251   1.338   1.605  0.6540  0.6932  0.3299
 5539TP3     H228437   4.132   1.273   1.671 -0.4618  2.8262  0.5294
 5540TP3      O28438   4.846   4.084   9.224 -0.2762  0.2742 -0.4310
 5540TP3     H128439   4.927   4.035   9.241  0.3418  1.2768 -0.3529
 5540TP3     H228440   4.836   4.080   9.129 -2.7558 -3.8154 -0.2311
 5541TP3      O28441   1.883   2.601   1.773 -0.0445 -0.2670  0.0640
 5541TP3     H128442   1.798   2.608   1.728  0.4090 -0.6390 -0.8801
 5541TP3     H228443   1.864   2.553   1.854 -1.3699  2.6834  1.6765
 5542TP3      O28444   1.141   2.488   0.711 -0.4245 -1.2628 -0.3779
 5542TP3     H128445   1.220   2.438   0.690  0.5949  0.9256 -2.1328
 5542TP3     H228446   1.095   2.495   0.627 -0.4790  0.7905 -0.2097
 5543TP3      O28447   0.171   1.912   1.033 -0.3656  0.1062  0.0026
 5543TP3     H128448   0.131   1.865   0.960 -1.7476 -0.3010  0.9917
 5543TP3     H228449   0.233   1.849   1.071 -2.2181 -1.0069  1.3305
 5544TP3      O28450   4.678   4.339   0.334 -0.0924 -0.6456  0.2278
 5544TP3     H128451   4.697   4.420   0.382 -0.8455 -1.0262  1.2279
 5544TP3     H228452   4.595   4.309   0.372  0.8274 -2.5720  0.8069
 5545TP3      O28453   5.219   2.534   0.123  0.5108 -0.2706  0.2534
 5545TP3     H128454   5.230   2.548   0.029 -0.2693 -0.8515  0.0618
 5545TP3     H228455   5.177   2.449   0.130 -1.6135  0.7512  0.9954
 5546TP3      O28456   3.818   2.291   0.867  0.1198  0.1981  0.1679
 5546TP3     H128457   3.766   2.348   0.925 -1.5747 -0.0088 -1.0858
 5546TP3     H228458   3.896   2.270   0.919 -0.9968  0.5765  2.1168
 5547TP3      O28459   3.335   0.711   1.175 -0.2494 -0.2139  0.7282
 5547TP3     H128460   3.357   0.780   1.238 -1.1903  0.4674  0.3396
 5547TP3     H228461   3.395   0.725   1.102  0.1855 -0.3933  1.0482
 5548TP3      O28462   4.278   0.484   2.247 -0.0440  0.1026  0.0695
 5548TP3     H128463   4.278   0.576   2.220  0.9603 -0.1218 -0.7607
 5548TP3     H228464   4.284   0.487   2.342 -3.3605  0.9197  0.3827
 5549TP3      O28465   1.833   0.194   9.271 -0.7897 -0.4193  0.1151
 5549TP3     H128466   1.846   0.151   9.186  0.6706  0.0043  0.0946
 5549TP3     H228467   1.916   0.238   9.289 -1.4059  0.3221  1.3147
 5550TP3      O28468   3.024   4.384   9.416 -0.0898 -0.2448 -0.3390
 5550TP3     H128469   2.975   4.308   9.447  1.0736 -1.3369 -1.0824
 5550TP3     H228470   3.036   4.369   9.323  1.7709 -0.1171 -0.1726
 5551TP3      O28471   3.106   0.854   7.547  0.3151  0.0192  0.3109
 5551TP3     H128472   3.133   0.762   7.547 -0.6421 -0.2984  1.8990
 5551TP3     H228473   3.012   0.852   7.529  0.5867  0.8363 -1.3596
 5552TP3      O28474   3.011   1.135   7.021  0.0035  0.0263 -0.0341
 5552TP3     H128475   2.944   1.199   6.996  0.8150  0.7595 -0.3496
 5552TP3     H228476   3.086   1.187   7.048  1.3655 -0.7442 -2.0475
 5553TP3      O28477   2.653   4.083   8.638  0.4641  0.3025  0.1088
 5553TP3     H128478   2.562   4.109   8.628  0.8660  1.1138 -1.9512
 5553TP3     H228479   2.652   3.988   8.627 -0.0891  0.3428 -0.2223
 5554TP3      O28480   3.472   3.437   1.533 -0.2484  0.3051  0.5267
 5554TP3     H128481   3.515   3.369   1.585 -0.9336 -0.7191 -0.2205
 5554TP3     H228482   3.534   3.457   1.463 -0.5541 -0.4728  0.0165
 5555TP3      O28483   1.933   2.947   1.654 -0.1398 -0.0975  0.4906
 5555TP3     H128484   2.006   2.990   1.610  0.6152 -0.7255  1.1128
 5555TP3     H228485   1.898   2.886   1.590 -2.5561  2.7735 -1.1947
 5556TP3      O28486   3.739   4.976   7.919  0.2201  0.2925  0.1971
 5556TP3     H128487   3.749   4.923   7.997  1.2090 -1.3340 -0.9802
 5556TP3     H228488   3.645   4.971   7.898  0.5195 -2.3942 -0.7950
 5557TP3      O28489   1.384   0.729   0.804 -0.1700  0.0837 -0.6269
 5557TP3     H128490   1.440   0.802   0.779  1.5142 -0.8809  0.1585
 5557TP3     H228491   1.299   0.769   0.823  0.3291  1.6352 -1.5038
 5558TP3      O28492   3.896   2.715   7.505 -0.1792  0.1001 -0.7208
 5558TP3     H128493   3.854   2.679   7.427 -0.7831 -0.4038 -0.1764
 5558TP3     H228494   3.981   2.670   7.509 -0.8532 -1.1837 -0.1440
 5559TP3      O28495   1.025   4.997   1.265  0.0027 -0.0205  0.4430
 5559TP3     H128496   1.025   4.962   1.354 -1.2171 -0.3932  0.3219
 5559TP3     H228497   0.951   4.954   1.222 -0.8930  1.8799 -0.0427
 5560TP3      O28498   3.019   0.943  10.095  0.1951  0.5131  0.0562
 5560TP3     H128499   2.936   0.902  10.121  0.4233  1.3244  2.3023
 5560TP3     H228500   2.999   1.037  10.091  0.5399  0.5494 -1.4692
 5561TP3      O28501   4.865   2.689   1.886 -0.1776 -0.0403  0.1694
 5561TP3     H128502   4.878   2.629   1.959 -4.0071 -1.4119 -0.0485
 5561TP3     H228503   4.882   2.776   1.922  0.2068 -0.8553  2.0462
 5562TP3      O28504   0.796   4.201   2.386 -0.0295 -0.3878  0.1234
 5562TP3     H128505   0.817   4.283   2.431 -2.5632 -0.4391  1.5638
 5562TP3     H228506   0.852   4.136   2.430 -0.4802  0.0219  1.3640
 5563TP3      O28507   0.734   4.582   1.280 -0.1511  0.3655 -0.2602
 5563TP3     H128508   0.784   4.512   1.237 -0.7040  0.4976 -1.1535
 5563TP3     H228509   0.643   4.558   1.266 -0.3483  0.3951  0.9068
 5564TP3      O28510   0.631   1.269   8.576 -0.2255  0.0668 -0.7585
 5564TP3     H128511   0.557   1.322   8.548 -1.5194 -0.8648  0.7392
 5564TP3     H228512   0.613   1.182   8.541  1.1777  0.2579 -2.0276
 5565TP3      O28513   1.396   3.636   8.666  0.2753 -0.5291  0.3317
 5565TP3     H128514   1.483   3.644   8.705  0.9336  0.0180 -1.1533
 5565TP3     H228515   1.394   3.547   8.631 -0.5352 -1.2215  2.0509
 5566TP3      O28516   2.467   1.006   8.932 -0.4358 -0.0815  0.0075
 5566TP3     H128517   2.405   0.983   9.001 -0.7342  1.5818  0.3268
 5566TP3     H228518   2.489   1.097   8.948  0.1678  0.0923 -1.5868
 5567TP3      O28519   1.096   4.682   8.965  0.5531 -0.1889  0.5816
 5567TP3     H128520   1.144   4.625   9.026  1.5656  1.5810  1.4990
 5567TP3     H228521   1.058   4.749   9.020 -0.4968  0.1361 -0.5063
 5568TP3      O28522   4.149   3.468   9.163  1.0891  0.1859 -0.6098
 5568TP3     H128523   4.084   3.424   9.107  0.4942  0.9590 -0.5469
 5568TP3     H228524   4.115   3.557   9.173 -0.3026 -0.5884  3.1481
 5569TP3      O28525   0.885   1.364   2.945 -0.3667  0.2851  0.0399
 5569TP3     H128526   0.975   1.366   2.912 -0.4246 -1.0372 -0.2524
 5569TP3     H228527   0.887   1.419   3.024  0.3963  1.2823 -0.6385
 5570TP3      O28528   3.999   0.228   2.435  0.1573 -0.3883 -0.3130
 5570TP3     H128529   3.926   0.282   2.405  0.9583  1.1192  0.3605
 5570TP3     H228530   3.959   0.143   2.453 -1.6422  0.6272  0.8882
 5571TP3      O28531   0.787   1.281   8.061 -0.8294  0.3117  0.2667
 5571TP3     H128532   0.879   1.302   8.041 -1.1028 -0.2847 -1.9377
 5571TP3     H228533   0.772   1.320   8.147  1.5826  0.1270  0.8607
 5572TP3      O28534   1.464   5.281   2.664  0.1984  0.0352  0.3673
 5572TP3     H128535   1.532   5.257   2.727  1.3085 -1.6586 -1.3645
 5572TP3     H228536   1.481   5.225   2.588 -3.1545 -0.4929 -0.1537
 5573TP3      O28537   5.184   4.800   8.455 -0.3159 -0.0222 -0.5097
 5573TP3     H128538   5.192   4.817   8.361 -1.3910  0.0359 -0.6038
 5573TP3     H228539   5.097   4.832   8.477  0.8251  2.2973  1.0204
 5574TP3      O28540   2.452   4.731  10.115  0.5349 -0.0344  0.2892
 5574TP3     H128541   2.532   4.721  10.064  0.0131 -2.0920 -0.1989
 5574TP3     H228542   2.479   4.782  10.192  1.7603  1.3697 -1.0079
 5575TP3      O28543   3.716   3.855   3.764  0.4547 -0.1332 -0.5509
 5575TP3     H128544   3.659   3.785   3.796  0.1070 -0.2812 -1.4566
 5575TP3     H228545   3.791   3.808   3.725  1.0395  0.0502  0.3231
 5576TP3      O28546   0.032   4.228   3.350 -0.0712 -0.2775 -0.1907
 5576TP3     H128547   0.112   4.279   3.332 -0.2696 -0.5438 -2.0768
 5576TP3     H228548  -0.018   4.282   3.411  0.6337  0.8530 -0.5785
 5577TP3      O28549   4.595   2.107   7.209 -0.2140  0.4196 -0.2946
 5577TP3     H128550   4.544   2.027   7.221  0.4724 -0.0362 -0.3345
 5577TP3     H228551   4.627   2.128   7.297 -1.5728  1.4799 -0.0193
 5578TP3      O28552   0.696   4.923   0.915 -0.4169 -0.3083  0.2537
 5578TP3     H128553   0.703   4.863   0.989 -0.3403 -0.8577 -0.2001
 5578TP3     H228554   0.786   4.939   0.887 -0.5507 -2.4513 -1.5983
 5579TP3      O28555   0.456   3.320   2.746  0.3732  0.2840  0.2196
 5579TP3     H128556   0.475   3.380   2.817 -1.1116  1.2271 -0.1455
 5579TP3     H228557   0.401   3.252   2.785  1.9521 -0.8528  0.6043
 5580TP3      O28558   2.399   4.932   3.336  0.2579 -0.1288 -0.2308
 5580TP3     H128559   2.489   4.901   3.341 -0.2458 -1.4729  2.1526
 5580TP3     H228560   2.359   4.880   3.267  0.8226 -0.9576  0.0510
 5581TP3      O28561   2.897   3.526   1.627  0.3914 -0.8051 -0.6946
 5581TP3     H128562   2.970   3.587   1.615  0.9059 -1.3278 -0.2730
 5581TP3     H228563   2.878   3.493   1.539  0.4614 -0.4489 -0.8466
 5582TP3      O28564   0.211   3.681   8.764  0.0445 -0.4535  0.1260
 5582TP3     H128565   0.137   3.651   8.711  0.1564 -0.2391 -0.1508
 5582TP3     H228566   0.265   3.603   8.777  0.3068 -0.3884 -0.5425
 5583TP3      O28567   2.874   2.487   1.698 -0.2260  0.0018  0.3336
 5583TP3     H128568   2.862   2.582   1.691 -2.0106 -0.2022  0.1760
 5583TP3     H228569   2.795   2.450   1.660 -0.5293 -1.5218  2.2742
 5584TP3      O28570   3.147   5.098   2.406 -0.4071  0.5213 -0.1072
 5584TP3     H128571   3.097   5.046   2.469 -0.4610 -0.2880 -0.7955
 5584TP3     H228572   3.236   5.101   2.441 -0.3553 -0.2235 -0.1658
 5585TP3      O28573   4.422   3.381   7.478 -0.5423 -0.5540 -1.4252
 5585TP3     H128574   4.358   3.368   7.408 -1.9991  0.9490 -0.4639
 5585TP3     H228575   4.480   3.449   7.444 -0.3014 -0.9175 -1.7529
 5586TP3      O28576   0.110   1.000   0.519  0.3143  0.4795 -0.0318
 5586TP3     H128577   0.195   1.043   0.527 -0.6856  2.3440  1.3019
 5586TP3     H228578   0.076   1.029   0.434  1.6556 -1.6671 -1.4037
 5587TP3      O28579   4.912   0.141   7.119  0.4560  0.4605  0.3013
 5587TP3     H128580   4.930   0.157   7.212  1.4017 -1.1796  0.4299
 5587TP3     H228581   4.999   0.133   7.080  0.0601 -0.6081 -0.3901
 5588TP3      O28582   1.143   1.436   8.242  0.5248  0.1449 -0.0436
 5588TP3     H128583   1.093   1.491   8.302 -2.0481 -0.8455 -1.1172
 5588TP3     H228584   1.124   1.347   8.271 -0.2675 -0.3271 -1.8595
 5589TP3      O28585   3.669   1.993   2.869 -0.2198 -0.5086 -0.2472
 5589TP3     H128586   3.671   2.088   2.860  0.8848 -0.6079 -1.3030
 5589TP3     H228587   3.589   1.966   2.823 -0.9190 -0.0525  0.6777
 5590TP3      O28588   2.975   4.612   0.863  0.4421 -0.1858  0.4947
 5590TP3     H128589   2.923   4.534   0.882  0.0070 -0.2558 -0.8285
 5590TP3     H228590   3.047   4.579   0.809  1.4309  0.0358  1.6376
 5591TP3      O28591   1.687   4.090   0.462 -0.0117  0.0238  0.3565
 5591TP3     H128592   1.665   4.128   0.546 -0.1146 -0.8792  0.7481
 5591TP3     H228593   1.698   3.997   0.479  1.3017  0.0138 -0.3704
 5592TP3      O28594   4.843   1.780   0.065 -0.0903  0.1801 -0.3603
 5592TP3     H128595   4.935   1.792   0.089  0.2526  1.7211 -2.1808
 5592TP3     H228596   4.806   1.868   0.070 -1.5498 -0.4588  0.5476
 5593TP3      O28597   0.009   4.928   9.894  0.1921  0.8886 -0.3781
 5593TP3     H128598  -0.024   4.881   9.971  0.7892  1.2572  0.1220
 5593TP3     H228599   0.104   4.930   9.907  0.4151 -0.0128 -1.7014
 5594TP3      O28600   4.829   1.986   7.629 -0.2893  0.2170 -0.0026
 5594TP3     H128601   4.892   2.058   7.637  0.1589  0.0669 -1.7313
 5594TP3     H228602   4.868   1.915   7.681 -0.6313  1.1129  1.5435
 5595TP3      O28603   4.526   2.279   0.382  0.5470  0.5365  0.1961
 5595TP3     H128604   4.436   2.281   0.349  0.2272  2.2454  1.0419
 5595TP3     H228605   4.580   2.284   0.304 -0.1027  0.4632 -0.2712
 5596TP3      O28606   1.950   0.634   2.365  0.1423  0.2700 -0.1020
 5596TP3     H128607   1.915   0.694   2.431  0.0343 -0.0009  0.0897
 5596TP3     H228608   2.010   0.577   2.414  0.7859  0.6721 -0.4096
 5597TP3      O28609   1.871   2.809   9.018  0.0209 -0.0282 -0.2122
 5597TP3     H128610   1.832   2.732   8.978 -1.7351 -0.0858  1.4551
 5597TP3     H228611   1.879   2.787   9.111 -0.9295  1.9230  0.3844
 5598TP3      O28612   1.199   1.910   0.462 -0.6704 -0.0545 -0.1277
 5598TP3     H128613   1.157   1.824   0.463 -1.5193  0.3289  1.7149
 5598TP3     H228614   1.160   1.957   0.536  2.1841  0.7358  1.0118
 5599TP3      O28615   2.578   1.507   0.753  0.6426  0.6597 -0.0469
 5599TP3     H128616   2.525   1.524   0.831 -0.3453 -0.4096 -0.4582
 5599TP3     H228617   2.553   1.576   0.692  0.1758  0.5112 -0.0231
 5600TP3      O28618   3.467   4.937   7.920 -0.4845 -0.2644 -0.2396
 5600TP3     H128619   3.453   4.844   7.901  1.0619 -0.4741 -0.4809
 5600TP3     H228620   3.395   4.981   7.876 -0.4472 -1.2545 -1.3577
 5601TP3      O28621   4.501   0.507   6.835 -0.1157  0.0593  0.1746
 5601TP3     H128622   4.574   0.504   6.897 -0.0775 -2.5919  0.1199
 5601TP3     H228623   4.493   0.599   6.811  1.3418  0.8252  2.3692
 5602TP3      O28624   3.177   2.168   2.169 -0.0903 -0.0420 -0.2316
 5602TP3     H128625   3.270   2.158   2.189 -0.1081 -0.2108 -0.2274
 5602TP3     H228626   3.132   2.127   2.243 -0.1539 -0.8792 -0.7089
 5603TP3      O28627   3.383   1.826   0.924 -0.0639 -0.2788 -0.3226
 5603TP3     H128628   3.397   1.778   0.842  0.5855  0.3264 -0.5703
 5603TP3     H228629   3.470   1.860   0.947 -0.3829  0.1710  0.2322
 5604TP3      O28630   0.725   2.767   2.130 -0.6215  0.5095 -0.1539
 5604TP3     H128631   0.647   2.810   2.166 -2.8463 -3.2946  0.1829
 5604TP3     H228632   0.713   2.773   2.035 -0.4228  1.3104 -0.1395
 5605TP3      O28633   1.365   1.104   7.956 -0.1134  0.5032  0.1367
 5605TP3     H128634   1.352   1.183   8.008  0.2742  0.9068 -0.3699
 5605TP3     H228635   1.368   1.033   8.020 -1.7290  0.7408  0.5205
 5606TP3      O28636   3.711   0.621   0.328  0.2110  0.0302 -0.0386
 5606TP3     H128637   3.626   0.628   0.284  0.4846  1.1055 -0.4107
 5606TP3     H228638   3.708   0.536   0.372 -0.3569 -0.7456 -1.5182
 5607TP3      O28639   0.051   2.970   1.226  0.6198 -0.6019  0.0226
 5607TP3     H128640   0.110   2.895   1.237  0.4463 -0.8827 -0.8822
 5607TP3     H228641  -0.032   2.940   1.264  0.4773 -0.9651 -0.5724
 5608TP3      O28642   2.228   3.810   1.010  0.2116  0.4097  0.0813
 5608TP3     H128643   2.166   3.865   0.962 -0.2855 -1.2806 -1.3189
 5608TP3     H228644   2.178   3.777   1.085  0.5414  1.8680  0.9850
 5609TP3      O28645   1.388   5.006   0.171 -0.2756 -0.0580  0.1660
 5609TP3     H128646   1.371   5.091   0.129 -1.3277 -0.7168 -0.8310
 5609TP3     H228647   1.347   5.014   0.257  1.7733  1.2645  1.0991
 5610TP3      O28648   3.285   0.217   0.020  0.4919 -0.5491 -0.6437
 5610TP3     H128649   3.194   0.201  -0.003  0.2464  0.4039 -0.3903
 5610TP3     H228650   3.318   0.273  -0.051  0.5265  0.0942 -0.1323
 5611TP3      O28651   2.430   4.738   8.322 -0.0747  0.1250 -0.2578
 5611TP3     H128652   2.347   4.744   8.275 -0.0813  1.2264 -0.1233
 5611TP3     H228653   2.421   4.797   8.396  1.2834  1.2857 -0.9613
 5612TP3      O28654   5.034   1.012   7.779  1.0782 -0.2904  0.4720
 5612TP3     H128655   5.086   0.944   7.822  0.8100 -0.0847  1.1331
 5612TP3     H228656   5.086   1.092   7.789  0.4996 -0.0178  1.4236
 5613TP3      O28657   2.106   2.100   2.014 -0.0718  0.2945 -0.0977
 5613TP3     H128658   2.116   2.183   2.061  1.8233  0.4231 -0.6212
 5613TP3     H228659   2.196   2.070   2.000 -0.7039 -1.4482 -0.6425
 5614TP3      O28660   2.856   4.876   6.779 -0.3660 -0.6643 -0.2294
 5614TP3     H128661   2.796   4.887   6.853 -1.3708 -1.8508 -0.8343
 5614TP3     H228662   2.910   4.955   6.780 -2.8485  1.1774 -0.5019
 5615TP3      O28663   4.068   1.994   0.074 -0.0461  0.0279 -0.6909
 5615TP3     H128664   4.059   2.028   0.163  1.9877  1.0136 -0.7922
 5615TP3     H228665   3.992   1.937   0.062 -2.1653  2.3909  0.4958
 5616TP3      O28666   3.562   3.742   1.929 -0.3669  0.3004  0.2353
 5616TP3     H128667   3.575   3.778   1.841 -0.3498 -1.3898 -0.4998
 5616TP3     H228668   3.529   3.815   1.980 -1.5374  1.0376 -1.4769
 5617TP3      O28669   1.735   4.235   2.176 -0.2426  0.1596 -0.1955
 5617TP3     H128670   1.736   4.190   2.261  1.6120  0.2437 -0.1500
 5617TP3     H228671   1.732   4.164   2.112  3.3688 -0.1913 -0.1428
 5618TP3      O28672   3.583   0.200   9.498 -0.2556  0.6148 -0.6589
 5618TP3     H128673   3.516   0.225   9.562 -0.6560 -0.7716 -0.5016
 5618TP3     H228674   3.556   0.114   9.468  2.6340 -1.0612  1.0913
 5619TP3      O28675   2.883   0.531   8.839 -0.4361  0.0809 -0.4076
 5619TP3     H128676   2.928   0.475   8.903  1.7361  1.8174 -0.2717
 5619TP3     H228677   2.946   0.601   8.821 -2.3759  1.5768 -1.7987
 5620TP3      O28678   3.824   0.319   2.069  0.2807 -0.3506  0.3500
 5620TP3     H128679   3.777   0.331   1.987 -0.1961 -1.8503  0.3685
 5620TP3     H228680   3.847   0.408   2.097  0.5716  0.1857 -1.4471
 5621TP3      O28681   3.994   2.219   0.616  0.1539 -0.6167 -1.1695
 5621TP3     H128682   3.912   2.193   0.659  0.7277 -1.5014 -0.5756
 5621TP3     H228683   4.060   2.162   0.655  0.9933 -0.1752 -1.9208
 5622TP3      O28684   3.977   2.406   7.312 -0.1465 -0.1848 -0.1491
 5622TP3     H128685   4.019   2.406   7.226  1.6012  1.6941  0.6269
 5622TP3     H228686   3.906   2.469   7.303  0.7769  0.9163  0.0738
 5623TP3      O28687   3.705   0.115   2.222 -0.3685  0.2805  0.0932
 5623TP3     H128688   3.699   0.175   2.297 -2.9457  1.4243 -0.8885
 5623TP3     H228689   3.736   0.171   2.150  1.0656 -0.5592  0.0301
 5624TP3      O28690   0.142   3.247   9.275 -0.0289  0.3308  0.3529
 5624TP3     H128691   0.233   3.277   9.274  0.7692 -1.8486  1.2819
 5624TP3     H228692   0.097   3.305   9.214  2.1435  1.0150 -0.7065
 5625TP3      O28693   1.621   0.269   1.719 -0.7261 -0.1584  0.1387
 5625TP3     H128694   1.660   0.283   1.806 -0.6702 -2.8200  0.6342
 5625TP3     H228695   1.553   0.204   1.734 -1.8521  0.5763 -1.5826
 5626TP3      O28696   1.919   2.179   2.609 -0.2724 -0.1161 -0.3851
 5626TP3     H128697   1.892   2.268   2.588 -1.1621  0.1291  1.5930
 5626TP3     H228698   1.989   2.190   2.673  0.6286 -0.8422 -1.2237
 5627TP3      O28699   4.814   3.787   3.919  0.2489 -0.6466  0.3476
 5627TP3     H128700   4.738   3.766   3.972 -0.0286 -0.0311  0.2016
 5627TP3     H228701   4.817   3.883   3.918  0.7719 -0.6611 -0.0016
 5628TP3      O28702   3.055   5.102   0.876 -0.2777 -0.3064 -0.1502
 5628TP3     H128703   3.021   5.139   0.958  1.3290  0.4465  0.2190
 5628TP3     H228704   2.998   5.028   0.858 -1.1671 -0.0028  1.2155
 5629TP3      O28705   5.199   3.488   0.064 -1.0480  0.0839 -0.0737
 5629TP3     H128706   5.104   3.476   0.066 -1.3190  1.9749  2.4059
 5629TP3     H228707   5.223   3.508   0.154  1.5868  0.6487 -0.8124
 5630TP3      O28708   5.247   4.375   7.355  0.1181  0.3623  0.5966
 5630TP3     H128709   5.287   4.368   7.268  1.4177 -1.4826  1.2770
 5630TP3     H228710   5.178   4.309   7.355 -2.0183  2.4293 -0.0004
 5631TP3      O28711   3.132   3.125   7.033  0.1805  0.0275 -0.0658
 5631TP3     H128712   3.095   3.040   7.057 -2.1044  1.4742  2.0599
 5631TP3     H228713   3.209   3.133   7.089 -0.2424 -0.2057  0.5681
 5632TP3      O28714   2.453   1.149   7.309  0.1590  0.2937 -0.7221
 5632TP3     H128715   2.486   1.198   7.234  0.6965  2.0743  0.5983
 5632TP3     H228716   2.362   1.130   7.287  1.2372 -2.5901 -3.3967
 5633TP3      O28717   1.972   4.085   7.981  0.0839 -0.3376  0.5564
 5633TP3     H128718   1.906   4.150   8.006 -0.5870 -0.0229 -1.7515
 5633TP3     H228719   1.990   4.037   8.061  1.5631  3.4459  2.7530
 5634TP3      O28720   1.167   2.376   9.476  0.2715 -0.0786 -0.1015
 5634TP3     H128721   1.079   2.403   9.448 -0.4600 -0.3021  1.8181
 5634TP3     H228722   1.191   2.439   9.544  1.6054 -0.0425 -0.5881
 5635TP3      O28723   4.943   1.958   3.320 -0.1612 -0.2347  0.2930
 5635TP3     H128724   4.856   1.953   3.281 -0.2773  0.1262  0.5037
 5635TP3     H228725   4.961   1.869   3.350 -0.5938 -0.2368  0.5474
 5636TP3      O28726   2.609   2.264   2.433 -0.1664  0.1539  0.3243
 5636TP3     H128727   2.606   2.256   2.337  0.6552 -0.3766  0.3306
 5636TP3     H228728   2.696   2.233   2.456  0.7443  2.9122  0.9985
 5637TP3      O28729   0.409   1.320   7.674  0.3151 -0.0679 -0.0934
 5637TP3     H128730   0.406   1.415   7.690 -0.4878 -0.0159 -0.5189
 5637TP3     H228731   0.332   1.285   7.717 -0.5446 -0.2403 -1.7041
 5638TP3      O28732   3.293   3.244   9.689 -0.2468 -0.4677  0.0637
 5638TP3     H128733   3.270   3.328   9.728  0.2702  0.2706 -1.1428
 5638TP3     H228734   3.210   3.210   9.655 -0.5761 -0.7930  1.1610
 5639TP3      O28735   1.005   3.376   2.843 -0.4279 -0.3881  0.2891
 5639TP3     H128736   1.028   3.300   2.897  0.9056 -0.8678 -0.8887
 5639TP3     H228737   0.942   3.425   2.896  1.5089 -0.3059  2.7120
 5640TP3      O28738   2.521   4.122   9.062 -0.7620 -0.2204 -0.1076
 5640TP3     H128739   2.600   4.169   9.087 -0.8825 -0.7474  1.3244
 5640TP3     H228740   2.461   4.133   9.136 -2.2506  0.6211 -1.3875
 5641TP3      O28741   2.861   2.218   3.267 -0.0997  0.1911 -0.1971
 5641TP3     H128742   2.899   2.153   3.326 -0.6069  0.3185  0.2782
 5641TP3     H228743   2.902   2.301   3.294  3.1003 -0.2954 -2.9338
 5642TP3      O28744   0.260   2.008   8.812  0.3779 -0.6649  0.6950
 5642TP3     H128745   0.210   2.060   8.748 -0.1817 -1.2809  0.6153
 5642TP3     H228746   0.346   2.050   8.815  0.1884 -0.2069  0.0490
 5643TP3      O28747   1.581   0.423   9.665  0.3758 -0.0952  0.0899
 5643TP3     H128748   1.494   0.393   9.638  0.0496 -0.1578  1.1495
 5643TP3     H228749   1.637   0.406   9.589 -0.5108 -0.1470 -0.5748
 5644TP3      O28750   3.242   2.939   3.175  0.4218  0.7566  0.5158
 5644TP3     H128751   3.253   3.000   3.248 -2.2978  0.2015  1.5098
 5644TP3     H228752   3.287   2.860   3.202  1.0503  1.1842  0.7312
 5645TP3      O28753   3.845   1.541   6.857 -0.6592 -0.5997  0.0754
 5645TP3     H128754   3.931   1.503   6.876 -0.0874  0.4391 -0.3076
 5645TP3     H228755   3.865   1.624   6.813 -1.8275  0.6845  1.8427
 5646TP3      O28756   0.657   1.215   9.302  0.2276 -0.5314 -0.3324
 5646TP3     H128757   0.704   1.200   9.385  0.0973  0.1488 -0.1227
 5646TP3     H228758   0.623   1.304   9.311  1.4685  0.1151 -1.7226
 5647TP3      O28759   3.155   1.915   2.657 -0.2492  0.6105 -0.0970
 5647TP3     H128760   3.143   1.992   2.712 -2.2532  1.2064 -1.2640
 5647TP3     H228761   3.108   1.935   2.577  0.7435 -1.1087 -1.1806
 5648TP3      O28762   4.397   4.318   0.414 -0.2320  0.1490 -0.0433
 5648TP3     H128763   4.405   4.361   0.499  0.2025 -1.1687  0.6174
 5648TP3     H228764   4.359   4.232   0.434 -2.1824  0.6073 -1.4328
 5649TP3      O28765   0.371   4.752   1.174 -0.0250  0.0306 -0.0457
 5649TP3     H128766   0.385   4.743   1.080 -1.4803 -2.2254 -0.1129
 5649TP3     H228767   0.410   4.672   1.212  1.2070  1.2329  1.3963
 5650TP3      O28768   4.505   4.583  10.029  0.3156  0.4911 -0.3665
 5650TP3     H128769   4.547   4.530   9.961 -2.6674 -0.6697 -1.4774
 5650TP3     H228770   4.441   4.636   9.981 -0.5397  1.0474  1.3377
 5651TP3      O28771   0.507   2.103   8.780 -0.0217 -0.2190  0.1252
 5651TP3     H128772   0.538   2.046   8.710 -0.0611 -0.9931  0.7158
 5651TP3     H228773   0.585   2.120   8.833 -0.1010 -0.1131  0.2070
 5652TP3      O28774   0.254   2.958   2.469  0.4128 -0.4815 -0.4806
 5652TP3     H128775   0.287   2.964   2.559  1.0925 -1.7037 -0.6307
 5652TP3     H228776   0.205   2.876   2.467 -2.4438  1.0824 -0.3724
 5653TP3      O28777   0.098   0.076   0.314  0.1399 -0.0857  0.1920
 5653TP3     H128778   0.171   0.119   0.269 -1.3788  1.2905 -1.0509
 5653TP3     H228779   0.141   0.015   0.375  2.3075  0.1973 -0.9368
 5654TP3      O28780   1.508   2.685   9.786 -0.0431 -0.0781 -0.5733
 5654TP3     H128781   1.475   2.665   9.698  0.2247 -2.4424 -0.1877
 5654TP3     H228782   1.469   2.619   9.842  1.1828  0.3118  0.7977
 5655TP3      O28783   4.996   3.689   3.072  0.2775  0.0304 -0.9031
 5655TP3     H128784   4.943   3.700   3.151  0.5389 -1.1575 -0.5331
 5655TP3     H228785   4.934   3.699   2.999 -0.0990  0.4579 -0.5283
 5656TP3      O28786   4.396   2.606   6.763 -0.0111  0.1120 -0.1836
 5656TP3     H128787   4.484   2.634   6.786 -0.6830  1.2195  1.2291
 5656TP3     H228788   4.406   2.557   6.682  1.7695  1.0610 -0.5786
 5657TP3      O28789   4.406   5.079   3.434  0.4882 -1.1038  0.0812
 5657TP3     H128790   4.326   5.087   3.383  0.8648 -1.7322 -0.6386
 5657TP3     H228791   4.465   5.145   3.398  0.2954 -0.6307  0.6209
 5658TP3      O28792   0.809   2.259   9.563  0.4928  0.3877  0.2590
 5658TP3     H128793   0.840   2.314   9.491 -1.2409 -1.1383 -1.7996
 5658TP3     H228794   0.885   2.205   9.586  1.0144  0.7059 -0.6431
 5659TP3      O28795   3.498   3.241   7.542 -0.0895  0.8164  0.7962
 5659TP3     H128796   3.517   3.151   7.568 -2.4714  0.4493  1.4560
 5659TP3     H228797   3.412   3.260   7.580  0.3003  3.3580  0.6173
 5660TP3      O28798   1.528   3.887   7.305 -0.0816  0.0327  0.6344
 5660TP3     H128799   1.571   3.889   7.390  0.4557 -1.0603  0.4080
 5660TP3     H228800   1.518   3.794   7.285  0.7265  0.2476 -0.9356
 5661TP3      O28801   0.288   4.630   0.911 -0.0161  0.2886  0.0914
 5661TP3     H128802   0.219   4.613   0.975 -0.4726 -2.7902 -1.0363
 5661TP3     H228803   0.267   4.717   0.877 -0.8672  1.1946  2.6803
 5662TP3      O28804   0.777   4.919  10.061  0.0434 -0.4225 -0.4735
 5662TP3     H128805   0.851   4.980  10.064 -1.1018  0.9761  0.2072
 5662TP3     H228806   0.800   4.851  10.125 -0.0283  0.9253  1.0316
 5663TP3      O28807   2.204   4.136   8.852 -0.3177 -0.3155  0.0455
 5663TP3     H128808   2.193   4.064   8.914 -0.5946  0.1966  0.6003
 5663TP3     H228809   2.132   4.125   8.789 -0.1915 -0.6824 -0.0374
 5664TP3      O28810   1.308   4.879   1.419  0.6129  0.9538  0.1670
 5664TP3     H128811   1.286   4.972   1.409  0.6604  0.9091 -0.4042
 5664TP3     H228812   1.292   4.860   1.511  0.2791  1.4487  0.2148
 5665TP3      O28813   3.255   1.299   8.608  0.7839 -0.9275 -0.5580
 5665TP3     H128814   3.228   1.325   8.696 -1.3864 -0.0489 -1.4022
 5665TP3     H228815   3.324   1.234   8.622  0.6502 -0.6628  1.7618
 5666TP3      O28816   5.127   4.891   7.924  0.1834  0.2539  0.1011
 5666TP3     H128817   5.150   4.853   7.840 -0.0295 -0.0167  0.1616
 5666TP3     H228818   5.031   4.881   7.929 -0.1421  2.4694 -0.7010
 5667TP3      O28819   4.729   4.419   0.920 -0.3393 -0.3846 -0.9245
 5667TP3     H128820   4.650   4.398   0.971 -0.1207  0.5129 -0.1897
 5667TP3     H228821   4.785   4.343   0.930  0.6212  0.5686  2.0443
 5668TP3      O28822   4.866   1.390   7.664  0.2131  0.0342  0.5814
 5668TP3     H128823   4.839   1.304   7.696  0.8360 -0.3571  0.0826
 5668TP3     H228824   4.839   1.451   7.732  0.1645 -0.6050  1.1400
 5669TP3      O28825   1.935   3.797   3.229 -0.5937  0.1581 -0.1544
 5669TP3     H128826   2.010   3.856   3.227 -0.4827  0.0429  0.4269
 5669TP3     H228827   1.969   3.716   3.267 -0.9788  0.0623 -0.0090
 5670TP3      O28828   1.821   3.911   0.776 -0.0739  0.0088  0.2718
 5670TP3     H128829   1.888   3.895   0.710 -0.2169 -0.4020  0.2214
 5670TP3     H228830   1.739   3.890   0.731 -0.2464  0.5978  0.3007
 5671TP3      O28831   4.549   3.590  10.046  0.2394  0.3870  0.8804
 5671TP3     H128832   4.486   3.538  10.096 -1.4773 -0.9579 -2.3671
 5671TP3     H228833   4.576   3.533   9.974  1.6067  2.5525 -0.4500
 5672TP3      O28834   0.678   1.017   7.486  0.2708  0.1536 -0.6167
 5672TP3     H128835   0.606   0.980   7.435 -0.7960  0.6132  0.5139
 5672TP3     H228836   0.752   1.018   7.425 -0.4699 -1.0137 -1.5828
 5673TP3      O28837   5.274   3.469   1.531 -0.1784  0.5023 -0.1792
 5673TP3     H128838   5.245   3.460   1.622 -2.2629 -2.4740 -0.9684
 5673TP3     H228839   5.305   3.559   1.525  1.8618  0.3170  3.8916
 5674TP3      O28840   3.112   4.483   1.891  0.1914 -0.0259  0.3593
 5674TP3     H128841   3.127   4.489   1.797 -1.5673  1.4906  0.1340
 5674TP3     H228842   3.037   4.540   1.908  0.7970  0.1761  2.7684
 5675TP3      O28843   4.619   3.741   2.679  0.2570 -1.0091  0.5371
 5675TP3     H128844   4.552   3.799   2.644  1.8032  0.4392 -0.1556
 5675TP3     H228845   4.683   3.733   2.608  1.8896 -0.5890  1.8961
 5676TP3      O28846   0.351   1.216   1.991 -0.1043  0.6356 -0.1165
 5676TP3     H128847   0.395   1.141   2.032 -1.4053  1.2863  2.7658
 5676TP3     H228848   0.423   1.272   1.961  0.9328 -0.4618  0.2246
 5677TP3      O28849   2.717   0.321   8.780 -0.1658  0.3644  0.8043
 5677TP3     H128850   2.759   0.405   8.798 -0.3946  0.8803 -0.8944
 5677TP3     H228851   2.788   0.257   8.784  1.3387  1.4081 -3.6625
 5678TP3      O28852   2.505   1.596   1.297  0.0213 -0.2344 -0.2768
 5678TP3     H128853   2.583   1.542   1.281  1.3581  1.4600  0.2220
 5678TP3     H228854   2.482   1.579   1.388  0.7683  0.4113  0.0422
 5679TP3      O28855   2.269   3.243   7.741  0.7377 -0.0972  0.7621
 5679TP3     H128856   2.178   3.272   7.730  0.9127  0.0571 -0.3141
 5679TP3     H228857   2.310   3.257   7.656  1.3221 -1.7569  0.7211
 5680TP3      O28858   5.176   4.532   7.008 -0.2841  0.5911 -0.1525
 5680TP3     H128859   5.219   4.460   7.054  0.1009  0.6127 -0.4802
 5680TP3     H228860   5.224   4.610   7.036 -0.2510  0.6409 -0.3506
 5681TP3      O28861   5.226   2.169   9.114 -0.4678  0.5134  0.6988
 5681TP3     H128862   5.290   2.107   9.149 -0.8127  1.1647  2.5947
 5681TP3     H228863   5.164   2.183   9.186 -2.0174  0.8969 -0.6416
 5682TP3      O28864   4.939   5.025   1.106  0.3015 -0.3628  0.0829
 5682TP3     H128865   4.968   4.974   1.030 -1.7506 -0.2381 -0.8305
 5682TP3     H228866   4.883   5.093   1.070  1.9403  1.8225  1.4180
 5683TP3      O28867   0.406   2.815   9.456 -0.3343 -0.0932  0.0155
 5683TP3     H128868   0.336   2.870   9.421  1.1958  1.1225 -1.3210
 5683TP3     H228869   0.427   2.755   9.384  0.1216 -0.3224  0.3364
 5684TP3      O28870   4.767   1.694   7.157 -0.4056  0.4735  0.2102
 5684TP3     H128871   4.691   1.693   7.216 -0.7486  0.4391 -0.2314
 5684TP3     H228872   4.748   1.628   7.091  0.9129 -1.0023  1.2137
 5685TP3      O28873   4.824   1.269   3.342  0.0295  0.0028  0.0416
 5685TP3     H128874   4.876   1.348   3.329  0.0321  0.0223  0.1665
 5685TP3     H228875   4.811   1.233   3.254 -0.5424  0.4985 -0.0813
 5686TP3      O28876   1.508   3.609   0.887 -0.7477 -0.7663 -0.2841
 5686TP3     H128877   1.464   3.567   0.961 -0.4203 -3.8829 -1.6928
 5686TP3     H228878   1.457   3.582   0.810  1.2148 -1.0776 -1.5575
 5687TP3      O28879   2.376   2.075   0.918  0.0519 -0.1557  0.3414
 5687TP3     H128880   2.281   2.068   0.928  0.1716 -1.8051  0.6173
 5687TP3     H228881   2.392   2.056   0.826  0.0774  0.7683  0.1465
 5688TP3      O28882   2.983   3.302   9.910 -0.4621  0.0840 -0.0052
 5688TP3     H128883   3.036   3.381   9.898 -2.9275  1.7954 -0.6145
 5688TP3     H228884   2.928   3.322   9.986 -1.2758 -0.9603 -0.2976
 5689TP3      O28885   1.368   4.501   9.951  0.4150 -0.0896 -0.2356
 5689TP3     H128886   1.436   4.538   9.894 -1.3670  0.5361 -2.0706
 5689TP3     H228887   1.391   4.408   9.958  1.1282 -0.0130 -1.3415
 5690TP3      O28888   0.465   4.382   8.894  0.0019  0.1704 -0.1871
 5690TP3     H128889   0.424   4.337   8.968 -0.2932  2.0696  0.8922
 5690TP3     H228890   0.410   4.361   8.819 -1.2272  0.2633  0.6544
 5691TP3      O28891   4.527   4.905   6.721 -0.5879 -0.5329 -0.1294
 5691TP3     H128892   4.547   4.998   6.735  0.0352 -0.2118 -2.6209
 5691TP3     H228893   4.607   4.859   6.745 -1.5564 -0.7669  3.1939
 5692TP3      O28894   3.870   3.896   1.342 -0.0504 -0.4823 -0.0836
 5692TP3     H128895   3.854   3.876   1.249  1.0522 -1.8549 -0.0126
 5692TP3     H228896   3.962   3.921   1.346  0.2319 -1.5899  0.7958
 5693TP3      O28897   0.129   0.941   1.260  0.0634 -0.1493 -0.4064
 5693TP3     H128898   0.140   0.906   1.172  0.5907 -1.2399  0.0702
 5693TP3     H228899   0.034   0.946   1.273 -0.0702 -2.2778 -0.1930
 5694TP3      O28900   2.847   4.316   6.325 -0.2451 -0.1220  0.1973
 5694TP3     H128901   2.799   4.338   6.405 -1.0852 -1.7366  0.1712
 5694TP3     H228902   2.784   4.270   6.271  0.6786 -0.1669 -0.8760
 5695TP3      O28903   4.715   3.594   8.432 -0.3733  0.3980  0.3176
 5695TP3     H128904   4.749   3.507   8.413  0.5522  0.6955  0.5608
 5695TP3     H228905   4.708   3.636   8.346  0.5420  0.5646  0.3117
 5696TP3      O28906   2.879   1.230   2.206  0.7278 -0.6018 -0.0361
 5696TP3     H128907   2.870   1.151   2.152  1.6718 -0.6701 -0.1159
 5696TP3     H228908   2.973   1.250   2.204  0.3735  1.2492 -1.0588
 5697TP3      O28909   3.757   0.256   9.164  0.1668 -0.0013  0.2915
 5697TP3     H128910   3.797   0.207   9.092 -3.2331 -0.9282 -1.2153
 5697TP3     H228911   3.730   0.188   9.226 -0.1781  0.4246  0.6160
 5698TP3      O28912   3.244   4.740   7.367 -0.1085 -0.0169  0.5991
 5698TP3     H128913   3.326   4.788   7.380  1.2129 -2.0043  0.1401
 5698TP3     H228914   3.247   4.712   7.275 -0.8029 -0.9489  0.8432
 5699TP3      O28915   0.373   1.258   9.722  0.2460 -0.0612 -0.6767
 5699TP3     H128916   0.316   1.334   9.727 -2.3152 -1.7932 -1.5589
 5699TP3     H228917   0.359   1.212   9.804 -0.5390 -1.0514 -1.3352
 5700TP3      O28918   5.246   4.824   0.043 -0.0732  0.2000  0.0395
 5700TP3     H128919   5.326   4.773   0.056 -1.4133 -1.5475  2.1809
 5700TP3     H228920   5.269   4.913   0.072  0.7774 -0.6015  2.0144
 5701TP3      O28921   1.001   0.887   9.104 -0.5041  0.4362 -0.1581
 5701TP3     H128922   1.095   0.869   9.097 -0.7829 -1.3663  0.1146
 5701TP3     H228923   0.984   0.888   9.198 -0.6083  1.7566 -0.1783
 5702TP3      O28924   1.483   2.064   9.964 -0.3394 -0.7479 -0.6207
 5702TP3     H128925   1.435   2.114  10.029  0.6052 -1.9218  1.0398
 5702TP3     H228926   1.557   2.119   9.940 -1.0331 -0.0482 -1.2197
 5703TP3      O28927   4.178   5.278   7.643  0.5440 -0.1059  0.1910
 5703TP3     H128928   4.163   5.269   7.737 -1.2496 -0.1407 -0.0539
 5703TP3     H228929   4.212   5.366   7.633  1.6240 -0.4148  0.9456
 5704TP3      O28930   3.277   3.437   9.012 -0.9237  0.1748 -0.1945
 5704TP3     H128931   3.229   3.439   9.095  1.2270 -0.2253  1.1296
 5704TP3     H228932   3.281   3.529   8.985  0.0107  0.5706  1.1892
 5705TP3      O28933   0.680   3.577   9.538  0.4058 -0.0672  0.3711
 5705TP3     H128934   0.642   3.498   9.577 -0.8738 -0.2291 -1.0548
 5705TP3     H228935   0.741   3.544   9.472 -0.9469  0.0250 -1.0146
 5706TP3      O28936   1.876   3.842   6.904 -0.3665 -0.6860 -0.2312
 5706TP3     H128937   1.816   3.821   6.975  0.4590  1.2936  1.1261
 5706TP3     H228938   1.887   3.937   6.908  1.0582 -0.7122 -1.9204
 5707TP3      O28939   2.041   0.130   7.513  0.4680 -0.5209  0.3339
 5707TP3     H128940   2.052   0.039   7.484 -1.4547 -1.2892  1.8040
 5707TP3     H228941   2.041   0.125   7.608 -1.3727  0.7544  0.4402
 5708TP3      O28942   1.655   3.306   9.530 -0.2910  0.1220  0.5741
 5708TP3     H128943   1.567   3.309   9.567 -1.1195  2.2251 -1.3622
 5708TP3     H228944   1.683   3.397   9.525  1.3746 -0.3886 -0.2307
 5709TP3      O28945   2.328   1.924   9.446 -0.8886 -0.0253  0.3824
 5709TP3     H128946   2.390   1.977   9.497 -1.3921  0.1929  0.7728
 5709TP3     H228947   2.254   1.983   9.430 -1.2714 -0.4820  0.4626
 5710TP3      O28948   4.898   2.885   8.787  0.3005 -0.2739 -0.1712
 5710TP3     H128949   4.873   2.973   8.813 -0.5329 -0.3416 -0.7039
 5710TP3     H228950   4.853   2.870   8.704  0.9132 -0.9785 -0.3944
 5711TP3      O28951   1.991   2.569  10.126 -0.4482  0.7305 -0.4546
 5711TP3     H128952   2.083   2.542  10.118 -0.3828  0.6176  0.6252
 5711TP3     H228953   1.959   2.523  10.203 -1.2888  1.1420 -0.5516
 5712TP3      O28954   1.588   1.721   7.609  0.0286 -0.3888  0.2786
 5712TP3     H128955   1.549   1.808   7.610  0.6999 -0.0660 -0.2344
 5712TP3     H228956   1.575   1.690   7.519 -1.1193 -1.2600  0.7190
 5713TP3      O28957   1.858   3.456   0.502 -0.8957 -0.1437 -0.2909
 5713TP3     H128958   1.866   3.378   0.447  1.0609 -0.8278  0.8384
 5713TP3     H228959   1.834   3.526   0.442  2.3923 -0.5577 -2.3703
 5714TP3      O28960   2.571   3.877   7.814 -0.2592 -0.0197  0.5447
 5714TP3     H128961   2.528   3.791   7.804 -0.9835  0.4135 -0.2013
 5714TP3     H228962   2.503   3.940   7.793  0.9093  0.6882 -1.4012
 5715TP3      O28963   3.191   1.097   9.653  0.0749 -0.5122 -0.1878
 5715TP3     H128964   3.279   1.134   9.651  0.0438 -0.3369  0.8245
 5715TP3     H228965   3.136   1.168   9.687 -0.4740 -0.6038 -0.8492
 5716TP3      O28966   4.250   2.457   7.743 -0.2153  0.2944  0.4452
 5716TP3     H128967   4.201   2.430   7.665  1.1152  2.3315 -1.2129
 5716TP3     H228968   4.185   2.461   7.813 -1.9448  0.6300 -1.1235
 5717TP3      O28969   4.534   3.106   7.957 -0.3311  0.1836  0.2359
 5717TP3     H128970   4.492   3.144   7.880 -0.0916 -0.1380 -0.0610
 5717TP3     H228971   4.495   3.019   7.964  0.3765 -0.1796 -0.1366
 5718TP3      O28972   4.034   3.283   2.452  0.1530 -0.1552  0.4491
 5718TP3     H128973   4.043   3.379   2.447 -1.9348  0.0885  0.2183
 5718TP3     H228974   3.952   3.270   2.499 -0.7551 -1.7647 -1.4623
 5719TP3      O28975   1.172   3.862   1.351 -0.3155 -0.0268  0.3453
 5719TP3     H128976   1.169   3.771   1.322  2.3488  0.1588 -0.8603
 5719TP3     H228977   1.235   3.862   1.423 -0.1366  0.8537  0.2026
 5720TP3      O28978   3.385   4.358   2.303  0.2561  0.3987 -0.0489
 5720TP3     H128979   3.433   4.323   2.227  0.4838  0.9463 -0.1619
 5720TP3     H228980   3.331   4.428   2.267 -2.0230 -1.3314 -0.2431
 5721TP3      O28981   4.107   3.529   8.246 -0.2289 -0.0444  0.0615
 5721TP3     H128982   4.161   3.593   8.291  2.9617 -1.5933 -1.2986
 5721TP3     H228983   4.131   3.445   8.284 -2.6396 -0.7377  0.2216
 5722TP3      O28984   1.615   4.210   0.673 -0.6879 -0.5206  0.5139
 5722TP3     H128985   1.554   4.147   0.712 -0.7828 -0.1471  0.9783
 5722TP3     H228986   1.638   4.269   0.744  0.1862 -0.6229  0.3299
 5723TP3      O28987   3.520   0.845   8.512 -0.2919  0.4763 -0.2471
 5723TP3     H128988   3.528   0.776   8.578 -0.9771 -1.0333 -1.6743
 5723TP3     H228989   3.440   0.892   8.537 -0.4619  0.0136  0.1066
 5724TP3      O28990   1.367   2.701   0.794  0.2676 -0.2168  0.3688
 5724TP3     H128991   1.293   2.685   0.853 -0.4762  4.8161  1.2180
 5724TP3     H228992   1.327   2.709   0.707  0.0706  0.4688  0.5143
 5725TP3      O28993   1.828   1.006   0.113 -0.7030 -0.7029  0.1433
 5725TP3     H128994   1.808   1.099   0.125  0.3821 -0.5223  0.7591
 5725TP3     H228995   1.806   0.966   0.197  0.4725 -0.6764  0.4813
 5726TP3      O28996   1.051   4.792   0.353 -0.5284 -0.0294  0.1305
 5726TP3     H128997   1.146   4.806   0.356 -0.7452  1.4451  1.1869
 5726TP3     H228998   1.041   4.697   0.345  1.0320 -0.2002 -0.1349
 5727TP3      O28999   3.795   2.608   0.358  0.0457  0.1958  0.0844
 5727TP3     H129000   3.752   2.631   0.275  0.7241  0.3317 -0.2408
 5727TP3     H229001   3.814   2.692   0.399 -2.6350  0.1302  1.6596
 5728TP3      O29002   2.976   1.104   2.899  0.2211 -0.3335 -0.2169
 5728TP3     H129003   2.952   1.059   2.980 -1.5765  1.3404  0.2704
 5728TP3     H229004   3.071   1.112   2.903  0.0953  0.8740  2.4158
 5729TP3      O29005   3.238   2.471   0.304 -0.8640 -0.3976  0.2968
 5729TP3     H129006   3.231   2.441   0.394 -0.1059  0.5975  0.6881
 5729TP3     H229007   3.204   2.560   0.305 -0.5245 -0.2561 -0.3450
 5730TP3      O29008   2.336   3.803   6.757  0.4389  0.1154  0.2540
 5730TP3     H129009   2.263   3.807   6.696  1.2822 -0.5174 -0.8336
 5730TP3     H229010   2.380   3.888   6.748  1.8284 -0.7395 -1.6972
 5731TP3      O29011   2.482   2.618   8.483  0.3553 -0.3549 -0.3485
 5731TP3     H129012   2.511   2.662   8.403  1.7473  0.4828  0.5607
 5731TP3     H229013   2.524   2.532   8.479  1.3711  0.1070 -0.0027
 5732TP3      O29014   3.770   0.892   2.656  0.1241 -0.1040  0.0575
 5732TP3     H129015   3.822   0.896   2.736 -0.2461 -0.9514  0.3543
 5732TP3     H229016   3.698   0.952   2.671 -1.0578 -1.7403  1.2088
 5733TP3      O29017   3.323   0.882   2.462  0.6945 -0.7048  0.1875
 5733TP3     H129018   3.287   0.846   2.381  0.4862 -0.2916  0.0952
 5733TP3     H229019   3.254   0.939   2.495  2.5076  3.0393 -1.8586
 5734TP3      O29020   0.033   0.340   1.286  0.0298 -0.0653 -0.2608
 5734TP3     H129021   0.070   0.255   1.264 -0.9501 -0.0327 -2.2834
 5734TP3     H229022  -0.008   0.328   1.371  0.2397 -1.5004 -0.3507
 5735TP3      O29023   2.914   1.935   2.958  0.8099  0.0841  0.0119
 5735TP3     H129024   2.995   1.905   2.999  0.6082  0.7966  0.9451
 5735TP3     H229025   2.852   1.863   2.971  1.3322 -0.5464 -0.8771
 5736TP3      O29026   1.132   1.724   1.048 -0.5489  0.2803  0.0555
 5736TP3     H129027   1.186   1.646   1.048 -0.6446  0.2013  1.0425
 5736TP3     H229028   1.092   1.726   1.135 -1.9478  0.4674 -0.5546
 5737TP3      O29029   3.070   1.839   7.841  0.2186 -0.4315  0.0163
 5737TP3     H129030   3.072   1.934   7.855 -2.1367 -0.5368  1.9749
 5737TP3     H229031   3.154   1.808   7.874  1.9550  1.0718 -2.6293
 5738TP3      O29032   1.030   2.053   8.541  0.2535 -0.1126 -0.3887
 5738TP3     H129033   1.071   2.087   8.462  0.1570 -0.7291 -0.7073
 5738TP3     H229034   1.099   2.056   8.607  0.0674  1.2955 -0.2362
 5739TP3      O29035   3.886   4.098   9.348  0.1385 -0.1169 -0.3275
 5739TP3     H129036   3.819   4.030   9.342  0.5612 -0.7468  1.4402
 5739TP3     H229037   3.907   4.118   9.257 -1.2907 -1.0506 -0.9056
 5740TP3      O29038   2.076   1.465   2.917 -0.3896  0.0397  0.3375
 5740TP3     H129039   1.982   1.458   2.902 -0.1441  0.8178 -1.8788
 5740TP3     H229040   2.089   1.553   2.951 -0.4816 -0.2130  1.0497
 5741TP3      O29041   3.867   0.393   8.398  0.2919  0.3502  0.4054
 5741TP3     H129042   3.852   0.469   8.342  0.1278 -0.5906 -0.8598
 5741TP3     H229043   3.897   0.430   8.481 -1.1159  1.8622  0.2869
 5742TP3      O29044   0.474   4.195   7.908  0.0855  1.0575 -0.1626
 5742TP3     H129045   0.494   4.103   7.889 -1.6796  0.3944  1.0266
 5742TP3     H229046   0.438   4.228   7.826 -0.8836  0.1918 -0.1035
 5743TP3      O29047   0.104   3.897   7.669  0.5531  0.3330  0.1507
 5743TP3     H129048   0.010   3.900   7.687  0.2127  1.6568 -1.6427
 5743TP3     H229049   0.124   3.804   7.662 -1.1283  0.0583 -1.7977
 5744TP3      O29050   1.395   2.839   1.646  0.0366  0.1790  0.2112
 5744TP3     H129051   1.310   2.809   1.615  0.6865 -0.4282 -1.0492
 5744TP3     H229052   1.448   2.848   1.567  1.1972  0.3925  0.9843
 5745TP3      O29053   5.083   2.532   6.873  0.3525  0.1330 -0.1689
 5745TP3     H129054   5.016   2.576   6.924  0.0319  1.6566 -1.8261
 5745TP3     H229055   5.165   2.574   6.898  0.2413  0.6344 -0.6423
 5746TP3      O29056   4.870   5.133   0.826 -0.7545  0.4901  0.6096
 5746TP3     H129057   4.858   5.226   0.845  1.7035  1.3756 -1.5225
 5746TP3     H229058   4.962   5.126   0.801 -1.3977 -2.0766 -1.4887
 5747TP3      O29059   2.486   0.776   0.170  0.8090  0.3487  0.3231
 5747TP3     H129060   2.508   0.817   0.254  0.1371  0.8387  0.2670
 5747TP3     H229061   2.390   0.775   0.168  0.8196 -0.1263 -0.2183
 5748TP3      O29062   3.999   1.107   0.748 -0.1760  0.2777 -0.0645
 5748TP3     H129063   4.034   1.191   0.720 -0.9837  0.1716 -1.5232
 5748TP3     H229064   3.904   1.116   0.738 -0.4204 -0.2284  1.4795
 5749TP3      O29065   2.100   4.865   8.527  0.4397 -0.9576 -0.1858
 5749TP3     H129066   2.147   4.908   8.455 -2.3477  1.6030 -0.6938
 5749TP3     H229067   2.024   4.825   8.485 -0.0286 -1.3866  1.0463
 5750TP3      O29068   0.923   1.818   3.484  0.0797  0.8108  0.5650
 5750TP3     H129069   0.945   1.740   3.534  0.6524  1.5604  1.5026
 5750TP3     H229070   0.954   1.891   3.537  1.3465  1.6244 -1.1901
 5751TP3      O29071   4.953   1.684   9.296  0.4479 -0.3347 -0.2457
 5751TP3     H129072   5.010   1.664   9.370  0.9738 -0.1220 -0.5908
 5751TP3     H229073   5.009   1.675   9.219  0.3555  1.0618 -0.5097
 5752TP3      O29074   2.306   0.169   2.075 -0.8525  0.3176  0.4690
 5752TP3     H129075   2.311   0.208   1.987 -0.3430  2.5023  1.4078
 5752TP3     H229076   2.258   0.233   2.127 -0.0003 -0.3142  2.1182
 5753TP3      O29077   0.657   0.327   7.923  0.3132 -0.0272 -0.3395
 5753TP3     H129078   0.678   0.399   7.983 -0.6932 -0.1151  0.1389
 5753TP3     H229079   0.642   0.252   7.981 -1.1106 -0.0021 -0.6590
 5754TP3      O29080   2.310   4.822   0.938  0.0298  0.2384 -0.1278
 5754TP3     H129081   2.247   4.824   0.866 -3.0009 -0.3502  2.3008
 5754TP3     H229082   2.338   4.731   0.944 -0.8616 -0.0255  0.2792
 5755TP3      O29083   4.491   2.599   2.405  0.0214 -0.3873 -0.5294
 5755TP3     H129084   4.467   2.570   2.317 -0.2890 -0.1452 -0.5262
 5755TP3     H229085   4.542   2.679   2.391 -1.0097  0.3041 -0.4471
 5756TP3      O29086   2.970   4.894   0.153 -0.5177 -0.8549 -0.2652
 5756TP3     H129087   2.954   4.987   0.134 -3.6287 -1.4376 -1.0624
 5756TP3     H229088   2.966   4.889   0.248  0.7597 -0.0354 -0.1487
 5757TP3      O29089   5.267   2.465   9.990 -0.1293 -0.2034  0.4126
 5757TP3     H129090   5.172   2.472   9.978  0.0144  0.0843 -0.6530
 5757TP3     H229091   5.292   2.387   9.939  0.0503 -1.0516  1.7360
 5758TP3      O29092   3.739   1.622   0.509 -0.0576  0.0527  0.1352
 5758TP3     H129093   3.762   1.696   0.452 -0.3236 -0.7935 -1.1010
 5758TP3     H229094   3.710   1.663   0.590 -1.8045  1.4055 -1.0852
 5759TP3      O29095   1.489   0.493   0.802  0.0444  0.4114  0.3021
 5759TP3     H129096   1.569   0.487   0.855 -0.1853  1.1060  0.7390
 5759TP3     H229097   1.462   0.585   0.810 -0.3047  0.3928 -0.5662
 5760TP3      O29098   0.163   0.030   7.712 -0.4076 -0.0443 -0.2764
 5760TP3     H129099   0.235   0.020   7.775  0.2110  1.5870 -0.6743
 5760TP3     H229100   0.206   0.041   7.628 -1.0134  2.3797 -0.3343
 5761TP3      O29101   3.585   4.444   9.870  0.1129 -0.3421 -0.1158
 5761TP3     H129102   3.649   4.514   9.884  0.2959 -0.1200 -1.8203
 5761TP3     H229103   3.632   4.363   9.887  0.4672 -0.1219 -0.0553
 5762TP3      O29104   5.241   1.249   7.650 -0.2951  0.2079 -0.1577
 5762TP3     H129105   5.246   1.206   7.565 -2.3398  0.6643 -0.5477
 5762TP3     H229106   5.201   1.334   7.633 -0.4433  0.4462  1.2009
 5763TP3      O29107   2.293   0.964   7.948 -0.1969 -0.0040  0.6033
 5763TP3     H129108   2.339   0.880   7.950 -3.9506 -2.2636  0.9013
 5763TP3     H229109   2.321   1.008   8.028  2.8834 -0.2184 -0.2160
 5764TP3      O29110   0.925   0.886   6.851  0.0192  0.1650  0.8203
 5764TP3     H129111   0.869   0.810   6.863 -1.4482  1.3304  1.6807
 5764TP3     H229112   0.994   0.876   6.916 -0.0661 -0.5092  0.8062
 5765TP3      O29113   1.832   4.962   2.137 -0.0758  0.0337 -0.2454
 5765TP3     H129114   1.865   5.038   2.088 -2.0006 -0.0974 -1.9055
 5765TP3     H229115   1.767   4.922   2.078 -1.4664 -1.0073  1.8554
 5766TP3      O29116   0.902   3.871   8.172  0.1174  0.2878  0.2099
 5766TP3     H129117   0.977   3.888   8.115  0.9455 -0.3141  1.0976
 5766TP3     H229118   0.903   3.777   8.187 -1.4946  0.0881 -0.6547
 5767TP3      O29119   4.291   3.221   2.722  0.1432 -0.0939  0.2183
 5767TP3     H129120   4.201   3.211   2.690  0.1768  0.2847 -0.0059
 5767TP3     H229121   4.344   3.228   2.642  0.0836  2.1492  0.2865
 5768TP3      O29122   1.821   1.345   0.485  0.0797  0.4946 -0.4509
 5768TP3     H129123   1.792   1.332   0.395  2.4857 -1.6247 -1.0200
 5768TP3     H229124   1.740   1.350   0.536 -1.3332  1.5903 -2.6502
 5769TP3      O29125   5.241   0.238   2.900 -0.3182 -0.0185 -0.7083
 5769TP3     H129126   5.160   0.260   2.855  0.0778 -1.8074 -2.3989
 5769TP3     H229127   5.218   0.243   2.993 -2.5803 -1.2094 -1.1345
 5770TP3      O29128   3.529   5.274   8.149  0.3857 -0.0168 -0.1871
 5770TP3     H129129   3.620   5.272   8.121  0.5106 -0.2994  0.2244
 5770TP3     H229130   3.510   5.185   8.177 -0.5430 -0.3774 -1.8769
 5771TP3      O29131   2.716   5.022   1.569 -0.0035 -0.0886  0.0916
 5771TP3     H129132   2.789   4.999   1.626  0.1509  1.7216  0.6865
 5771TP3     H229133   2.756   5.072   1.498 -0.5498  0.0689 -0.1097
 5772TP3      O29134   2.105   2.222   8.607 -0.1858  0.0096  0.1807
 5772TP3     H129135   2.013   2.201   8.591 -0.1867 -1.9483  2.1400
 5772TP3     H229136   2.130   2.282   8.537 -3.4539  2.1295  0.6327
 5773TP3      O29137   3.259   3.918   7.798 -0.5177 -0.3906 -0.4233
 5773TP3     H129138   3.318   3.913   7.722 -0.3425 -1.9553 -0.2060
 5773TP3     H229139   3.172   3.928   7.760 -0.4420 -1.2796 -0.8543
 5774TP3      O29140   3.849   1.443   8.451 -0.3962  0.8262  0.3035
 5774TP3     H129141   3.906   1.511   8.416  1.2062  0.4882  2.0877
 5774TP3     H229142   3.891   1.361   8.426 -0.5472  0.5627  0.8882
 5775TP3      O29143   4.845   2.175   1.204 -0.1248  0.3411 -0.0934
 5775TP3     H129144   4.918   2.237   1.205 -0.6271  1.0321 -2.0737
 5775TP3     H229145   4.826   2.162   1.112 -2.8209  0.5489  0.3444
 5776TP3      O29146   0.650   5.148   2.498 -0.1565  0.3095 -0.2914
 5776TP3     H129147   0.555   5.133   2.504 -0.2730  0.4694 -1.5883
 5776TP3     H229148   0.676   5.106   2.416  0.8122  0.7109 -0.1984
 5777TP3      O29149   1.420   0.886   8.135 -0.3748  0.5540  0.2404
 5777TP3     H129150   1.449   0.945   8.205 -1.1989 -0.9522  1.9144
 5777TP3     H229151   1.362   0.824   8.178 -0.3677 -0.8675 -1.6770
 5778TP3      O29152   4.198   5.251   8.111  0.0584  0.1800  0.3216
 5778TP3     H129153   4.119   5.238   8.164  0.1964 -1.0468  0.2748
 5778TP3     H229154   4.170   5.309   8.040 -1.0858 -0.9417 -0.2039
 5779TP3      O29155   1.839   4.848   9.964 -0.2542  0.0872  0.1264
 5779TP3     H129156   1.923   4.883   9.996  0.0829 -0.0490 -0.5928
 5779TP3     H229157   1.783   4.846  10.042  0.2727  0.5869  0.5275
 5780TP3      O29158   1.114   3.402   9.464  0.2303 -0.3154 -0.1086
 5780TP3     H129159   1.056   3.411   9.539 -0.5726  0.9976 -0.8317
 5780TP3     H229160   1.191   3.455   9.487 -0.0583  0.1689 -0.2284
 5781TP3      O29161   0.289   0.811   0.836  0.2400 -0.4464 -0.0974
 5781TP3     H129162   0.210   0.848   0.796 -1.7265  0.0633  3.8178
 5781TP3     H229163   0.346   0.887   0.852 -0.1627 -0.2669  0.4979
 5782TP3      O29164   2.673   4.346   6.540  0.5244  0.2444  0.5232
 5782TP3     H129165   2.692   4.286   6.613  0.4576 -1.2722 -0.6667
 5782TP3     H229166   2.661   4.431   6.582 -0.7452 -0.8052  2.4285
 5783TP3      O29167   4.807   3.960   8.783  1.0477  0.5021 -0.4922
 5783TP3     H129168   4.829   3.998   8.869  1.3828 -1.9406  0.5785
 5783TP3     H229169   4.874   3.995   8.724  3.1761 -0.6811  1.0846
 5784TP3      O29170   3.838   3.598   9.157 -0.3772  0.3320  0.2562
 5784TP3     H129171   3.769   3.559   9.211  0.1697 -1.6022 -0.3545
 5784TP3     H229172   3.909   3.618   9.218 -0.6499  0.3179  0.5765
 5785TP3      O29173   1.856   2.485   2.021  0.4003 -0.5934  0.3465
 5785TP3     H129174   1.852   2.396   1.986  0.8307 -0.8550  0.9573
 5785TP3     H229175   1.805   2.481   2.103 -1.6467  0.2944 -0.7972
 5786TP3      O29176   2.690   1.501   9.689  0.3431  0.0875 -0.2366
 5786TP3     H129177   2.781   1.514   9.718  0.9092 -1.0897 -1.3613
 5786TP3     H229178   2.699   1.464   9.601 -1.2596  0.8040 -0.7331
 5787TP3      O29179   3.665   1.543   0.859  0.0854 -0.2909  1.0587
 5787TP3     H129180   3.680   1.449   0.863  0.1845 -0.3041  0.4320
 5787TP3     H229181   3.712   1.578   0.935  2.3426 -0.4615 -0.1646
 5788TP3      O29182   3.966   0.641   9.771  0.1139  0.3519  0.2358
 5788TP3     H129183   3.903   0.570   9.760  0.6993 -0.2119  0.4779
 5788TP3     H229184   3.977   0.677   9.683 -0.0829  0.0606  0.0914
 5789TP3      O29185   5.240   1.649   3.660 -0.3189  0.2721  0.1109
 5789TP3     H129186   5.259   1.739   3.632 -1.1876  1.2629  2.4346
 5789TP3     H229187   5.163   1.623   3.609 -1.4496  1.7458  0.9808
 5790TP3      O29188   1.771   3.811   2.804 -0.4412 -0.2509 -0.2310
 5790TP3     H129189   1.765   3.864   2.883 -0.3493 -2.3207  1.2397
 5790TP3     H229190   1.783   3.722   2.835  1.0225 -0.9885 -2.6154
 5791TP3      O29191   4.644   2.822   0.169 -0.8960 -0.2446 -0.4584
 5791TP3     H129192   4.567   2.779   0.208 -1.7566  1.2693 -0.4100
 5791TP3     H229193   4.609   2.901   0.128  0.7158  0.8443  0.1499
 5792TP3      O29194   2.286   4.348   2.189 -0.1370  0.0621  0.0933
 5792TP3     H129195   2.246   4.276   2.236  1.6628 -0.3084  1.1279
 5792TP3     H229196   2.350   4.307   2.131 -1.7303  0.5695 -2.1975
 5793TP3      O29197   0.345   2.036   7.574  0.4198  0.2393  0.1015
 5793TP3     H129198   0.354   2.010   7.483 -0.0787  1.8017 -0.4166
 5793TP3     H229199   0.307   2.124   7.571 -0.1031  0.1162  1.8224
 5794TP3      O29200   3.390   2.288   2.716  0.0113  0.6379 -0.6985
 5794TP3     H129201   3.472   2.255   2.750 -0.7380 -0.8203 -0.2354
 5794TP3     H229202   3.399   2.280   2.621 -0.4867 -1.9008 -0.5993
 5795TP3      O29203   3.077   2.677   7.518 -0.1528  0.2910  0.2913
 5795TP3     H129204   3.031   2.614   7.462 -0.2614  0.5598  0.0765
 5795TP3     H229205   3.096   2.751   7.461 -1.2920  1.0737  0.8793
 5796TP3      O29206   4.241   2.236   9.853  0.3965 -0.0867 -0.3747
 5796TP3     H129207   4.171   2.300   9.840 -1.0669 -1.7513 -1.2985
 5796TP3     H229208   4.227   2.202   9.941 -0.0932 -0.5343 -0.6184
 5797TP3      O29209   2.779   3.254   8.164  0.0104  0.1940 -0.2368
 5797TP3     H129210   2.727   3.254   8.083 -0.0829 -0.4659 -0.1827
 5797TP3     H229211   2.751   3.175   8.210 -0.1794  0.7361  0.5991
 5798TP3      O29212   1.738   0.441   8.224 -0.2735 -0.2423  0.4118
 5798TP3     H129213   1.660   0.492   8.246 -2.4900 -3.1460 -0.0648
 5798TP3     H229214   1.740   0.370   8.289 -0.4024 -2.4738 -1.8607
 5799TP3      O29215   0.806   3.456   0.087 -0.0113  0.4289  0.5447
 5799TP3     H129216   0.818   3.373   0.041 -0.1035  0.0994  1.1077
 5799TP3     H229217   0.765   3.514   0.023 -0.3164 -0.0840  0.2737
 5800TP3      O29218   3.281   4.748   2.384 -0.3467 -0.0061  0.3499
 5800TP3     H129219   3.198   4.713   2.352 -0.5590  0.0216  0.8559
 5800TP3     H229220   3.308   4.810   2.317 -0.4808 -0.3869 -0.0626
 5801TP3      O29221   0.547   2.209   3.372 -0.4617  0.2337 -0.6324
 5801TP3     H129222   0.475   2.259   3.334 -0.6783  1.4181  1.2048
 5801TP3     H229223   0.573   2.259   3.449  0.4165 -1.6527  0.3743
 5802TP3      O29224   2.123   2.967   9.788  0.3261 -0.4017  0.1009
 5802TP3     H129225   2.147   3.060   9.790  0.0372 -0.3227 -0.0923
 5802TP3     H229226   2.079   2.955   9.704 -0.7895 -0.4271  0.6659
 5803TP3      O29227   3.197   0.935   7.866 -0.4066 -0.3179  0.6207
 5803TP3     H129228   3.134   0.953   7.936 -1.6899 -1.0336 -0.3041
 5803TP3     H229229   3.197   1.015   7.813 -2.6057 -1.1907 -0.8628
 5804TP3      O29230   4.081   4.164   6.324  0.3084 -0.0609  0.1634
 5804TP3     H129231   4.078   4.215   6.243  1.0334  0.4956  0.4705
 5804TP3     H229232   4.012   4.201   6.378  1.4211  1.2661  0.7453
 5805TP3      O29233   4.912   2.801   1.217  0.5197  0.1235 -0.1064
 5805TP3     H129234   4.829   2.838   1.250  0.7493 -0.8826  1.7598
 5805TP3     H229235   4.894   2.707   1.210  1.1942  0.0386 -0.7118
 5806TP3      O29236   2.472   5.080   8.927  0.1184  0.2560 -0.3367
 5806TP3     H129237   2.402   5.055   8.987  0.2237  0.1407 -0.2615
 5806TP3     H229238   2.481   5.175   8.940 -0.4502  0.3805 -0.8064
 5807TP3      O29239   0.554   2.165   0.442  0.0166 -0.3106 -0.5986
 5807TP3     H129240   0.569   2.098   0.508 -2.3569  0.3556  0.7490
 5807TP3     H229241   0.504   2.121   0.373  0.6100 -0.4829 -0.9289
 5808TP3      O29242   4.826   0.982   8.516 -0.3398  0.1242  0.1315
 5808TP3     H129243   4.750   0.996   8.573  0.6382  0.1407  1.4801
 5808TP3     H229244   4.844   0.888   8.524  0.8175  0.4067  1.2360
 5809TP3      O29245   0.510   5.237   9.272 -0.1282  0.3657 -0.4505
 5809TP3     H129246   0.434   5.242   9.213 -0.6272  1.8269  0.2643
 5809TP3     H229247   0.585   5.241   9.213 -0.6082  0.5389 -1.0759
 5810TP3      O29248   3.526   2.014   8.713  0.4969  0.1909  0.1629
 5810TP3     H129249   3.520   2.031   8.807 -0.4250  0.2254  0.0996
 5810TP3     H229250   3.531   1.919   8.706 -1.9692 -0.0013  0.1495
 5811TP3      O29251   0.167   4.524   1.470 -0.4160 -0.0309  0.4264
 5811TP3     H129252   0.134   4.603   1.513  0.9973 -1.1065  3.7850
 5811TP3     H229253   0.248   4.504   1.515  1.0647 -1.5971 -2.6037
 5812TP3      O29254   5.010   1.475   7.969  0.5250  0.0075 -0.5522
 5812TP3     H129255   5.076   1.418   8.008  2.3437  1.5635 -1.2161
 5812TP3     H229256   5.059   1.535   7.913 -1.2375  2.4470  0.3293
 5813TP3      O29257   1.494   1.459   9.108 -0.2820  0.0006  0.3038
 5813TP3     H129258   1.491   1.371   9.144  0.1543  0.1456  0.6988
 5813TP3     H229259   1.403   1.477   9.083  0.0204 -1.5202 -2.1676
 5814TP3      O29260   1.296   3.623   2.295 -0.3127 -0.2322 -0.0574
 5814TP3     H129261   1.225   3.575   2.336 -0.7700 -0.4690 -1.1001
 5814TP3     H229262   1.262   3.649   2.209  0.4468  0.6568 -0.1125
 5815TP3      O29263   4.723   1.661   2.028  0.2372 -0.5421  0.0502
 5815TP3     H129264   4.791   1.724   2.008 -0.3103  0.4270  1.1250
 5815TP3     H229265   4.679   1.645   1.944 -0.0465  1.0253 -0.1273
 5816TP3      O29266   2.635   4.809   9.703  0.8832 -0.4901 -0.3296
 5816TP3     H129267   2.620   4.864   9.780 -0.8600  0.6171 -1.3932
 5816TP3     H229268   2.652   4.871   9.632  2.3995 -1.4877 -0.9007
 5817TP3      O29269   1.507   5.053   0.715  0.3384 -0.0777 -0.3314
 5817TP3     H129270   1.491   5.054   0.809 -0.0588  1.9267 -0.3886
 5817TP3     H229271   1.472   5.136   0.683  0.1108 -0.8676 -2.3239
 5818TP3      O29272   3.427   0.024   9.760 -0.2030  0.1852 -0.1761
 5818TP3     H129273   3.500   0.048   9.817  0.2934 -0.5537 -0.4804
 5818TP3     H229274   3.351   0.024   9.818  0.6503 -3.1745  1.2432
 5819TP3      O29275   0.660   0.277   8.882 -0.1824  0.1141 -0.5568
 5819TP3     H129276   0.669   0.222   8.960 -1.2888 -0.0097 -0.4982
 5819TP3     H229277   0.575   0.253   8.846  0.2699  0.2499 -1.7498
 5820TP3      O29278   0.808   0.988   1.751 -0.4644 -0.0474 -0.2196
 5820TP3     H129279   0.719   0.956   1.768 -0.4688  0.3362  0.5020
 5820TP3     H229280   0.817   0.984   1.655 -0.8965 -1.0411 -0.2315
 5821TP3      O29281   0.719   4.378   0.324 -0.0696  0.1599  0.5904
 5821TP3     H129282   0.748   4.298   0.280  0.0666 -0.3531  1.5686
 5821TP3     H229283   0.645   4.409   0.272  0.8522  0.2676 -0.6790
 5822TP3      O29284   5.003   2.284   6.800  0.0474  0.7143 -0.7339
 5822TP3     H129285   4.933   2.341   6.832  0.5546  0.7049  0.4695
 5822TP3     H229286   5.083   2.332   6.820  0.4030  0.7140 -2.0764
 5823TP3      O29287   3.854   4.630   1.667  0.4953 -0.1113  0.0198
 5823TP3     H129288   3.884   4.710   1.710 -2.0600  1.0633 -0.1449
 5823TP3     H229289   3.783   4.660   1.609 -0.5903 -2.5138  0.0090
 5824TP3      O29290   2.308   2.634   0.642  0.4288 -0.2742 -0.0007
 5824TP3     H129291   2.375   2.583   0.688  0.3943 -1.1520 -0.8885
 5824TP3     H229292   2.267   2.687   0.711  1.8609  0.1098  0.5993
 5825TP3      O29293   0.552   4.610   7.825 -0.3470 -0.0355  0.0930
 5825TP3     H129294   0.485   4.637   7.888 -0.1949 -1.6078  0.9995
 5825TP3     H229295   0.619   4.568   7.878  0.3798 -0.3085 -1.0079
 5826TP3      O29296   1.729   3.145   1.667 -0.8381 -0.2281  0.4357
 5826TP3     H129297   1.792   3.079   1.697 -0.4032  1.0923  2.6694
 5826TP3     H229298   1.762   3.171   1.581  1.6815  0.3306  1.4807
 5827TP3      O29299   2.284   1.822   9.011 -0.3028  0.0152 -0.1254
 5827TP3     H129300   2.231   1.773   9.073 -0.1358 -0.3934 -0.3012
 5827TP3     H229301   2.367   1.774   9.006 -0.2361  0.1593 -0.4992
 5828TP3      O29302   2.181   3.875   0.054  0.0052  0.0485  0.3763
 5828TP3     H129303   2.248   3.938   0.028  0.0093  0.3243  1.0384
 5828TP3     H229304   2.229   3.794   0.069  0.2558  0.3470  1.2292
 5829TP3      O29305   0.869   0.785   8.230 -0.6124  0.6432 -0.4012
 5829TP3     H129306   0.954   0.825   8.244 -1.0066  0.7058  2.2503
 5829TP3     H229307   0.823   0.796   8.313 -2.2391 -1.7503 -0.8849
 5830TP3      O29308   1.826   2.886   8.389 -0.2713 -0.4473 -0.1725
 5830TP3     H129309   1.876   2.818   8.343  1.1759 -0.3820  1.2080
 5830TP3     H229310   1.822   2.856   8.480  0.0280  1.0918  0.3754
 5831TP3      O29311   0.721   4.482   8.375 -0.0276  0.1715 -0.1872
 5831TP3     H129312   0.727   4.439   8.460  0.3516 -1.9060 -1.2147
 5831TP3     H229313   0.765   4.423   8.314  2.5667  3.0347 -1.3668
 5832TP3      O29314   0.880   3.205   3.291  0.0641  0.6182 -0.1110
 5832TP3     H129315   0.949   3.233   3.231 -0.4075  0.3995 -0.7762
 5832TP3     H229316   0.925   3.155   3.359  0.8803  2.6197  0.9031
 5833TP3      O29317   2.111   1.261   9.582 -0.2587  0.2480  0.6002
 5833TP3     H129318   2.043   1.303   9.635 -3.6839 -3.4493 -0.4151
 5833TP3     H229319   2.130   1.325   9.514 -2.5121  1.5798  1.1022
 5834TP3      O29320   3.297   3.183   9.247  0.2512  0.0897 -0.2961
 5834TP3     H129321   3.358   3.228   9.189  1.1811 -0.0967  0.5058
 5834TP3     H229322   3.217   3.236   9.244  0.1144 -0.1624 -2.0601
 5835TP3      O29323   3.731   0.061   0.884  0.1520 -0.4806 -0.4857
 5835TP3     H129324   3.672   0.101   0.819  1.5011 -1.1538 -2.1846
 5835TP3     H229325   3.686  -0.019   0.911 -1.2456  0.6769  0.8087
 5836TP3      O29326   2.932   1.214   7.481 -0.0912 -0.6967 -0.1456
 5836TP3     H129327   2.953   1.297   7.524  0.2372 -0.9198  0.1296
 5836TP3     H229328   3.017   1.176   7.459 -0.2434 -0.8922 -0.4035
 5837TP3      O29329   1.771   1.648   9.828 -0.2442  0.5847  0.3564
 5837TP3     H129330   1.758   1.661   9.921  1.3867 -0.3194  0.7631
 5837TP3     H229331   1.693   1.600   9.799  1.0307 -2.9927  2.2061
 5838TP3      O29332   4.437   3.993   6.463  0.0812  0.2186  0.4049
 5838TP3     H129333   4.366   3.967   6.403  0.5529  1.8343 -0.9296
 5838TP3     H229334   4.517   3.968   6.418  0.4256  0.7422  0.7123
 5839TP3      O29335   4.597   0.610   7.984  0.4825  0.2663 -0.2975
 5839TP3     H129336   4.541   0.533   7.971  1.3064 -1.2346  3.6506
 5839TP3     H229337   4.661   0.605   7.913 -0.0992 -2.1753 -0.7579
 5840TP3      O29338   3.251   1.143   8.177  0.4651  0.2805  0.3632
 5840TP3     H129339   3.249   1.230   8.217  0.5501  0.2799  0.3705
 5840TP3     H229340   3.161   1.126   8.152  0.9053  1.7639 -2.6446
 5841TP3      O29341   3.529   0.062   1.857 -0.3399 -0.5189 -0.1866
 5841TP3     H129342   3.598   0.109   1.809  0.7268 -1.2473  0.5833
 5841TP3     H229343   3.507  -0.011   1.800  1.2597 -1.6548  0.5625
 5842TP3      O29344   0.567   1.628   6.869  0.2839  0.1180  0.2726
 5842TP3     H129345   0.625   1.562   6.830  0.7635  0.5822  0.1814
 5842TP3     H229346   0.626   1.686   6.917 -0.0423  0.8903 -0.2294
 5843TP3      O29347   3.194   2.122   8.022 -0.0171 -0.9108 -0.7934
 5843TP3     H129348   3.237   2.111   7.938 -0.1178 -0.6601 -0.8774
 5843TP3     H229349   3.265   2.144   8.083  0.2334 -2.2764 -0.5643
 5844TP3      O29350   3.008   3.327   8.246 -0.0448  0.4842  0.1083
 5844TP3     H129351   2.919   3.315   8.215  0.0355 -1.5406  0.5018
 5844TP3     H229352   3.060   3.343   8.167 -0.1834 -2.3768 -0.6693
 5845TP3      O29353   0.550   3.014   2.083  0.3608 -0.1205 -0.2583
 5845TP3     H129354   0.506   2.991   2.164  0.0343  0.6194 -0.2200
 5845TP3     H229355   0.487   2.993   2.014 -0.0036  0.8018 -0.2126
 5846TP3      O29356   1.776   2.421   0.702  0.3209  0.3425 -0.0252
 5846TP3     H129357   1.777   2.484   0.631 -0.0968 -0.6837 -0.9780
 5846TP3     H229358   1.706   2.452   0.760 -0.6964  0.1277 -1.0966
 5847TP3      O29359   4.336   1.906   9.004  0.0064  0.5501 -0.3078
 5847TP3     H129360   4.328   1.826   9.057  0.2761  0.8279  0.1502
 5847TP3     H229361   4.265   1.962   9.035  0.3213  0.8146 -0.0685
 5848TP3      O29362   3.147   4.136   8.220  0.0121 -0.1083  0.2418
 5848TP3     H129363   3.160   4.189   8.299  0.0878  1.3469 -0.6983
 5848TP3     H229364   3.069   4.174   8.179 -0.0552 -0.8677 -0.3631
 5849TP3      O29365   5.171   2.872   8.678  0.2159 -0.2588  0.2186
 5849TP3     H129366   5.113   2.848   8.750 -0.5253  0.9849  0.0663
 5849TP3     H229367   5.252   2.900   8.720  1.3152 -3.3143  0.3963
 5850TP3      O29368   0.068   2.660   1.289  0.1202  0.0636  0.5098
 5850TP3     H129369   0.024   2.619   1.215 -0.9136 -1.6189  1.9631
 5850TP3     H229370   0.021   2.742   1.303 -0.6740 -0.3326  0.2258
 5851TP3      O29371   4.799   0.948   7.645  0.0909 -0.3844 -0.7137
 5851TP3     H129372   4.847   0.952   7.562 -0.8659  0.4107 -1.2551
 5851TP3     H229373   4.755   1.033   7.651  0.5926 -0.2032  0.8989
 5852TP3      O29374   3.189   0.494   9.336  0.0408 -0.4140  0.4799
 5852TP3     H129375   3.177   0.401   9.316 -1.0396  0.1142 -1.6548
 5852TP3     H229376   3.241   0.528   9.264  0.6741  0.6180  1.3860
 5853TP3      O29377   2.900   4.079   0.285 -0.2112  0.0376 -0.2603
 5853TP3     H129378   2.844   4.118   0.353 -1.4095 -0.6172 -0.8447
 5853TP3     H229379   2.871   4.120   0.204 -0.1532 -0.6500 -0.6318
 5854TP3      O29380   1.274   0.111   9.211 -0.7709  0.6354 -0.1471
 5854TP3     H129381   1.342   0.044   9.203 -0.2889  1.0405  0.5179
 5854TP3     H229382   1.204   0.081   9.152  0.0157  0.2625 -0.9102
 5855TP3      O29383   1.138   1.477   7.390  0.3881 -0.3808  0.7918
 5855TP3     H129384   1.145   1.404   7.451  1.5331 -1.3097 -0.3970
 5855TP3     H229385   1.073   1.449   7.325 -0.7160  0.5382  1.4524
 5856TP3      O29386   0.822   4.452   2.756  0.4697  0.6417 -0.2567
 5856TP3     H129387   0.830   4.524   2.818 -0.7676 -0.6400  1.5162
 5856TP3     H229388   0.868   4.379   2.799 -2.8057 -1.0976  0.6656
 5857TP3      O29389   2.785   5.011   1.056 -0.2189  0.0976  0.7397
 5857TP3     H129390   2.776   4.943   1.122 -1.1633  1.5494  2.1990
 5857TP3     H229391   2.859   5.064   1.086 -1.2709  1.3469  1.2547
 5858TP3      O29392   3.950   1.206   8.357  0.1184 -0.2425 -0.4910
 5858TP3     H129393   3.909   1.166   8.280 -0.5089  1.1387 -0.8847
 5858TP3     H229394   4.022   1.146   8.378 -0.5360 -1.3646 -1.3092
 5859TP3      O29395   2.673   1.138   1.520  0.1677  0.1393 -0.3683
 5859TP3     H129396   2.579   1.137   1.534  0.1885 -0.0215 -0.2381
 5859TP3     H229397   2.711   1.108   1.603  0.4401  2.3309  0.3421
 5860TP3      O29398   3.913   2.373   2.131 -0.0645  0.1160 -0.0813
 5860TP3     H129399   3.882   2.321   2.206  0.2662 -1.6657 -1.1333
 5860TP3     H229400   3.961   2.311   2.077  3.2136  2.1882  0.1777
 5861TP3      O29401   3.889   4.308   6.940 -0.6583 -0.1864 -0.3225
 5861TP3     H129402   3.910   4.303   6.846 -2.0970 -1.2970 -0.6189
 5861TP3     H229403   3.949   4.245   6.981  1.6724  2.0137 -0.1017
 5862TP3      O29404   2.829   2.725   9.283 -0.2383  0.4950  0.7889
 5862TP3     H129405   2.794   2.801   9.330  1.2745  1.6734  0.1275
 5862TP3     H229406   2.752   2.670   9.265 -1.1536  1.0786  2.6466
 5863TP3      O29407   3.989   3.440   7.801 -0.1072 -0.2391  0.2783
 5863TP3     H129408   3.900   3.474   7.804 -0.5852 -1.4134  0.0953
 5863TP3     H229409   4.045   3.516   7.815 -1.1330  0.5381  0.2278
 5864TP3      O29410   3.209   3.350   7.989 -0.1070 -0.2320 -0.5970
 5864TP3     H129411   3.225   3.443   7.971 -0.6348 -0.0949 -0.3911
 5864TP3     H229412   3.284   3.323   8.043  0.0600  0.0709 -0.6736
 5865TP3      O29413   2.080   0.082   1.397 -0.8266  0.3733 -0.4640
 5865TP3     H129414   1.992   0.045   1.390 -1.2470  1.5549 -1.9735
 5865TP3     H229415   2.068   0.163   1.446 -0.2355 -0.4097  1.0369
 5866TP3      O29416   1.830   5.164  10.075  0.4986  0.6768  0.0506
 5866TP3     H129417   1.811   5.247  10.119 -0.9763  0.5556 -0.3102
 5866TP3     H229418   1.801   5.097  10.137  0.9347  0.4482  0.0097
 5867TP3      O29419   2.688   3.302   7.585  0.1934 -0.7330 -0.2937
 5867TP3     H129420   2.706   3.353   7.664 -1.0646 -0.2812 -0.2877
 5867TP3     H229421   2.625   3.355   7.536  1.0223 -0.9615 -1.6583
 5868TP3      O29422   0.068   2.623   2.773  0.6175  0.3076  0.0917
 5868TP3     H129423   0.135   2.555   2.768 -0.8926 -1.2804  0.0847
 5868TP3     H229424   0.028   2.611   2.859  0.2070  1.0775  0.0194
 5869TP3      O29425   4.922   3.077   7.751  0.0843  0.1017  0.6103
 5869TP3     H129426   4.898   2.985   7.763 -2.1088  0.5815  0.3145
 5869TP3     H229427   4.942   3.083   7.657  0.3127 -0.0659  0.6443
 5870TP3      O29428   0.773   3.663  10.024  0.1561 -0.6934  0.3502
 5870TP3     H129429   0.740   3.603   9.957 -1.7956 -0.3001  0.9023
 5870TP3     H229430   0.703   3.728  10.034  2.2237  1.8124 -0.3602
 5871TP3      O29431   3.849   0.356   1.509 -0.6586  0.3087 -0.1460
 5871TP3     H129432   3.897   0.317   1.581 -0.4803  1.4674  0.3953
 5871TP3     H229433   3.905   0.343   1.432  0.1430  0.8949  0.3218
 5872TP3      O29434   3.278   0.242   8.275  0.1361 -0.7942 -0.4207
 5872TP3     H129435   3.368   0.261   8.302  0.2975  0.7556 -1.8722
 5872TP3     H229436   3.287   0.183   8.200 -0.0257 -0.3009 -0.8337
 5873TP3      O29437   3.832   3.798   9.462 -0.3958 -0.1647  0.4555
 5873TP3     H129438   3.859   3.778   9.373 -0.5440  0.0162  0.3692
 5873TP3     H229439   3.778   3.724   9.489 -0.5027 -0.1332  0.3282
 5874TP3      O29440   3.354   1.416   3.743  0.1886  0.5887  0.1015
 5874TP3     H129441   3.405   1.390   3.666 -0.0166 -0.4385  0.2912
 5874TP3     H229442   3.419   1.450   3.804  0.4761  0.5509 -0.1806
 5875TP3      O29443   0.800   5.035   2.711  0.7105 -0.2855 -0.3318
 5875TP3     H129444   0.744   5.055   2.636  0.7357  2.0009  0.1712
 5875TP3     H229445   0.837   4.949   2.691  0.2215 -0.0439 -2.6387
 5876TP3      O29446   2.452   0.492   1.413  0.0711  0.6423 -0.3625
 5876TP3     H129447   2.447   0.579   1.373  1.7470  0.6617 -0.6127
 5876TP3     H229448   2.540   0.461   1.391  0.5558  0.0409  2.1115
 5877TP3      O29449   3.571   1.735   7.909 -0.3659  0.3579 -0.3930
 5877TP3     H129450   3.604   1.701   7.992 -1.3149  0.8728  0.2231
 5877TP3     H229451   3.590   1.666   7.845  0.8912  0.1993  0.1264
 5878TP3      O29452   0.164   4.231   2.133 -0.2766 -0.4207 -0.1060
 5878TP3     H129453   0.223   4.197   2.201  3.0872  1.8926 -1.5776
 5878TP3     H229454   0.198   4.194   2.052 -1.7055 -0.0005 -0.9143
 5879TP3      O29455   4.646   2.349   8.109  0.5055  0.2557  0.0826
 5879TP3     H129456   4.619   2.394   8.189  0.3371 -0.8714  0.6767
 5879TP3     H229457   4.564   2.326   8.066  0.5958  1.1508 -0.6037
 5880TP3      O29458   2.572   2.920   0.917 -0.1162  0.2178 -0.2188
 5880TP3     H129459   2.511   2.950   0.984 -0.9817 -0.9002 -0.4777
 5880TP3     H229460   2.537   2.956   0.835 -1.1974 -1.4857 -0.5389
 5881TP3      O29461   0.651   2.830   7.379 -0.0627 -0.1356 -0.0908
 5881TP3     H129462   0.589   2.757   7.383  0.1045 -0.2995 -0.4338
 5881TP3     H229463   0.716   2.803   7.314 -0.8792  0.9853 -1.4381
 5882TP3      O29464   1.644   4.560   2.419  0.2632  0.3402  0.1091
 5882TP3     H129465   1.626   4.620   2.347 -0.1862 -0.3457 -0.3574
 5882TP3     H229466   1.716   4.505   2.387  0.4540  0.4134  0.4076
 5883TP3      O29467   2.691   3.739   9.802  0.5050  0.2960 -0.2585
 5883TP3     H129468   2.703   3.677   9.874  0.5778  0.6518  0.0339
 5883TP3     H229469   2.620   3.700   9.750  1.1374 -0.4757 -0.5651
   5.28865   5.28865  10.13520
