Title
29469
    1NLYS     N    1   2.058   2.864   1.970
    1NLYS    H1    2   2.064   2.868   2.071
    1NLYS    H2    3   2.008   2.780   1.944
    1NLYS    H3    4   2.006   2.946   1.943
    1NLYS    CA    5   2.194   2.865   1.912
    1NLYS    HA    6   2.231   2.763   1.905
    1NLYS    CB    7   2.196   2.928   1.770
    1NLYS   HB2    8   2.107   2.894   1.716
    1NLYS   HB3    9   2.191   3.036   1.778
    1NLYS    CG   10   2.319   2.888   1.686
    1NLYS   HG2   11   2.410   2.914   1.740
    1NLYS   HG3   12   2.316   2.780   1.671
    1NLYS    CD   13   2.320   2.958   1.549
    1NLYS   HD2   14   2.222   2.951   1.503
    1NLYS   HD3   15   2.344   3.063   1.564
    1NLYS    CE   16   2.423   2.896   1.453
    1NLYS   HE2   17   2.520   2.889   1.504
    1NLYS   HE3   18   2.391   2.794   1.429
    1NLYS    NZ   19   2.437   2.975   1.328
    1NLYS   HZ1   20   2.489   3.060   1.343
    1NLYS   HZ2   21   2.485   2.925   1.254
    1NLYS   HZ3   22   2.348   3.003   1.290
    1NLYS     C   23   2.285   2.940   2.008
    1NLYS     O   24   2.242   3.043   2.058
    2GLY      N   25   2.403   2.887   2.039
    2GLY      H   26   2.436   2.805   1.989
    2GLY     CA   27   2.486   2.940   2.147
    2GLY    HA2   28   2.468   3.047   2.157
    2GLY    HA3   29   2.455   2.893   2.241
    2GLY      C   30   2.635   2.912   2.128
    2GLY      O   31   2.671   2.797   2.104
    3PRO      N   32   2.722   3.015   2.144
    3PRO     CD   33   2.688   3.156   2.124
    3PRO    HD2   34   2.643   3.200   2.213
    3PRO    HD3   35   2.620   3.166   2.039
    3PRO     CG   36   2.819   3.227   2.091
    3PRO    HG2   37   2.859   3.274   2.181
    3PRO    HG3   38   2.806   3.300   2.011
    3PRO     CB   39   2.911   3.113   2.048
    3PRO    HB2   40   3.016   3.140   2.057
    3PRO    HB3   41   2.888   3.084   1.946
    3PRO     CA   42   2.867   3.001   2.144
    3PRO     HA   43   2.896   2.906   2.100
    3PRO      C   44   2.938   3.012   2.282
    3PRO      O   45   3.058   3.038   2.282
    4PRO      N   46   2.874   2.991   2.400
    4PRO     CD   47   2.733   3.006   2.434
    4PRO    HD2   48   2.675   2.920   2.402
    4PRO    HD3   49   2.693   3.098   2.391
    4PRO     CG   50   2.725   3.019   2.587
    4PRO    HG2   51   2.684   2.927   2.629
    4PRO    HG3   52   2.663   3.104   2.617
    4PRO     CB   53   2.870   3.037   2.630
    4PRO    HB2   54   2.886   2.999   2.731
    4PRO    HB3   55   2.896   3.143   2.626
    4PRO     CA   56   2.946   2.961   2.522
    4PRO     HA   57   3.049   2.998   2.520
    4PRO      C   58   2.948   2.809   2.546
    4PRO      O   59   2.898   2.728   2.467
    5ARG      N   60   3.006   2.769   2.659
    5ARG      H   61   3.054   2.840   2.712
    5ARG     CA   62   2.984   2.639   2.724
    5ARG     HA   63   3.032   2.561   2.665
    5ARG     CB   64   3.050   2.645   2.862
    5ARG    HB2   65   3.016   2.558   2.918
    5ARG    HB3   66   3.158   2.636   2.851
    5ARG     CG   67   3.011   2.772   2.943
    5ARG    HG2   68   2.914   2.810   2.909
    5ARG    HG3   69   2.994   2.745   3.047
    5ARG     CD   70   3.112   2.889   2.940
    5ARG    HD2   71   3.099   2.944   2.847
    5ARG    HD3   72   3.087   2.959   3.019
    5ARG     NE   73   3.254   2.847   2.948
    5ARG     HE   74   3.304   2.853   2.860
    5ARG     CZ   75   3.320   2.791   3.048
    5ARG    NH1   76   3.266   2.786   3.166
    5ARG   HH11   77   3.192   2.852   3.180
    5ARG   HH12   78   3.315   2.737   3.240
    5ARG    NH2   79   3.439   2.742   3.032
    5ARG   HH21   80   3.489   2.763   2.947
    5ARG   HH22   81   3.489   2.688   3.101
    5ARG      C   82   2.835   2.601   2.738
    5ARG      O   83   2.748   2.688   2.732
    6CARG     N   84   2.808   2.471   2.753
    6CARG     H   85   2.887   2.408   2.751
    6CARG    CA   86   2.673   2.411   2.774
    6CARG    HA   87   2.609   2.446   2.693
    6CARG    CB   88   2.680   2.257   2.765
    6CARG   HB2   89   2.582   2.221   2.737
    6CARG   HB3   90   2.748   2.229   2.684
    6CARG    CG   91   2.721   2.183   2.893
    6CARG   HG2   92   2.642   2.191   2.968
    6CARG   HG3   93   2.734   2.077   2.869
    6CARG    CD   94   2.850   2.238   2.952
    6CARG   HD2   95   2.921   2.256   2.871
    6CARG   HD3   96   2.827   2.334   2.999
    6CARG    NE   97   2.909   2.148   3.051
    6CARG    HE   98   2.851   2.125   3.130
    6CARG    CZ   99   3.018   2.076   3.040
    6CARG   NH1  100   3.096   2.080   2.937
    6CARG  HH11  101   3.072   2.137   2.857
    6CARG  HH12  102   3.170   2.011   2.924
    6CARG   NH2  103   3.050   1.999   3.140
    6CARG  HH21  104   2.974   1.984   3.205
    6CARG  HH22  105   3.103   1.917   3.115
    6CARG     C  106   2.600   2.456   2.901
    6CARG     O  107   2.662   2.525   2.982
    6CARG   OXT  108   2.485   2.406   2.918
    1PA    C116  109   3.047   2.555   5.214
    1PA    H16R  110   3.035   2.498   5.122
    1PA    H16S  111   3.154   2.569   5.233
    1PA    H16T  112   3.001   2.653   5.202
    1PA    C115  113   2.982   2.478   5.330
    1PA    H15R  114   2.876   2.464   5.309
    1PA    H15S  115   3.028   2.380   5.338
    1PA    C114  116   2.997   2.553   5.463
    1PA    H14R  117   3.103   2.570   5.484
    1PA    H14S  118   2.949   2.651   5.456
    1PA    C113  119   2.935   2.476   5.580
    1PA    H13R  120   2.828   2.462   5.561
    1PA    H13S  121   2.981   2.377   5.587
    1PA    C112  122   2.954   2.552   5.712
    1PA    H12R  123   3.060   2.558   5.737
    1PA    H12S  124   2.920   2.655   5.699
    1PA    C111  125   2.877   2.489   5.830
    1PA    H11R  126   2.885   2.557   5.914
    1PA    H11S  127   2.771   2.477   5.805
    1PA    C110  128   2.932   2.353   5.872
    1PA    H10R  129   2.924   2.282   5.790
    1PA    H10S  130   3.038   2.368   5.895
    1PA     C19  131   2.868   2.294   5.998
    1PA     H9R  132   2.761   2.278   5.983
    1PA     H9S  133   2.913   2.197   6.017
    1PA     C18  134   2.892   2.386   6.119
    1PA     H8R  135   2.993   2.426   6.110
    1PA     H8S  136   2.823   2.471   6.114
    1PA     C17  137   2.876   2.315   6.254
    1PA     H7R  138   2.776   2.275   6.263
    1PA     H7S  139   2.946   2.231   6.258
    1PA     C16  140   2.905   2.409   6.373
    1PA     H6R  141   2.826   2.484   6.378
    1PA     H6S  142   2.902   2.352   6.465
    1PA     C15  143   3.041   2.480   6.359
    1PA     H5R  144   3.118   2.405   6.337
    1PA     H5S  145   3.039   2.550   6.276
    1PA     C14  146   3.085   2.558   6.484
    1PA     H4R  147   3.104   2.487   6.565
    1PA     H4S  148   3.179   2.608   6.460
    1PA     C13  149   2.984   2.662   6.532
    1PA     H3R  150   2.958   2.729   6.450
    1PA     H3S  151   2.892   2.611   6.563
    1PA     C12  152   3.037   2.745   6.651
    1PA     H2R  153   3.077   2.678   6.728
    1PA     H2S  154   3.117   2.811   6.619
    1PC     C11  155   2.926   2.826   6.711
    1PC     O12  156   2.847   2.890   6.644
    1PC     O11  157   2.918   2.813   6.845
    1PC      C1  158   2.801   2.870   6.911
    1PC      HR  159   2.834   2.912   7.006
    1PC      HS  160   2.759   2.952   6.852
    1PC      C2  161   2.693   2.761   6.938
    1PC      HX  162   2.597   2.809   6.957
    1PC      C3  163   2.728   2.682   7.064
    1PC      HA  164   2.825   2.635   7.052
    1PC      HB  165   2.732   2.751   7.149
    1PC     O31  166   2.627   2.581   7.092
    1PC     P31  167   2.641   2.490   7.223
    1PC     O32  168   2.759   2.394   7.180
    1PC     C31  169   2.736   2.294   7.080
    1PC     H1A  170   2.681   2.211   7.125
    1PC     H1B  171   2.675   2.336   6.999
    1PC     C32  172   2.873   2.246   7.025
    1PC     H2A  173   2.931   2.203   7.107
    1PC     H2B  174   2.855   2.168   6.951
    1PC     N31  175   2.963   2.348   6.959
    1PC     C33  176   3.031   2.435   7.060
    1PC     H3A  177   2.955   2.487   7.118
    1PC     H3B  178   3.089   2.370   7.126
    1PC     H3C  179   3.096   2.505   7.009
    1PC     C34  180   3.071   2.274   6.886
    1PC     H4A  181   3.027   2.213   6.807
    1PC     H4B  182   3.142   2.346   6.846
    1PC     H4C  183   3.125   2.212   6.958
    1PC     C35  184   2.890   2.432   6.860
    1PC     H5A  185   2.851   2.368   6.781
    1PC     H5B  186   2.959   2.506   6.820
    1PC     H5C  187   2.808   2.483   6.911
    1PC     O33  188   2.690   2.577   7.332
    1PC     O34  189   2.520   2.408   7.244
    1PC     O21  190   2.682   2.672   6.823
    1PC     C21  191   2.604   2.713   6.721
    1PC     O22  192   2.536   2.813   6.726
    1OL     C12  193   2.614   2.624   6.600
    1OL     H2R  194   2.684   2.543   6.620
    1OL     H2S  195   2.655   2.685   6.519
    1OL     C13  196   2.477   2.566   6.560
    1OL     H3R  197   2.406   2.647   6.546
    1OL     H3S  198   2.440   2.503   6.641
    1OL     C14  199   2.483   2.482   6.431
    1OL     H4R  200   2.384   2.440   6.413
    1OL     H4S  201   2.552   2.398   6.444
    1OL     C15  202   2.526   2.565   6.309
    1OL     H5R  203   2.631   2.593   6.317
    1OL     H5S  204   2.468   2.658   6.309
    1OL     C16  205   2.505   2.492   6.174
    1OL     H6R  206   2.471   2.391   6.193
    1OL     H6S  207   2.601   2.483   6.122
    1OL     C17  208   2.404   2.562   6.081
    1OL     H7R  209   2.317   2.596   6.139
    1OL     H7S  210   2.368   2.489   6.008
    1OL     C18  211   2.459   2.682   6.004
    1OL     H8R  212   2.379   2.722   5.940
    1OL     H8S  213   2.536   2.645   5.937
    1OL     C19  214   2.510   2.793   6.094
    1OL     H9R  215   2.432   2.850   6.145
    1OL    C110  216   2.637   2.824   6.115
    1OL    H10R  217   2.662   2.906   6.182
    1OL    C111  218   2.755   2.753   6.053
    1OL    H11R  219   2.725   2.656   6.013
    1OL    H11S  220   2.829   2.732   6.132
    1OL    C112  221   2.824   2.835   5.943
    1OL    H12R  222   2.909   2.779   5.904
    1OL    H12S  223   2.865   2.926   5.988
    1OL    C113  224   2.734   2.878   5.825
    1OL    H13R  225   2.796   2.940   5.759
    1OL    H13S  226   2.656   2.942   5.866
    1OL    C114  227   2.667   2.768   5.740
    1OL    H14R  228   2.562   2.759   5.768
    1OL    H14S  229   2.713   2.671   5.760
    1OL    C115  230   2.673   2.797   5.589
    1OL    H15R  231   2.778   2.807   5.560
    1OL    H15S  232   2.625   2.893   5.571
    1OL    C116  233   2.606   2.690   5.502
    1OL    H16R  234   2.507   2.667   5.541
    1OL    H16S  235   2.663   2.597   5.505
    1OL    C117  236   2.590   2.736   5.356
    1OL    H17R  237   2.535   2.831   5.355
    1OL    H17S  238   2.529   2.664   5.301
    1OL    C118  239   2.724   2.755   5.283
    1OL    H18R  240   2.768   2.658   5.260
    1OL    H18S  241   2.795   2.811   5.344
    1OL    H18T  242   2.710   2.811   5.190
    1PA    C116  243   3.289   3.013   5.023
    1PA    H16R  244   3.226   3.026   5.112
    1PA    H16S  245   3.369   2.945   5.051
    1PA    H16T  246   3.231   2.963   4.945
    1PA    C115  247   3.343   3.149   4.975
    1PA    H15R  248   3.415   3.132   4.895
    1PA    H15S  249   3.264   3.210   4.932
    1PA    C114  250   3.409   3.227   5.090
    1PA    H14R  251   3.341   3.305   5.126
    1PA    H14S  252   3.424   3.159   5.175
    1PA    C113  253   3.543   3.291   5.050
    1PA    H13R  254   3.609   3.218   5.003
    1PA    H13S  255   3.524   3.369   4.976
    1PA    C112  256   3.618   3.353   5.169
    1PA    H12R  257   3.711   3.393   5.129
    1PA    H12S  258   3.559   3.439   5.204
    1PA    C111  259   3.650   3.259   5.287
    1PA    H11R  260   3.606   3.160   5.272
    1PA    H11S  261   3.758   3.243   5.293
    1PA    C110  262   3.600   3.315   5.422
    1PA    H10R  263   3.492   3.332   5.414
    1PA    H10S  264   3.615   3.242   5.501
    1PA     C19  265   3.670   3.447   5.459
    1PA     H9R  266   3.772   3.427   5.492
    1PA     H9S  267   3.678   3.511   5.371
    1PA     C18  268   3.594   3.528   5.565
    1PA     H8R  269   3.611   3.634   5.545
    1PA     H8S  270   3.486   3.513   5.552
    1PA     C17  271   3.635   3.496   5.711
    1PA     H7R  272   3.608   3.393   5.735
    1PA     H7S  273   3.743   3.504   5.720
    1PA     C16  274   3.567   3.593   5.810
    1PA     H6R  275   3.595   3.695   5.783
    1PA     H6S  276   3.459   3.587   5.799
    1PA     C15  277   3.605   3.570   5.958
    1PA     H5R  278   3.712   3.550   5.966
    1PA     H5S  279   3.585   3.661   6.014
    1PA     C14  280   3.528   3.455   6.023
    1PA     H4R  281   3.421   3.479   6.021
    1PA     H4S  282   3.542   3.364   5.964
    1PA     C13  283   3.571   3.427   6.168
    1PA     H3R  284   3.673   3.387   6.168
    1PA     H3S  285   3.572   3.520   6.225
    1PA     C12  286   3.475   3.327   6.235
    1PA     H2R  287   3.378   3.376   6.250
    1PA     H2S  288   3.458   3.242   6.169
    1PC     C11  289   3.523   3.275   6.368
    1PC     O12  290   3.627   3.305   6.422
    1PC     O11  291   3.435   3.187   6.420
    1PC      C1  292   3.459   3.138   6.555
    1PC      HR  293   3.398   3.048   6.569
    1PC      HS  294   3.564   3.111   6.568
    1PC      C2  295   3.415   3.243   6.660
    1PC      HX  296   3.477   3.333   6.647
    1PC      C3  297   3.431   3.190   6.804
    1PC      HA  298   3.370   3.100   6.814
    1PC      HB  299   3.536   3.165   6.821
    1PC     O31  300   3.390   3.290   6.901
    1PC     P31  301   3.272   3.264   7.008
    1PC     O32  302   3.357   3.203   7.129
    1PC     C31  303   3.301   3.101   7.213
    1PC     H1A  304   3.252   3.148   7.298
    1PC     H1B  305   3.227   3.041   7.159
    1PC     C32  306   3.416   3.010   7.261
    1PC     H2A  307   3.492   3.072   7.309
    1PC     H2B  308   3.377   2.941   7.336
    1PC     N31  309   3.487   2.924   7.161
    1PC     C33  310   3.564   3.006   7.063
    1PC     H3A  311   3.633   3.071   7.117
    1PC     H3B  312   3.617   2.940   6.993
    1PC     H3C  313   3.492   3.067   7.010
    1PC     C34  314   3.582   2.835   7.234
    1PC     H4A  315   3.637   2.774   7.162
    1PC     H4B  316   3.650   2.897   7.293
    1PC     H4C  317   3.523   2.772   7.301
    1PC     C35  318   3.390   2.839   7.087
    1PC     H5A  319   3.340   2.772   7.157
    1PC     H5B  320   3.445   2.781   7.013
    1PC     H5C  321   3.318   2.903   7.037
    1PC     O33  322   3.212   3.391   7.053
    1PC     O34  323   3.188   3.154   6.958
    1PC     O21  324   3.276   3.270   6.637
    1PC     C21  325   3.236   3.397   6.630
    1PC     O22  326   3.304   3.493   6.660
    1OL     C12  327   3.099   3.411   6.570
    1OL     H2R  328   3.100   3.505   6.514
    1OL     H2S  329   3.025   3.419   6.651
    1OL     C13  330   3.060   3.296   6.475
    1OL     H3R  331   3.031   3.208   6.533
    1OL     H3S  332   3.148   3.269   6.416
    1OL     C14  333   2.946   3.335   6.379
    1OL     H4R  334   2.972   3.429   6.330
    1OL     H4S  335   2.855   3.355   6.438
    1OL     C15  336   2.913   3.230   6.272
    1OL     H5R  337   2.838   3.272   6.204
    1OL     H5S  338   2.867   3.143   6.320
    1OL     C16  339   3.034   3.182   6.189
    1OL     H6R  340   2.998   3.119   6.107
    1OL     H6S  341   3.096   3.117   6.252
    1OL     C17  342   3.123   3.294   6.132
    1OL     H7R  343   3.206   3.249   6.078
    1OL     H7S  344   3.165   3.353   6.213
    1OL     C18  345   3.048   3.389   6.037
    1OL     H8R  346   2.964   3.435   6.090
    1OL     H8S  347   3.004   3.330   5.956
    1OL     C19  348   3.139   3.498   5.984
    1OL     H9R  349   3.152   3.582   6.052
    1OL    C110  350   3.200   3.500   5.866
    1OL    H10R  351   3.261   3.586   5.840
    1OL    C111  352   3.192   3.392   5.760
    1OL    H11R  353   3.170   3.437   5.663
    1OL    H11S  354   3.111   3.322   5.782
    1OL    C112  355   3.325   3.317   5.748
    1OL    H12R  356   3.369   3.304   5.847
    1OL    H12S  357   3.393   3.378   5.689
    1OL    C113  358   3.312   3.179   5.682
    1OL    H13R  359   3.413   3.140   5.665
    1OL    H13S  360   3.265   3.190   5.584
    1OL    C114  361   3.233   3.081   5.771
    1OL    H14R  362   3.126   3.101   5.764
    1OL    H14S  363   3.262   3.098   5.874
    1OL    C115  364   3.259   2.932   5.741
    1OL    H15R  365   3.236   2.875   5.831
    1OL    H15S  366   3.366   2.917   5.722
    1OL    C116  367   3.177   2.871   5.625
    1OL    H16R  368   3.071   2.872   5.652
    1OL    H16S  369   3.206   2.767   5.615
    1OL    C117  370   3.196   2.942   5.490
    1OL    H17R  371   3.302   2.959   5.471
    1OL    H17S  372   3.147   3.040   5.493
    1OL    C118  373   3.136   2.862   5.374
    1OL    H18R  374   3.154   2.913   5.279
    1OL    H18S  375   3.028   2.851   5.387
    1OL    H18T  376   3.182   2.763   5.369
    1PA    C116  377   3.814   2.577   5.041
    1PA    H16R  378   3.714   2.561   5.081
    1PA    H16S  379   3.844   2.493   4.979
    1PA    H16T  380   3.811   2.665   4.976
    1PA    C115  381   3.914   2.597   5.156
    1PA    H15R  382   4.011   2.622   5.112
    1PA    H15S  383   3.884   2.682   5.217
    1PA    C114  384   3.932   2.474   5.247
    1PA    H14R  385   3.961   2.388   5.187
    1PA    H14S  386   4.016   2.496   5.313
    1PA    C113  387   3.810   2.439   5.335
    1PA    H13R  388   3.764   2.530   5.375
    1PA    H13S  389   3.733   2.387   5.276
    1PA    C112  390   3.856   2.350   5.452
    1PA    H12R  391   3.911   2.264   5.414
    1PA    H12S  392   3.926   2.409   5.511
    1PA    C111  393   3.745   2.300   5.548
    1PA    H11R  394   3.676   2.382   5.570
    1PA    H11S  395   3.689   2.219   5.501
    1PA    C110  396   3.811   2.252   5.678
    1PA    H10R  397   3.874   2.166   5.657
    1PA    H10S  398   3.878   2.332   5.713
    1PA     C19  399   3.715   2.218   5.794
    1PA     H9R  400   3.643   2.299   5.808
    1PA     H9S  401   3.661   2.126   5.773
    1PA     C18  402   3.800   2.203   5.922
    1PA     H8R  403   3.870   2.120   5.907
    1PA     H8S  404   3.859   2.294   5.935
    1PA     C17  405   3.724   2.176   6.053
    1PA     H7R  406   3.645   2.249   6.067
    1PA     H7S  407   3.678   2.076   6.050
    1PA     C16  408   3.824   2.184   6.171
    1PA     H6R  409   3.912   2.123   6.147
    1PA     H6S  410   3.859   2.287   6.180
    1PA     C15  411   3.768   2.137   6.306
    1PA     H5R  412   3.681   2.196   6.334
    1PA     H5S  413   3.736   2.033   6.297
    1PA     C14  414   3.876   2.145   6.417
    1PA     H4R  415   3.849   2.077   6.498
    1PA     H4S  416   3.971   2.109   6.376
    1PA     C13  417   3.897   2.287   6.473
    1PA     H3R  418   4.001   2.298   6.506
    1PA     H3S  419   3.879   2.362   6.396
    1PA     C12  420   3.805   2.313   6.594
    1PA     H2R  421   3.700   2.300   6.566
    1PA     H2S  422   3.826   2.239   6.672
    1PC     C11  423   3.823   2.451   6.652
    1PC     O12  424   3.833   2.553   6.587
    1PC     O11  425   3.829   2.449   6.787
    1PC      C1  426   3.803   2.574   6.858
    1PC      HR  427   3.859   2.572   6.951
    1PC      HS  428   3.835   2.660   6.799
    1PC      C2  429   3.652   2.587   6.893
    1PC      HX  430   3.635   2.685   6.938
    1PC      C3  431   3.611   2.477   6.994
    1PC      HA  432   3.694   2.449   7.059
    1PC      HB  433   3.529   2.514   7.056
    1PC     O31  434   3.564   2.361   6.924
    1PC     P31  435   3.490   2.245   7.004
    1PC     O32  436   3.564   2.115   6.948
    1PC     C31  437   3.707   2.110   6.937
    1PC     H1A  438   3.735   2.017   6.887
    1PC     H1B  439   3.740   2.193   6.874
    1PC     C32  440   3.775   2.119   7.075
    1PC     H2A  441   3.882   2.135   7.063
    1PC     H2B  442   3.734   2.206   7.128
    1PC     N31  443   3.760   2.003   7.170
    1PC     C33  444   3.828   1.882   7.116
    1PC     H3A  445   3.822   1.804   7.192
    1PC     H3B  446   3.775   1.849   7.027
    1PC     H3C  447   3.932   1.906   7.095
    1PC     C34  448   3.824   2.040   7.299
    1PC     H4A  449   3.772   2.126   7.340
    1PC     H4B  450   3.814   1.955   7.367
    1PC     H4C  451   3.929   2.063   7.282
    1PC     C35  452   3.617   1.971   7.199
    1PC     H5A  453   3.568   1.940   7.106
    1PC     H5B  454   3.568   2.061   7.237
    1PC     H5C  455   3.612   1.890   7.272
    1PC     O33  456   3.527   2.264   7.146
    1PC     O34  457   3.349   2.247   6.961
    1PC     O21  458   3.574   2.576   6.772
    1PC     C21  459   3.440   2.586   6.782
    1PC     O22  460   3.385   2.638   6.877
    1OL     C12  461   3.361   2.533   6.666
    1OL     H2R  462   3.290   2.611   6.640
    1OL     H2S  463   3.306   2.446   6.701
    1OL     C13  464   3.442   2.494   6.541
    1OL     H3R  465   3.374   2.439   6.476
    1OL     H3S  466   3.522   2.423   6.569
    1OL     C14  467   3.502   2.614   6.466
    1OL     H4R  468   3.590   2.651   6.520
    1OL     H4S  469   3.430   2.696   6.464
    1OL     C15  470   3.543   2.582   6.321
    1OL     H5R  471   3.608   2.494   6.320
    1OL     H5S  472   3.601   2.665   6.280
    1OL     C16  473   3.420   2.557   6.231
    1OL     H6R  474   3.357   2.646   6.232
    1OL     H6S  475   3.361   2.476   6.274
    1OL     C17  476   3.455   2.521   6.086
    1OL     H7R  477   3.529   2.441   6.085
    1OL     H7S  478   3.501   2.608   6.037
    1OL     C18  479   3.332   2.477   6.004
    1OL     H8R  480   3.362   2.458   5.901
    1OL     H8S  481   3.260   2.558   6.002
    1OL     C19  482   3.268   2.354   6.066
    1OL     H9R  483   3.222   2.370   6.163
    1OL    C110  484   3.261   2.232   6.013
    1OL    H10R  485   3.211   2.153   6.068
    1OL    C111  486   3.317   2.191   5.878
    1OL    H11R  487   3.346   2.086   5.881
    1OL    H11S  488   3.406   2.249   5.854
    1OL    C112  489   3.209   2.213   5.771
    1OL    H12R  490   3.185   2.320   5.767
    1OL    H12S  491   3.118   2.159   5.801
    1OL    C113  492   3.246   2.171   5.629
    1OL    H13R  493   3.159   2.187   5.565
    1OL    H13S  494   3.269   2.064   5.628
    1OL    C114  495   3.364   2.253   5.576
    1OL    H14R  496   3.456   2.223   5.627
    1OL    H14S  497   3.349   2.359   5.598
    1OL    C115  498   3.383   2.237   5.425
    1OL    H15R  499   3.472   2.292   5.394
    1OL    H15S  500   3.299   2.282   5.373
    1OL    C116  501   3.398   2.089   5.384
    1OL    H16R  502   3.419   2.026   5.471
    1OL    H16S  503   3.486   2.080   5.319
    1OL    C117  504   3.275   2.036   5.309
    1OL    H17R  505   3.250   2.104   5.228
    1OL    H17S  506   3.188   2.031   5.374
    1OL    C118  507   3.305   1.897   5.252
    1OL    H18R  508   3.234   1.874   5.172
    1OL    H18S  509   3.300   1.820   5.329
    1OL    H18T  510   3.406   1.893   5.209
    1PA    C116  511   2.865   1.683   5.211
    1PA    H16R  512   2.891   1.578   5.224
    1PA    H16S  513   2.844   1.699   5.105
    1PA    H16T  514   2.775   1.705   5.269
    1PA    C115  515   2.983   1.772   5.256
    1PA    H15R  516   3.071   1.740   5.200
    1PA    H15S  517   2.963   1.875   5.228
    1PA    C114  518   3.013   1.765   5.407
    1PA    H14R  519   3.006   1.662   5.442
    1PA    H14S  520   3.117   1.796   5.424
    1PA    C113  521   2.922   1.858   5.489
    1PA    H13R  522   2.929   1.959   5.447
    1PA    H13S  523   2.818   1.826   5.479
    1PA    C112  524   2.959   1.867   5.638
    1PA    H12R  525   3.063   1.898   5.648
    1PA    H12S  526   2.898   1.944   5.685
    1PA    C111  527   2.940   1.734   5.715
    1PA    H11R  528   2.845   1.689   5.687
    1PA    H11S  529   3.019   1.665   5.685
    1PA    C110  530   2.943   1.757   5.868
    1PA    H10R  531   2.996   1.849   5.891
    1PA    H10S  532   2.840   1.770   5.902
    1PA     C19  533   3.008   1.641   5.945
    1PA     H9R  534   2.989   1.655   6.052
    1PA     H9S  535   2.958   1.548   5.917
    1PA     C18  536   3.160   1.631   5.923
    1PA     H8R  537   3.192   1.696   5.841
    1PA     H8S  538   3.211   1.665   6.013
    1PA     C17  539   3.200   1.486   5.890
    1PA     H7R  540   3.146   1.419   5.957
    1PA     H7S  541   3.166   1.464   5.788
    1PA     C16  542   3.349   1.454   5.897
    1PA     H6R  543   3.365   1.351   5.863
    1PA     H6S  544   3.401   1.519   5.826
    1PA     C15  545   3.409   1.469   6.038
    1PA     H5R  546   3.516   1.447   6.035
    1PA     H5S  547   3.399   1.573   6.069
    1PA     C14  548   3.345   1.376   6.143
    1PA     H4R  549   3.237   1.395   6.150
    1PA     H4S  550   3.358   1.273   6.112
    1PA     C13  551   3.405   1.395   6.283
    1PA     H3R  552   3.356   1.325   6.351
    1PA     H3S  553   3.511   1.369   6.281
    1PA     C12  554   3.389   1.539   6.337
    1PA     H2R  555   3.452   1.608   6.280
    1PA     H2S  556   3.285   1.572   6.325
    1PC     C11  557   3.426   1.552   6.482
    1PC     O12  558   3.459   1.459   6.553
    1PC     O11  559   3.416   1.679   6.527
    1PC      C1  560   3.432   1.705   6.669
    1PC      HR  561   3.493   1.628   6.716
    1PC      HS  562   3.483   1.800   6.679
    1PC      C2  563   3.295   1.716   6.741
    1PC      HX  564   3.239   1.800   6.700
    1PC      C3  565   3.319   1.743   6.891
    1PC      HA  566   3.396   1.674   6.927
    1PC      HB  567   3.353   1.846   6.906
    1PC     O31  568   3.197   1.724   6.968
    1PC     P31  569   3.202   1.649   7.110
    1PC     O32  570   3.059   1.577   7.114
    1PC     C31  571   3.017   1.488   7.008
    1PC     H1A  572   3.008   1.546   6.916
    1PC     H1B  573   3.093   1.411   6.994
    1PC     C32  574   2.881   1.423   7.045
    1PC     H2A  575   2.838   1.377   6.956
    1PC     H2B  576   2.898   1.345   7.119
    1PC     N31  577   2.772   1.511   7.103
    1PC     C33  578   2.797   1.526   7.249
    1PC     H3A  579   2.779   1.429   7.296
    1PC     H3B  580   2.902   1.552   7.264
    1PC     H3C  581   2.730   1.602   7.290
    1PC     C34  582   2.766   1.647   7.040
    1PC     H4A  583   2.865   1.692   7.047
    1PC     H4B  584   2.736   1.635   6.936
    1PC     H4C  585   2.693   1.706   7.094
    1PC     C35  586   2.638   1.448   7.088
    1PC     H5A  587   2.566   1.511   7.141
    1PC     H5B  588   2.641   1.350   7.135
    1PC     H5C  589   2.612   1.443   6.983
    1PC     O33  590   3.308   1.547   7.110
    1PC     O34  591   3.200   1.755   7.213
    1PC     O21  592   3.219   1.593   6.727
    1PC     C21  593   3.129   1.585   6.627
    1PC     O22  594   3.110   1.674   6.545
    1OL     C12  595   3.053   1.455   6.629
    1OL     H2R  596   2.969   1.467   6.699
    1OL     H2S  597   3.117   1.375   6.667
    1OL     C13  598   2.999   1.419   6.489
    1OL     H3R  599   3.081   1.383   6.427
    1OL     H3S  600   2.959   1.508   6.442
    1OL     C14  601   2.887   1.314   6.494
    1OL     H4R  602   2.821   1.335   6.578
    1OL     H4S  603   2.929   1.214   6.509
    1OL     C15  604   2.804   1.317   6.365
    1OL     H5R  605   2.764   1.418   6.351
    1OL     H5S  606   2.718   1.251   6.377
    1OL     C16  607   2.883   1.276   6.240
    1OL     H6R  608   2.912   1.171   6.250
    1OL     H6S  609   2.976   1.334   6.232
    1OL     C17  610   2.800   1.297   6.112
    1OL     H7R  611   2.809   1.400   6.078
    1OL     H7S  612   2.695   1.278   6.134
    1OL     C18  613   2.840   1.200   6.000
    1OL     H8R  614   2.770   1.210   5.917
    1OL     H8S  615   2.829   1.100   6.042
    1OL     C19  616   2.984   1.214   5.954
    1OL     H9R  617   3.057   1.212   6.034
    1OL    C110  618   3.027   1.228   5.829
    1OL    H10R  619   3.135   1.235   5.812
    1OL    C111  620   2.945   1.234   5.702
    1OL    H11R  621   2.838   1.237   5.724
    1OL    H11S  622   2.964   1.145   5.642
    1OL    C112  623   2.983   1.359   5.621
    1OL    H12R  624   3.088   1.354   5.591
    1OL    H12S  625   2.974   1.444   5.689
    1OL    C113  626   2.892   1.391   5.500
    1OL    H13R  627   2.887   1.499   5.489
    1OL    H13S  628   2.791   1.359   5.523
    1OL    C114  629   2.933   1.331   5.363
    1OL    H14R  630   2.860   1.367   5.290
    1OL    H14S  631   2.919   1.223   5.367
    1OL    C115  632   3.075   1.366   5.312
    1OL    H15R  633   3.150   1.326   5.380
    1OL    H15S  634   3.088   1.474   5.312
    1OL    C116  635   3.100   1.313   5.167
    1OL    H16R  636   3.105   1.401   5.102
    1OL    H16S  637   3.011   1.259   5.134
    1OL    C117  638   3.222   1.222   5.137
    1OL    H17R  639   3.235   1.216   5.029
    1OL    H17S  640   3.199   1.119   5.166
    1OL    C118  641   3.358   1.259   5.200
    1OL    H18R  642   3.428   1.175   5.189
    1OL    H18S  643   3.349   1.279   5.307
    1OL    H18T  644   3.402   1.345   5.151
    1PA    C116  645   2.692   3.202   5.266
    1PA    H16R  646   2.763   3.284   5.259
    1PA    H16S  647   2.598   3.241   5.306
    1PA    H16T  648   2.672   3.163   5.166
    1PA    C115  649   2.746   3.090   5.357
    1PA    H15R  650   2.669   3.012   5.364
    1PA    H15S  651   2.834   3.043   5.313
    1PA    C114  652   2.781   3.139   5.499
    1PA    H14R  653   2.817   3.054   5.558
    1PA    H14S  654   2.860   3.213   5.495
    1PA    C113  655   2.655   3.198   5.563
    1PA    H13R  656   2.633   3.294   5.516
    1PA    H13S  657   2.571   3.132   5.538
    1PA    C112  658   2.662   3.217   5.715
    1PA    H12R  659   2.567   3.256   5.752
    1PA    H12S  660   2.676   3.119   5.763
    1PA    C111  661   2.775   3.309   5.760
    1PA    H11R  662   2.774   3.315   5.869
    1PA    H11S  663   2.871   3.265   5.731
    1PA    C110  664   2.764   3.452   5.702
    1PA    H10R  665   2.754   3.450   5.593
    1PA    H10S  666   2.676   3.501   5.743
    1PA     C19  667   2.893   3.527   5.737
    1PA     H9R  668   2.924   3.494   5.836
    1PA     H9S  669   2.970   3.495   5.666
    1PA     C18  670   2.891   3.680   5.740
    1PA     H8R  671   2.987   3.713   5.779
    1PA     H8S  672   2.883   3.721   5.639
    1PA     C17  673   2.780   3.739   5.829
    1PA     H7R  674   2.801   3.845   5.843
    1PA     H7S  675   2.684   3.730   5.777
    1PA     C16  676   2.771   3.671   5.966
    1PA     H6R  677   2.739   3.567   5.953
    1PA     H6S  678   2.870   3.669   6.013
    1PA     C15  679   2.671   3.741   6.059
    1PA     H5R  680   2.711   3.838   6.090
    1PA     H5S  681   2.578   3.758   6.004
    1PA     C14  682   2.640   3.655   6.182
    1PA     H4R  683   2.550   3.695   6.230
    1PA     H4S  684   2.615   3.555   6.147
    1PA     C13  685   2.754   3.642   6.285
    1PA     H3R  686   2.759   3.537   6.315
    1PA     H3S  687   2.851   3.668   6.241
    1PA     C12  688   2.727   3.729   6.408
    1PA     H2R  689   2.751   3.833   6.387
    1PA     H2S  690   2.620   3.720   6.431
    1PC     C11  691   2.796   3.686   6.534
    1PC     O12  692   2.880   3.599   6.539
    1PC     O11  693   2.751   3.753   6.642
    1PC      C1  694   2.780   3.699   6.775
    1PC      HR  695   2.877   3.650   6.775
    1PC      HS  696   2.784   3.783   6.845
    1PC      C2  697   2.668   3.602   6.823
    1PC      HX  698   2.575   3.659   6.835
    1PC      C3  699   2.712   3.541   6.959
    1PC      HA  700   2.797   3.474   6.945
    1PC      HB  701   2.742   3.624   7.023
    1PC     O31  702   2.602   3.470   7.023
    1PC     P31  703   2.592   3.460   7.183
    1PC     O32  704   2.588   3.305   7.215
    1PC     C31  705   2.681   3.213   7.159
    1PC     H1A  706   2.779   3.260   7.149
    1PC     H1B  707   2.689   3.127   7.227
    1PC     C32  708   2.624   3.169   7.023
    1PC     H2A  709   2.626   3.253   6.954
    1PC     H2B  710   2.689   3.091   6.982
    1PC     N31  711   2.483   3.116   7.018
    1PC     C33  712   2.382   3.225   7.027
    1PC     H3A  713   2.401   3.299   6.948
    1PC     H3B  714   2.281   3.184   7.018
    1PC     H3C  715   2.392   3.275   7.124
    1PC     C34  716   2.464   3.051   6.885
    1PC     H4A  717   2.370   2.995   6.884
    1PC     H4B  718   2.460   3.129   6.808
    1PC     H4C  719   2.547   2.984   6.864
    1PC     C35  720   2.455   3.016   7.126
    1PC     H5A  721   2.530   2.936   7.124
    1PC     H5B  722   2.355   2.974   7.111
    1PC     H5C  723   2.459   3.068   7.222
    1PC     O33  724   2.717   3.511   7.244
    1PC     O34  725   2.460   3.506   7.227
    1PC     O21  726   2.651   3.496   6.725
    1PC     C21  727   2.530   3.440   6.706
    1PC     O22  728   2.432   3.454   6.777
    1OL     C12  729   2.530   3.349   6.586
    1OL     H2R  730   2.482   3.255   6.613
    1OL     H2S  731   2.634   3.326   6.558
    1OL     C13  732   2.458   3.413   6.466
    1OL     H3R  733   2.499   3.512   6.448
    1OL     H3S  734   2.352   3.424   6.489
    1OL     C14  735   2.475   3.328   6.338
    1OL     H4R  736   2.438   3.227   6.355
    1OL     H4S  737   2.582   3.320   6.317
    1OL     C15  738   2.404   3.389   6.216
    1OL     H5R  739   2.412   3.498   6.221
    1OL     H5S  740   2.298   3.365   6.219
    1OL     C16  741   2.466   3.340   6.084
    1OL     H6R  742   2.436   3.236   6.065
    1OL     H6S  743   2.575   3.340   6.093
    1OL     C17  744   2.429   3.429   5.963
    1OL     H7R  745   2.492   3.400   5.878
    1OL     H7S  746   2.454   3.533   5.986
    1OL     C18  747   2.282   3.422   5.921
    1OL     H8R  748   2.219   3.459   6.002
    1OL     H8S  749   2.252   3.319   5.902
    1OL     C19  750   2.263   3.508   5.798
    1OL     H9R  751   2.245   3.613   5.821
    1OL    C110  752   2.266   3.468   5.671
    1OL    H10R  753   2.249   3.542   5.593
    1OL    C111  754   2.291   3.326   5.627
    1OL    H11R  755   2.218   3.262   5.676
    1OL    H11S  756   2.391   3.297   5.660
    1OL    C112  757   2.281   3.298   5.476
    1OL    H12R  758   2.178   3.311   5.441
    1OL    H12S  759   2.306   3.193   5.460
    1OL    C113  760   2.378   3.380   5.392
    1OL    H13R  761   2.410   3.321   5.305
    1OL    H13S  762   2.467   3.403   5.452
    1OL    C114  763   2.314   3.508   5.342
    1OL    H14R  764   2.224   3.529   5.401
    1OL    H14S  765   2.283   3.492   5.238
    1OL    C115  766   2.410   3.626   5.349
    1OL    H15R  767   2.435   3.644   5.454
    1OL    H15S  768   2.362   3.717   5.312
    1OL    C116  769   2.535   3.600   5.263
    1OL    H16R  770   2.539   3.681   5.190
    1OL    H16S  771   2.525   3.509   5.204
    1OL    C117  772   2.667   3.595   5.341
    1OL    H17R  773   2.749   3.607   5.270
    1OL    H17S  774   2.679   3.497   5.388
    1OL    C118  775   2.678   3.705   5.448
    1OL    H18R  776   2.782   3.731   5.465
    1OL    H18S  777   2.634   3.671   5.543
    1OL    H18T  778   2.625   3.795   5.417
    1PA    C116  779   2.046   1.978   5.210
    1PA    H16R  780   2.065   1.871   5.202
    1PA    H16S  781   2.135   2.032   5.175
    1PA    H16T  782   1.962   2.004   5.145
    1PA    C115  783   2.014   2.016   5.356
    1PA    H15R  784   1.994   2.123   5.361
    1PA    H15S  785   1.922   1.965   5.387
    1PA    C114  786   2.128   1.980   5.453
    1PA    H14R  787   2.151   1.874   5.445
    1PA    H14S  788   2.218   2.036   5.423
    1PA    C113  789   2.093   2.015   5.599
    1PA    H13R  790   2.048   2.114   5.601
    1PA    H13S  791   2.017   1.945   5.635
    1PA    C112  792   2.214   2.016   5.695
    1PA    H12R  793   2.285   2.091   5.659
    1PA    H12S  794   2.179   2.051   5.792
    1PA    C111  795   2.290   1.883   5.715
    1PA    H11R  796   2.331   1.849   5.620
    1PA    H11S  797   2.374   1.902   5.782
    1PA    C110  798   2.203   1.771   5.776
    1PA    H10R  799   2.141   1.813   5.856
    1PA    H10S  800   2.137   1.735   5.696
    1PA     C19  801   2.281   1.650   5.830
    1PA     H9R  802   2.327   1.599   5.745
    1PA     H9S  803   2.363   1.685   5.894
    1PA     C18  804   2.192   1.549   5.907
    1PA     H8R  805   2.097   1.539   5.855
    1PA     H8S  806   2.240   1.451   5.903
    1PA     C17  807   2.165   1.583   6.055
    1PA     H7R  808   2.120   1.682   6.063
    1PA     H7S  809   2.093   1.511   6.094
    1PA     C16  810   2.293   1.577   6.141
    1PA     H6R  811   2.349   1.486   6.113
    1PA     H6S  812   2.358   1.661   6.117
    1PA     C15  813   2.269   1.572   6.293
    1PA     H5R  814   2.214   1.481   6.317
    1PA     H5S  815   2.366   1.563   6.343
    1PA     C14  816   2.194   1.693   6.353
    1PA     H4R  817   2.091   1.693   6.317
    1PA     H4S  818   2.190   1.678   6.462
    1PA     C13  819   2.259   1.829   6.322
    1PA     H3R  820   2.363   1.814   6.294
    1PA     H3S  821   2.209   1.873   6.235
    1PA     C12  822   2.257   1.929   6.440
    1PA     H2R  823   2.309   1.884   6.525
    1PA     H2S  824   2.312   2.019   6.412
    1PC     C11  825   2.119   1.971   6.486
    1PC     O12  826   2.022   1.979   6.413
    1PC     O11  827   2.119   2.003   6.617
    1PC      C1  828   1.993   2.015   6.687
    1PC      HR  829   2.009   2.076   6.776
    1PC      HS  830   1.921   2.067   6.623
    1PC      C2  831   1.935   1.877   6.731
    1PC      HX  832   1.833   1.895   6.767
    1PC      C3  833   2.013   1.802   6.842
    1PC      HA  834   2.006   1.859   6.935
    1PC      HB  835   1.967   1.705   6.856
    1PC     O31  836   2.154   1.783   6.812
    1PC     P31  837   2.240   1.669   6.887
    1PC     O32  838   2.218   1.710   7.040
    1PC     C31  839   2.120   1.644   7.122
    1PC     H1A  840   2.042   1.601   7.059
    1PC     H1B  841   2.168   1.563   7.177
    1PC     C32  842   2.056   1.748   7.216
    1PC     H2A  843   1.996   1.818   7.156
    1PC     H2B  844   1.989   1.696   7.284
    1PC     N31  845   2.147   1.834   7.301
    1PC     C33  846   2.216   1.939   7.221
    1PC     H3A  847   2.274   2.003   7.288
    1PC     H3B  848   2.282   1.890   7.149
    1PC     H3C  849   2.141   1.997   7.167
    1PC     C34  850   2.063   1.902   7.404
    1PC     H4A  851   2.127   1.968   7.464
    1PC     H4B  852   1.986   1.960   7.354
    1PC     H4C  853   2.017   1.826   7.468
    1PC     C35  854   2.250   1.750   7.370
    1PC     H5A  855   2.312   1.704   7.293
    1PC     H5B  856   2.200   1.674   7.430
    1PC     H5C  857   2.311   1.815   7.433
    1PC     O33  858   2.176   1.537   6.869
    1PC     O34  859   2.384   1.685   6.861
    1PC     O21  860   1.929   1.793   6.614
    1PC     C21  861   1.829   1.707   6.598
    1PC     O22  862   1.745   1.680   6.682
    1OL     C12  863   1.832   1.652   6.458
    1OL     H2R  864   1.875   1.552   6.460
    1OL     H2S  865   1.899   1.715   6.400
    1OL     C13  866   1.694   1.653   6.391
    1OL     H3R  867   1.656   1.756   6.388
    1OL     H3S  868   1.623   1.594   6.450
    1OL     C14  869   1.700   1.598   6.249
    1OL     H4R  870   1.599   1.595   6.207
    1OL     H4S  871   1.734   1.494   6.253
    1OL     C15  872   1.794   1.675   6.153
    1OL     H5R  873   1.787   1.627   6.056
    1OL     H5S  874   1.897   1.662   6.186
    1OL     C16  875   1.765   1.826   6.140
    1OL     H6R  876   1.794   1.876   6.233
    1OL     H6S  877   1.658   1.844   6.128
    1OL     C17  878   1.842   1.891   6.023
    1OL     H7R  879   1.940   1.843   6.013
    1OL     H7S  880   1.862   1.996   6.048
    1OL     C18  881   1.769   1.888   5.887
    1OL     H8R  882   1.837   1.921   5.809
    1OL     H8S  883   1.691   1.965   5.890
    1OL     C19  884   1.706   1.753   5.855
    1OL     H9R  885   1.614   1.731   5.908
    1OL    C110  886   1.755   1.660   5.774
    1OL    H10R  887   1.702   1.567   5.761
    1OL    C111  888   1.884   1.674   5.699
    1OL    H11R  889   1.944   1.584   5.710
    1OL    H11S  890   1.941   1.757   5.742
    1OL    C112  891   1.861   1.702   5.550
    1OL    H12R  892   1.944   1.761   5.510
    1OL    H12S  893   1.770   1.762   5.539
    1OL    C113  894   1.850   1.572   5.469
    1OL    H13R  895   1.806   1.494   5.531
    1OL    H13S  896   1.951   1.538   5.443
    1OL    C114  897   1.766   1.590   5.343
    1OL    H14R  898   1.663   1.610   5.371
    1OL    H14S  899   1.767   1.496   5.286
    1OL    C115  900   1.816   1.702   5.250
    1OL    H15R  901   1.921   1.685   5.225
    1OL    H15S  902   1.807   1.799   5.299
    1OL    C116  903   1.730   1.701   5.124
    1OL    H16R  904   1.626   1.718   5.153
    1OL    H16S  905   1.736   1.601   5.080
    1OL    C117  906   1.767   1.803   5.016
    1OL    H17R  907   1.778   1.902   5.061
    1OL    H17S  908   1.684   1.808   4.946
    1OL    C118  909   1.893   1.766   4.936
    1OL    H18R  910   1.901   1.832   4.850
    1OL    H18S  911   1.886   1.664   4.899
    1OL    H18T  912   1.983   1.776   4.997
    1PA    C116  913   3.041   3.618   5.392
    1PA    H16R  914   3.039   3.531   5.457
    1PA    H16S  915   2.977   3.598   5.305
    1PA    H16T  916   3.000   3.704   5.446
    1PA    C115  917   3.184   3.647   5.345
    1PA    H15R  918   3.222   3.559   5.294
    1PA    H15S  919   3.184   3.730   5.274
    1PA    C114  920   3.281   3.680   5.460
    1PA    H14R  921   3.274   3.601   5.535
    1PA    H14S  922   3.383   3.679   5.421
    1PA    C113  923   3.255   3.816   5.527
    1PA    H13R  924   3.272   3.896   5.454
    1PA    H13S  925   3.151   3.821   5.560
    1PA    C112  926   3.345   3.836   5.649
    1PA    H12R  927   3.323   3.756   5.721
    1PA    H12S  928   3.450   3.827   5.621
    1PA    C111  929   3.320   3.973   5.714
    1PA    H11R  930   3.359   4.051   5.648
    1PA    H11S  931   3.213   3.990   5.723
    1PA    C110  932   3.386   3.987   5.853
    1PA    H10R  933   3.494   3.977   5.843
    1PA    H10S  934   3.368   4.089   5.890
    1PA     C19  935   3.336   3.886   5.959
    1PA     H9R  936   3.375   3.787   5.934
    1PA     H9S  937   3.380   3.913   6.055
    1PA     C18  938   3.183   3.875   5.975
    1PA     H8R  939   3.140   3.827   5.887
    1PA     H8S  940   3.163   3.809   6.059
    1PA     C17  941   3.113   4.010   5.998
    1PA     H7R  942   3.183   4.080   6.044
    1PA     H7S  943   3.084   4.053   5.902
    1PA     C16  944   2.988   4.000   6.089
    1PA     H6R  945   2.918   3.928   6.046
    1PA     H6S  946   3.019   3.962   6.186
    1PA     C15  947   2.919   4.136   6.106
    1PA     H5R  948   2.997   4.213   6.105
    1PA     H5S  949   2.858   4.156   6.017
    1PA     C14  950   2.834   4.149   6.235
    1PA     H4R  951   2.782   4.054   6.249
    1PA     H4S  952   2.901   4.157   6.320
    1PA     C13  953   2.728   4.263   6.236
    1PA     H3R  954   2.717   4.302   6.134
    1PA     H3S  955   2.631   4.217   6.258
    1PA     C12  956   2.739   4.383   6.334
    1PA     H2R  957   2.823   4.449   6.310
    1PA     H2S  958   2.650   4.445   6.321
    1PC     C11  959   2.747   4.347   6.480
    1PC     O12  960   2.652   4.357   6.555
    1PC     O11  961   2.868   4.298   6.514
    1PC      C1  962   2.893   4.247   6.649
    1PC      HR  963   2.958   4.316   6.703
    1PC      HS  964   2.800   4.235   6.704
    1PC      C2  965   2.961   4.108   6.634
    1PC      HX  966   2.908   4.056   6.553
    1PC      C3  967   2.951   4.020   6.760
    1PC      HA  968   2.847   3.986   6.767
    1PC      HB  969   3.015   3.932   6.749
    1PC     O31  970   2.985   4.088   6.883
    1PC     P31  971   2.932   4.031   7.023
    1PC     O32  972   3.021   3.898   7.042
    1PC     C31  973   3.088   3.875   7.167
    1PC     H1A  974   3.143   3.965   7.197
    1PC     H1B  975   3.012   3.856   7.243
    1PC     C32  976   3.185   3.755   7.157
    1PC     H2A  977   3.227   3.737   7.256
    1PC     H2B  978   3.129   3.666   7.128
    1PC     N31  979   3.302   3.762   7.063
    1PC     C33  980   3.363   3.899   7.060
    1PC     H3A  981   3.289   3.969   7.022
    1PC     H3B  982   3.392   3.926   7.162
    1PC     H3C  983   3.451   3.896   6.995
    1PC     C34  984   3.406   3.665   7.106
    1PC     H4A  985   3.362   3.565   7.102
    1PC     H4B  986   3.491   3.671   7.037
    1PC     H4C  987   3.438   3.689   7.207
    1PC     C35  988   3.259   3.724   6.925
    1PC     H5A  989   3.225   3.621   6.928
    1PC     H5B  990   3.344   3.733   6.857
    1PC     H5C  991   3.178   3.791   6.895
    1PC     O33  992   2.969   4.125   7.132
    1PC     O34  993   2.790   3.992   7.005
    1PC     O21  994   3.100   4.126   6.597
    1PC     C21  995   3.153   4.051   6.498
    1PC     O22  996   3.094   3.960   6.444
    1OL     C12  997   3.293   4.095   6.460
    1OL     H2R  998   3.358   4.007   6.457
    1OL     H2S  999   3.331   4.161   6.538
    1OL     C13 1000   3.297   4.169   6.324
    1OL     H3R 1001   3.271   4.099   6.245
    1OL     H3S 1002   3.398   4.205   6.305
    1OL     C14 1003   3.198   4.286   6.325
    1OL     H4R 1004   3.220   4.350   6.410
    1OL     H4S 1005   3.099   4.245   6.342
    1OL     C15 1006   3.191   4.375   6.199
    1OL     H5R 1007   3.188   4.314   6.108
    1OL     H5S 1008   3.278   4.441   6.192
    1OL     C16 1009   3.060   4.454   6.216
    1OL     H6R 1010   2.979   4.381   6.209
    1OL     H6S 1011   3.056   4.493   6.318
    1OL     C17 1012   3.024   4.568   6.121
    1OL     H7R 1013   3.093   4.652   6.136
    1OL     H7S 1014   2.925   4.604   6.151
    1OL     C18 1015   3.016   4.532   5.973
    1OL     H8R 1016   3.113   4.494   5.940
    1OL     H8S 1017   2.994   4.623   5.916
    1OL     C19 1018   2.907   4.432   5.950
    1OL     H9R 1019   2.840   4.413   6.034
    1OL    C110 1020   2.887   4.371   5.834
    1OL    H10R 1021   2.805   4.300   5.823
    1OL    C111 1022   2.971   4.396   5.713
    1OL    H11R 1023   3.056   4.462   5.732
    1OL    H11S 1024   2.906   4.449   5.643
    1OL    C112 1025   3.023   4.266   5.651
    1OL    H12R 1026   2.939   4.197   5.639
    1OL    H12S 1027   3.095   4.218   5.718
    1OL    C113 1028   3.089   4.291   5.514
    1OL    H13R 1029   3.112   4.195   5.467
    1OL    H13S 1030   3.184   4.343   5.528
    1OL    C114 1031   2.996   4.376   5.425
    1OL    H14R 1032   3.011   4.481   5.450
    1OL    H14S 1033   2.893   4.349   5.448
    1OL    C115 1034   3.009   4.361   5.274
    1OL    H15R 1035   2.942   4.432   5.225
    1OL    H15S 1036   2.974   4.261   5.245
    1OL    C116 1037   3.151   4.385   5.221
    1OL    H16R 1038   3.226   4.359   5.295
    1OL    H16S 1039   3.162   4.491   5.197
    1OL    C117 1040   3.171   4.298   5.097
    1OL    H17R 1041   3.079   4.293   5.039
    1OL    H17S 1042   3.197   4.197   5.129
    1OL    C118 1043   3.281   4.354   5.009
    1OL    H18R 1044   3.366   4.387   5.070
    1OL    H18S 1045   3.242   4.440   4.954
    1OL    H18T 1046   3.315   4.280   4.937
    1PA    C116 1047   3.880   3.915   5.138
    1PA    H16R 1048   3.821   3.824   5.120
    1PA    H16S 1049   3.987   3.891   5.134
    1PA    H16T 1050   3.859   3.986   5.058
    1PA    C115 1051   3.843   3.974   5.274
    1PA    H15R 1052   3.902   4.064   5.290
    1PA    H15S 1053   3.738   4.004   5.270
    1PA    C114 1054   3.862   3.878   5.393
    1PA    H14R 1055   3.810   3.783   5.373
    1PA    H14S 1056   3.967   3.856   5.409
    1PA    C113 1057   3.801   3.944   5.517
    1PA    H13R 1058   3.856   4.035   5.541
    1PA    H13S 1059   3.699   3.973   5.492
    1PA    C112 1060   3.792   3.859   5.644
    1PA    H12R 1061   3.738   3.916   5.719
    1PA    H12S 1062   3.733   3.770   5.623
    1PA    C111 1063   3.926   3.815   5.704
    1PA    H11R 1064   3.974   3.742   5.639
    1PA    H11S 1065   3.992   3.901   5.715
    1PA    C110 1066   3.896   3.753   5.842
    1PA    H10R 1067   3.854   3.829   5.908
    1PA    H10S 1068   3.820   3.676   5.829
    1PA     C19 1069   4.016   3.687   5.910
    1PA     H9R 1070   3.987   3.654   6.009
    1PA     H9S 1071   4.045   3.598   5.854
    1PA     C18 1072   4.137   3.780   5.920
    1PA     H8R 1073   4.213   3.723   5.973
    1PA     H8S 1074   4.177   3.801   5.821
    1PA     C17 1075   4.113   3.915   5.991
    1PA     H7R 1076   4.056   3.981   5.926
    1PA     H7S 1077   4.055   3.900   6.083
    1PA     C16 1078   4.249   3.979   6.025
    1PA     H6R 1079   4.316   3.962   5.941
    1PA     H6S 1080   4.240   4.087   6.036
    1PA     C15 1081   4.310   3.912   6.150
    1PA     H5R 1082   4.257   3.818   6.168
    1PA     H5S 1083   4.413   3.887   6.127
    1PA     C14 1084   4.312   3.984   6.285
    1PA     H4R 1085   4.275   3.912   6.358
    1PA     H4S 1086   4.415   4.004   6.314
    1PA     C13 1087   4.231   4.114   6.293
    1PA     H3R 1088   4.297   4.199   6.272
    1PA     H3S 1089   4.150   4.116   6.220
    1PA     C12 1090   4.169   4.127   6.432
    1PA     H2R 1091   4.246   4.117   6.509
    1PA     H2S 1092   4.124   4.226   6.442
    1PC     C11 1093   4.063   4.020   6.450
    1PC     O12 1094   3.984   3.987   6.365
    1PC     O11 1095   4.072   3.961   6.570
    1PC      C1 1096   3.983   3.848   6.593
    1PC      HR 1097   3.879   3.882   6.587
    1PC      HS 1098   3.999   3.772   6.517
    1PC      C2 1099   4.012   3.791   6.734
    1PC      HX 1100   3.951   3.702   6.750
    1PC      C3 1101   3.976   3.901   6.837
    1PC      HA 1102   4.048   3.983   6.827
    1PC      HB 1103   3.876   3.940   6.817
    1PC     O31 1104   3.980   3.856   6.975
    1PC     P31 1105   3.863   3.767   7.037
    1PC     O32 1106   3.946   3.649   7.100
    1PC     C31 1107   4.031   3.678   7.212
    1PC     H1A 1108   4.093   3.765   7.190
    1PC     H1B 1109   3.969   3.700   7.299
    1PC     C32 1110   4.119   3.554   7.237
    1PC     H2A 1111   4.191   3.578   7.316
    1PC     H2B 1112   4.056   3.472   7.273
    1PC     N31 1113   4.196   3.501   7.119
    1PC     C33 1114   4.311   3.420   7.171
    1PC     H3A 1115   4.371   3.482   7.237
    1PC     H3B 1116   4.272   3.336   7.228
    1PC     H3C 1117   4.371   3.385   7.087
    1PC     C34 1118   4.109   3.415   7.035
    1PC     H4A 1119   4.165   3.380   6.949
    1PC     H4B 1120   4.072   3.332   7.097
    1PC     H4C 1121   4.024   3.475   7.001
    1PC     C35 1122   4.251   3.611   7.034
    1PC     H5A 1123   4.311   3.567   6.953
    1PC     H5B 1124   4.313   3.677   7.095
    1PC     H5C 1125   4.167   3.667   6.992
    1PC     O33 1126   3.799   3.837   7.150
    1PC     O34 1127   3.781   3.709   6.929
    1PC     O21 1128   4.154   3.757   6.747
    1PC     C21 1129   4.205   3.661   6.668
    1PC     O22 1130   4.138   3.584   6.602
    1OL     C12 1131   4.355   3.650   6.677
    1OL     H2R 1132   4.382   3.545   6.683
    1OL     H2S 1133   4.387   3.697   6.770
    1OL     C13 1134   4.430   3.717   6.560
    1OL     H3R 1135   4.536   3.718   6.586
    1OL     H3S 1136   4.399   3.821   6.550
    1OL     C14 1137   4.415   3.645   6.424
    1OL     H4R 1138   4.315   3.662   6.384
    1OL     H4S 1139   4.428   3.538   6.439
    1OL     C15 1140   4.521   3.693   6.322
    1OL     H5R 1141   4.620   3.682   6.368
    1OL     H5S 1142   4.510   3.800   6.301
    1OL     C16 1143   4.522   3.612   6.191
    1OL     H6R 1144   4.528   3.507   6.221
    1OL     H6S 1145   4.612   3.637   6.133
    1OL     C17 1146   4.399   3.615   6.100
    1OL     H7R 1147   4.403   3.708   6.042
    1OL     H7S 1148   4.309   3.612   6.161
    1OL     C18 1149   4.390   3.503   5.996
    1OL     H8R 1150   4.287   3.497   5.962
    1OL     H8S 1151   4.414   3.407   6.043
    1OL     C19 1152   4.484   3.531   5.881
    1OL     H9R 1153   4.582   3.570   5.910
    1OL    C110 1154   4.457   3.514   5.752
    1OL    H10R 1155   4.533   3.538   5.678
    1OL    C111 1156   4.326   3.462   5.695
    1OL    H11R 1157   4.261   3.423   5.773
    1OL    H11S 1158   4.346   3.378   5.629
    1OL    C112 1159   4.253   3.574   5.619
    1OL    H12R 1160   4.227   3.654   5.689
    1OL    H12S 1161   4.158   3.534   5.580
    1OL    C113 1162   4.333   3.635   5.503
    1OL    H13R 1163   4.422   3.686   5.540
    1OL    H13S 1164   4.272   3.709   5.451
    1OL    C114 1165   4.373   3.524   5.405
    1OL    H14R 1166   4.283   3.468   5.379
    1OL    H14S 1167   4.442   3.454   5.454
    1OL    C115 1168   4.442   3.575   5.278
    1OL    H15R 1169   4.541   3.613   5.302
    1OL    H15S 1170   4.385   3.656   5.233
    1OL    C116 1171   4.454   3.458   5.180
    1OL    H16R 1172   4.490   3.370   5.234
    1OL    H16S 1173   4.529   3.481   5.105
    1OL    C117 1174   4.319   3.425   5.113
    1OL    H17R 1175   4.277   3.519   5.077
    1OL    H17S 1176   4.250   3.383   5.186
    1OL    C118 1177   4.324   3.329   4.993
    1OL    H18R 1178   4.396   3.363   4.918
    1OL    H18S 1179   4.225   3.326   4.947
    1OL    H18T 1180   4.349   3.227   5.022
    1PA    C116 1181   4.159   2.891   5.226
    1PA    H16R 1182   4.221   2.930   5.145
    1PA    H16S 1183   4.082   2.827   5.183
    1PA    H16T 1184   4.224   2.830   5.290
    1PA    C115 1185   4.096   3.007   5.306
    1PA    H15R 1186   4.175   3.067   5.351
    1PA    H15S 1187   4.042   3.072   5.237
    1PA    C114 1188   3.999   2.963   5.417
    1PA    H14R 1189   3.964   3.053   5.467
    1PA    H14S 1190   3.911   2.915   5.373
    1PA    C113 1191   4.061   2.870   5.523
    1PA    H13R 1192   4.167   2.893   5.535
    1PA    H13S 1193   4.014   2.892   5.619
    1PA    C112 1194   4.042   2.720   5.492
    1PA    H12R 1195   3.936   2.697   5.493
    1PA    H12S 1196   4.079   2.698   5.391
    1PA    C111 1197   4.115   2.628   5.591
    1PA    H11R 1198   4.098   2.524   5.562
    1PA    H11S 1199   4.223   2.645   5.585
    1PA    C110 1200   4.070   2.648   5.736
    1PA    H10R 1201   4.109   2.743   5.773
    1PA    H10S 1202   3.961   2.654   5.740
    1PA     C19 1203   4.117   2.535   5.828
    1PA     H9R 1204   4.063   2.443   5.802
    1PA     H9S 1205   4.223   2.516   5.812
    1PA     C18 1206   4.093   2.569   5.976
    1PA     H8R 1207   4.164   2.646   6.006
    1PA     H8S 1208   3.992   2.609   5.990
    1PA     C17 1209   4.109   2.444   6.064
    1PA     H7R 1210   4.021   2.380   6.049
    1PA     H7S 1211   4.193   2.386   6.026
    1PA     C16 1212   4.125   2.470   6.215
    1PA     H6R 1213   4.037   2.525   6.251
    1PA     H6S 1214   4.123   2.373   6.266
    1PA     C15 1215   4.253   2.545   6.258
    1PA     H5R 1216   4.342   2.491   6.224
    1PA     H5S 1217   4.256   2.644   6.212
    1PA     C14 1218   4.260   2.560   6.411
    1PA     H4R 1219   4.187   2.637   6.441
    1PA     H4S 1220   4.228   2.466   6.457
    1PA     C13 1221   4.399   2.596   6.466
    1PA     H3R 1222   4.466   2.510   6.456
    1PA     H3S 1223   4.443   2.678   6.409
    1PA     C12 1224   4.388   2.636   6.615
    1PA     H2R 1225   4.326   2.726   6.623
    1PA     H2S 1226   4.337   2.557   6.671
    1PC     C11 1227   4.521   2.661   6.680
    1PC     O12 1228   4.602   2.574   6.703
    1PC     O11 1229   4.538   2.791   6.712
    1PC      C1 1230   4.652   2.830   6.795
    1PC      HR 1231   4.711   2.744   6.827
    1PC      HS 1232   4.716   2.896   6.736
    1PC      C2 1233   4.601   2.906   6.921
    1PC      HX 1234   4.685   2.964   6.961
    1PC      C3 1235   4.549   2.811   7.034
    1PC      HA 1236   4.635   2.765   7.083
    1PC      HB 1237   4.495   2.868   7.110
    1PC     O31 1238   4.466   2.704   6.983
    1PC     P31 1239   4.401   2.592   7.078
    1PC     O32 1240   4.250   2.643   7.092
    1PC     C31 1241   4.173   2.666   6.973
    1PC     H1A 1242   4.217   2.613   6.888
    1PC     H1B 1243   4.071   2.627   6.989
    1PC     C32 1244   4.170   2.818   6.947
    1PC     H2A 1245   4.272   2.851   6.927
    1PC     H2B 1246   4.110   2.837   6.858
    1PC     N31 1247   4.116   2.907   7.057
    1PC     C33 1248   4.215   2.927   7.167
    1PC     H3A 1249   4.172   2.993   7.243
    1PC     H3B 1250   4.237   2.830   7.212
    1PC     H3C 1251   4.307   2.970   7.127
    1PC     C34 1252   4.085   3.041   6.999
    1PC     H4A 1253   4.017   3.028   6.915
    1PC     H4B 1254   4.038   3.101   7.077
    1PC     H4C 1255   4.179   3.086   6.967
    1PC     C35 1256   3.990   2.855   7.117
    1PC     H5A 1257   4.012   2.760   7.164
    1PC     H5B 1258   3.915   2.844   7.038
    1PC     H5C 1259   3.957   2.927   7.192
    1PC     O33 1260   4.398   2.463   7.007
    1PC     O34 1261   4.462   2.601   7.212
    1PC     O21 1262   4.500   3.000   6.874
    1PC     C21 1263   4.462   3.103   6.950
    1PC     O22 1264   4.487   3.114   7.068
    1OL     C12 1265   4.377   3.204   6.877
    1OL     H2R 1266   4.441   3.288   6.847
    1OL     H2S 1267   4.305   3.243   6.949
    1OL     C13 1268   4.301   3.149   6.754
    1OL     H3R 1269   4.252   3.055   6.780
    1OL     H3S 1270   4.373   3.126   6.675
    1OL     C14 1271   4.196   3.249   6.703
    1OL     H4R 1272   4.247   3.343   6.677
    1OL     H4S 1273   4.126   3.272   6.784
    1OL     C15 1274   4.113   3.202   6.582
    1OL     H5R 1275   4.047   3.284   6.553
    1OL     H5S 1276   4.049   3.118   6.611
    1OL     C16 1277   4.200   3.163   6.461
    1OL     H6R 1278   4.297   3.213   6.468
    1OL     H6S 1279   4.152   3.199   6.370
    1OL     C17 1280   4.219   3.011   6.450
    1OL     H7R 1281   4.131   2.966   6.404
    1OL     H7S 1282   4.229   2.967   6.550
    1OL     C18 1283   4.345   2.972   6.371
    1OL     H8R 1284   4.351   2.863   6.368
    1OL     H8S 1285   4.433   3.010   6.424
    1OL     C19 1286   4.344   3.026   6.230
    1OL     H9R 1287   4.267   3.099   6.206
    1OL    C110 1288   4.430   2.988   6.137
    1OL    H10R 1289   4.424   3.032   6.037
    1OL    C111 1290   4.542   2.888   6.158
    1OL    H11R 1291   4.545   2.850   6.260
    1OL    H11S 1292   4.638   2.936   6.138
    1OL    C112 1293   4.527   2.770   6.061
    1OL    H12R 1294   4.423   2.736   6.060
    1OL    H12S 1295   4.589   2.687   6.092
    1OL    C113 1296   4.569   2.815   5.920
    1OL    H13R 1297   4.678   2.820   5.916
    1OL    H13S 1298   4.532   2.916   5.902
    1OL    C114 1299   4.517   2.725   5.808
    1OL    H14R 1300   4.408   2.726   5.807
    1OL    H14S 1301   4.552   2.622   5.821
    1OL    C115 1302   4.571   2.784   5.678
    1OL    H15R 1303   4.680   2.778   5.681
    1OL    H15S 1304   4.546   2.890   5.676
    1OL    C116 1305   4.519   2.717   5.549
    1OL    H16R 1306   4.456   2.788   5.495
    1OL    H16S 1307   4.456   2.631   5.573
    1OL    C117 1308   4.636   2.674   5.461
    1OL    H17R 1309   4.716   2.749   5.466
    1OL    H17S 1310   4.604   2.669   5.357
    1OL    C118 1311   4.690   2.537   5.505
    1OL    H18R 1312   4.696   2.531   5.614
    1OL    H18S 1313   4.791   2.521   5.465
    1OL    H18T 1314   4.626   2.457   5.468
    1PA    C116 1315   4.053   1.148   5.270
    1PA    H16R 1316   4.098   1.226   5.208
    1PA    H16S 1317   3.950   1.131   5.239
    1PA    H16T 1318   4.109   1.056   5.252
    1PA    C115 1319   4.060   1.185   5.418
    1PA    H15R 1320   4.165   1.200   5.446
    1PA    H15S 1321   4.009   1.281   5.434
    1PA    C114 1322   3.997   1.078   5.510
    1PA    H14R 1323   3.890   1.074   5.492
    1PA    H14S 1324   4.038   0.980   5.484
    1PA    C113 1325   4.027   1.106   5.658
    1PA    H13R 1326   4.133   1.127   5.669
    1PA    H13S 1327   3.974   1.197   5.688
    1PA    C112 1328   3.991   0.990   5.753
    1PA    H12R 1329   4.051   0.903   5.727
    1PA    H12S 1330   4.021   1.018   5.855
    1PA    C111 1331   3.842   0.947   5.755
    1PA    H11R 1332   3.820   0.895   5.662
    1PA    H11S 1333   3.828   0.875   5.836
    1PA    C110 1334   3.741   1.063   5.772
    1PA    H10R 1335   3.744   1.123   5.682
    1PA    H10S 1336   3.641   1.020   5.777
    1PA     C19 1337   3.763   1.151   5.897
    1PA     H9R 1338   3.726   1.098   5.985
    1PA     H9S 1339   3.870   1.168   5.914
    1PA     C18 1340   3.694   1.289   5.887
    1PA     H8R 1341   3.590   1.274   5.858
    1PA     H8S 1342   3.695   1.336   5.986
    1PA     C17 1343   3.764   1.382   5.787
    1PA     H7R 1344   3.861   1.413   5.828
    1PA     H7S 1345   3.787   1.325   5.696
    1PA     C16 1346   3.684   1.505   5.739
    1PA     H6R 1347   3.733   1.542   5.649
    1PA     H6S 1348   3.586   1.470   5.705
    1PA     C15 1349   3.662   1.623   5.836
    1PA     H5R 1350   3.634   1.710   5.776
    1PA     H5S 1351   3.574   1.603   5.897
    1PA     C14 1352   3.776   1.667   5.931
    1PA     H4R 1353   3.866   1.606   5.916
    1PA     H4S 1354   3.804   1.770   5.907
    1PA     C13 1355   3.731   1.659   6.078
    1PA     H3R 1356   3.631   1.701   6.088
    1PA     H3S 1357   3.727   1.554   6.108
    1PA     C12 1358   3.824   1.737   6.172
    1PA     H2R 1359   3.928   1.708   6.154
    1PA     H2S 1360   3.816   1.844   6.153
    1PC     C11 1361   3.792   1.711   6.317
    1PC     O12 1362   3.684   1.737   6.368
    1PC     O11 1363   3.897   1.665   6.387
    1PC      C1 1364   3.879   1.638   6.529
    1PC      HR 1365   3.977   1.639   6.575
    1PC      HS 1366   3.819   1.718   6.573
    1PC      C2 1367   3.814   1.501   6.558
    1PC      HX 1368   3.716   1.494   6.510
    1PC      C3 1369   3.791   1.491   6.711
    1PC      HA 1370   3.854   1.564   6.764
    1PC      HB 1371   3.687   1.515   6.733
    1PC     O31 1372   3.821   1.362   6.769
    1PC     P31 1373   3.802   1.340   6.926
    1PC     O32 1374   3.948   1.372   6.984
    1PC     C31 1375   4.056   1.278   6.973
    1PC     H1A 1376   4.060   1.241   6.870
    1PC     H1B 1377   4.149   1.331   6.994
    1PC     C32 1378   4.039   1.159   7.071
    1PC     H2A 1379   3.956   1.097   7.036
    1PC     H2B 1380   4.130   1.098   7.069
    1PC     N31 1381   4.009   1.187   7.216
    1PC     C33 1382   3.862   1.200   7.238
    1PC     H3A 1383   3.827   1.290   7.188
    1PC     H3B 1384   3.813   1.114   7.192
    1PC     H3C 1385   3.841   1.204   7.345
    1PC     C34 1386   4.057   1.071   7.297
    1PC     H4A 1387   4.166   1.064   7.287
    1PC     H4B 1388   4.028   1.089   7.401
    1PC     H4C 1389   4.010   0.981   7.259
    1PC     C35 1390   4.076   1.311   7.267
    1PC     H5A 1391   4.184   1.302   7.256
    1PC     H5B 1392   4.050   1.322   7.373
    1PC     H5C 1393   4.037   1.395   7.209
    1PC     O33 1394   3.716   1.446   6.981
    1PC     O34 1395   3.774   1.198   6.953
    1PC     O21 1396   3.901   1.395   6.509
    1PC     C21 1397   3.878   1.347   6.386
    1PC     O22 1398   3.795   1.391   6.309
    1OL     C12 1399   3.970   1.233   6.348
    1OL     H2R 1400   3.909   1.146   6.326
    1OL     H2S 1401   4.035   1.208   6.432
    1OL     C13 1402   4.055   1.270   6.224
    1OL     H3R 1403   3.989   1.308   6.146
    1OL     H3S 1404   4.102   1.180   6.185
    1OL     C14 1405   4.166   1.373   6.256
    1OL     H4R 1406   4.243   1.324   6.316
    1OL     H4S 1407   4.125   1.454   6.317
    1OL     C15 1408   4.231   1.435   6.131
    1OL     H5R 1409   4.260   1.356   6.061
    1OL     H5S 1410   4.322   1.487   6.160
    1OL     C16 1411   4.137   1.536   6.062
    1OL     H6R 1412   4.105   1.607   6.138
    1OL     H6S 1413   4.047   1.485   6.026
    1OL     C17 1414   4.199   1.616   5.947
    1OL     H7R 1415   4.281   1.676   5.986
    1OL     H7S 1416   4.123   1.686   5.910
    1OL     C18 1417   4.250   1.534   5.827
    1OL     H8R 1418   4.325   1.463   5.861
    1OL     H8S 1419   4.299   1.602   5.757
    1OL     C19 1420   4.136   1.461   5.759
    1OL     H9R 1421   4.093   1.380   5.818
    1OL    C110 1422   4.087   1.487   5.638
    1OL    H10R 1423   4.004   1.427   5.602
    1OL    C111 1424   4.134   1.595   5.542
    1OL    H11R 1425   4.112   1.562   5.441
    1OL    H11S 1426   4.243   1.607   5.547
    1OL    C112 1427   4.066   1.731   5.566
    1OL    H12R 1428   4.088   1.796   5.481
    1OL    H12S 1429   4.109   1.778   5.655
    1OL    C113 1430   3.914   1.717   5.585
    1OL    H13R 1431   3.897   1.678   5.685
    1OL    H13S 1432   3.876   1.642   5.515
    1OL    C114 1433   3.830   1.846   5.570
    1OL    H14R 1434   3.857   1.918   5.647
    1OL    H14S 1435   3.725   1.819   5.587
    1OL    C115 1436   3.840   1.913   5.432
    1OL    H15R 1437   3.934   1.967   5.424
    1OL    H15S 1438   3.759   1.986   5.422
    1OL    C116 1439   3.831   1.811   5.316
    1OL    H16R 1440   3.743   1.748   5.331
    1OL    H16S 1441   3.920   1.748   5.315
    1OL    C117 1442   3.819   1.880   5.180
    1OL    H17R 1443   3.890   1.963   5.173
    1OL    H17S 1444   3.717   1.920   5.175
    1OL    C118 1445   3.837   1.787   5.060
    1OL    H18R 1446   3.837   1.843   4.967
    1OL    H18S 1447   3.755   1.715   5.056
    1OL    H18T 1448   3.932   1.733   5.067
    1PA    C116 1449   1.873   2.471   5.310
    1PA    H16R 1450   1.942   2.511   5.235
    1PA    H16S 1451   1.793   2.419   5.256
    1PA    H16T 1452   1.926   2.398   5.371
    1PA    C115 1453   1.810   2.583   5.394
    1PA    H15R 1454   1.795   2.672   5.332
    1PA    H15S 1455   1.711   2.548   5.422
    1PA    C114 1456   1.881   2.624   5.525
    1PA    H14R 1457   1.977   2.670   5.501
    1PA    H14S 1458   1.821   2.702   5.573
    1PA    C113 1459   1.904   2.509   5.623
    1PA    H13R 1460   1.808   2.460   5.644
    1PA    H13S 1461   1.970   2.434   5.578
    1PA    C112 1462   1.966   2.556   5.756
    1PA    H12R 1463   2.063   2.602   5.736
    1PA    H12S 1464   1.902   2.632   5.800
    1PA    C111 1465   1.983   2.439   5.854
    1PA    H11R 1466   1.886   2.392   5.871
    1PA    H11S 1467   2.049   2.364   5.810
    1PA    C110 1468   2.042   2.483   5.990
    1PA    H10R 1469   2.144   2.519   5.974
    1PA    H10S 1470   1.983   2.566   6.028
    1PA     C19 1471   2.040   2.371   6.096
    1PA     H9R 1472   1.937   2.354   6.127
    1PA     H9S 1473   2.076   2.279   6.049
    1PA     C18 1474   2.128   2.398   6.220
    1PA     H8R 1475   2.109   2.321   6.295
    1PA     H8S 1476   2.232   2.385   6.189
    1PA     C17 1477   2.116   2.538   6.286
    1PA     H7R 1478   2.212   2.559   6.333
    1PA     H7S 1479   2.100   2.615   6.211
    1PA     C16 1480   2.008   2.549   6.395
    1PA     H6R 1481   1.914   2.511   6.356
    1PA     H6S 1482   2.036   2.485   6.479
    1PA     C15 1483   1.985   2.693   6.448
    1PA     H5R 1484   1.945   2.755   6.367
    1PA     H5S 1485   1.905   2.686   6.522
    1PA     C14 1486   2.104   2.766   6.515
    1PA     H4R 1487   2.061   2.843   6.579
    1PA     H4S 1488   2.156   2.697   6.582
    1PA     C13 1489   2.206   2.835   6.422
    1PA     H3R 1490   2.263   2.759   6.368
    1PA     H3S 1491   2.154   2.895   6.346
    1PA     C12 1492   2.306   2.926   6.497
    1PA     H2R 1493   2.343   2.872   6.585
    1PA     H2S 1494   2.392   2.948   6.434
    1PC     C11 1495   2.246   3.057   6.541
    1PC     O12 1496   2.190   3.134   6.466
    1PC     O11 1497   2.264   3.082   6.673
    1PC      C1 1498   2.178   3.179   6.738
    1PC      HR 1499   2.236   3.232   6.814
    1PC      HS 1500   2.141   3.254   6.667
    1PC      C2 1501   2.060   3.106   6.806
    1PC      HX 1502   2.007   3.175   6.873
    1PC      C3 1503   2.103   2.984   6.889
    1PC      HA 1504   2.146   2.908   6.822
    1PC      HB 1505   2.178   3.013   6.964
    1PC     O31 1506   1.989   2.930   6.959
    1PC     P31 1507   1.941   2.779   6.938
    1PC     O32 1508   2.037   2.700   7.039
    1PC     C31 1509   2.033   2.725   7.181
    1PC     H1A 1510   2.123   2.681   7.225
    1PC     H1B 1511   2.035   2.833   7.198
    1PC     C32 1512   1.907   2.664   7.246
    1PC     H2A 1513   1.910   2.682   7.353
    1PC     H2B 1514   1.819   2.714   7.205
    1PC     N31 1515   1.881   2.516   7.228
    1PC     C33 1516   1.839   2.483   7.089
    1PC     H3A 1517   1.923   2.501   7.022
    1PC     H3B 1518   1.806   2.380   7.083
    1PC     H3C 1519   1.759   2.552   7.060
    1PC     C34 1520   2.001   2.435   7.264
    1PC     H4A 1521   2.032   2.462   7.365
    1PC     H4B 1522   1.975   2.330   7.259
    1PC     H4C 1523   2.080   2.459   7.192
    1PC     C35 1524   1.770   2.478   7.320
    1PC     H5A 1525   1.683   2.539   7.294
    1PC     H5B 1526   1.802   2.500   7.422
    1PC     H5C 1527   1.749   2.372   7.308
    1PC     O33 1528   1.803   2.766   6.991
    1PC     O34 1529   1.974   2.732   6.804
    1PC     O21 1530   1.971   3.058   6.704
    1PC     C21 1531   1.879   3.142   6.656
    1PC     O22 1532   1.861   3.255   6.697
    1OL     C12 1533   1.804   3.080   6.542
    1OL     H2R 1534   1.712   3.135   6.526
    1OL     H2S 1535   1.778   2.977   6.568
    1OL     C13 1536   1.892   3.081   6.416
    1OL     H3R 1537   1.973   3.008   6.426
    1OL     H3S 1538   1.937   3.179   6.400
    1OL     C14 1539   1.805   3.043   6.297
    1OL     H4R 1540   1.725   3.116   6.287
    1OL     H4S 1541   1.761   2.947   6.324
    1OL     C15 1542   1.876   3.031   6.161
    1OL     H5R 1543   1.961   3.100   6.157
    1OL     H5S 1544   1.806   3.062   6.083
    1OL     C16 1545   1.922   2.887   6.129
    1OL     H6R 1546   1.843   2.816   6.156
    1OL     H6S 1547   2.009   2.863   6.191
    1OL     C17 1548   1.958   2.866   5.981
    1OL     H7R 1549   1.869   2.877   5.919
    1OL     H7S 1550   1.996   2.765   5.966
    1OL     C18 1551   2.062   2.965   5.931
    1OL     H8R 1552   2.024   3.067   5.944
    1OL     H8S 1553   2.074   2.949   5.823
    1OL     C19 1554   2.193   2.949   6.003
    1OL     H9R 1555   2.191   2.897   6.099
    1OL    C110 1556   2.307   2.997   5.957
    1OL    H10R 1557   2.399   2.987   6.014
    1OL    C111 1558   2.320   3.073   5.828
    1OL    H11R 1559   2.380   3.161   5.848
    1OL    H11S 1560   2.221   3.106   5.794
    1OL    C112 1561   2.388   2.995   5.716
    1OL    H12R 1562   2.479   2.950   5.758
    1OL    H12S 1563   2.420   3.069   5.643
    1OL    C113 1564   2.307   2.887   5.642
    1OL    H13R 1565   2.220   2.856   5.701
    1OL    H13S 1566   2.369   2.799   5.630
    1OL    C114 1567   2.263   2.938   5.504
    1OL    H14R 1568   2.349   2.983   5.452
    1OL    H14S 1569   2.188   3.016   5.517
    1OL    C115 1570   2.208   2.828   5.414
    1OL    H15R 1571   2.148   2.761   5.476
    1OL    H15S 1572   2.289   2.767   5.373
    1OL    C116 1573   2.120   2.885   5.300
    1OL    H16R 1574   2.179   2.947   5.232
    1OL    H16S 1575   2.045   2.950   5.345
    1OL    C117 1576   2.047   2.775   5.222
    1OL    H17R 1577   1.950   2.815   5.192
    1OL    H17S 1578   2.028   2.692   5.290
    1OL    C118 1579   2.117   2.719   5.097
    1OL    H18R 1580   2.133   2.798   5.023
    1OL    H18S 1581   2.055   2.641   5.052
    1OL    H18T 1582   2.213   2.675   5.124
    1PA    C116 1583   2.431   1.157   5.261
    1PA    H16R 1584   2.376   1.244   5.296
    1PA    H16S 1585   2.427   1.155   5.152
    1PA    H16T 1586   2.536   1.168   5.291
    1PA    C115 1587   2.370   1.028   5.317
    1PA    H15R 1588   2.267   1.020   5.284
    1PA    H15S 1589   2.424   0.942   5.276
    1PA    C114 1590   2.374   1.018   5.471
    1PA    H14R 1591   2.322   1.103   5.515
    1PA    H14S 1592   2.319   0.928   5.500
    1PA    C113 1593   2.517   1.010   5.528
    1PA    H13R 1594   2.575   0.937   5.470
    1PA    H13S 1595   2.566   1.107   5.516
    1PA    C112 1596   2.521   0.968   5.677
    1PA    H12R 1597   2.451   1.030   5.733
    1PA    H12S 1598   2.490   0.864   5.686
    1PA    C111 1599   2.661   0.985   5.737
    1PA    H11R 1600   2.735   0.942   5.670
    1PA    H11S 1601   2.682   1.092   5.742
    1PA    C110 1602   2.682   0.925   5.878
    1PA    H10R 1603   2.780   0.960   5.911
    1PA    H10S 1604   2.607   0.964   5.947
    1PA     C19 1605   2.687   0.771   5.885
    1PA     H9R 1606   2.586   0.730   5.873
    1PA     H9S 1607   2.741   0.733   5.798
    1PA     C18 1608   2.762   0.715   6.007
    1PA     H8R 1609   2.840   0.648   5.972
    1PA     H8S 1610   2.812   0.795   6.061
    1PA     C17 1611   2.674   0.637   6.106
    1PA     H7R 1612   2.739   0.594   6.183
    1PA     H7S 1613   2.608   0.708   6.155
    1PA     C16 1614   2.594   0.524   6.037
    1PA     H6R 1615   2.522   0.565   5.966
    1PA     H6S 1616   2.662   0.460   5.981
    1PA     C15 1617   2.515   0.439   6.136
    1PA     H5R 1618   2.456   0.365   6.081
    1PA     H5S 1619   2.584   0.383   6.199
    1PA     C14 1620   2.422   0.526   6.222
    1PA     H4R 1621   2.419   0.629   6.184
    1PA     H4S 1622   2.319   0.489   6.215
    1PA     C13 1623   2.468   0.527   6.368
    1PA     H3R 1624   2.461   0.423   6.401
    1PA     H3S 1625   2.573   0.554   6.374
    1PA     C12 1626   2.385   0.621   6.458
    1PA     H2R 1627   2.429   0.721   6.459
    1PA     H2S 1628   2.283   0.631   6.421
    1PC     C11 1629   2.380   0.568   6.600
    1PC     O12 1630   2.430   0.462   6.631
    1PC     O11 1631   2.318   0.649   6.688
    1PC      C1 1632   2.317   0.607   6.829
    1PC      HR 1633   2.252   0.675   6.886
    1PC      HS 1634   2.276   0.506   6.837
    1PC      C2 1635   2.462   0.612   6.884
    1PC      HX 1636   2.521   0.537   6.831
    1PC      C3 1637   2.476   0.577   7.034
    1PC      HA 1638   2.433   0.478   7.052
    1PC      HB 1639   2.581   0.574   7.063
    1PC     O31 1640   2.406   0.670   7.120
    1PC     P31 1641   2.484   0.787   7.197
    1PC     O32 1642   2.370   0.896   7.222
    1PC     C31 1643   2.240   0.886   7.161
    1PC     H1A 1644   2.201   0.785   7.174
    1PC     H1B 1645   2.172   0.955   7.212
    1PC     C32 1646   2.249   0.921   7.011
    1PC     H2A 1647   2.318   0.852   6.963
    1PC     H2B 1648   2.150   0.907   6.966
    1PC     N31 1649   2.294   1.059   6.971
    1PC     C33 1650   2.441   1.074   6.992
    1PC     H3A 1651   2.462   1.068   7.099
    1PC     H3B 1652   2.491   0.988   6.945
    1PC     H3C 1653   2.475   1.169   6.950
    1PC     C34 1654   2.265   1.080   6.827
    1PC     H4A 1655   2.299   1.181   6.800
    1PC     H4B 1656   2.318   1.004   6.769
    1PC     H4C 1657   2.158   1.072   6.812
    1PC     C35 1658   2.223   1.164   7.049
    1PC     H5A 1659   2.252   1.152   7.154
    1PC     H5B 1660   2.116   1.150   7.037
    1PC     H5C 1661   2.254   1.262   7.013
    1PC     O33 1662   2.528   0.735   7.328
    1PC     O34 1663   2.583   0.845   7.105
    1PC     O21 1664   2.515   0.743   6.852
    1PC     C21 1665   2.644   0.751   6.815
    1PC     O22 1666   2.724   0.658   6.821
    1OL     C12 1667   2.674   0.881   6.746
    1OL     H2R 1668   2.778   0.909   6.765
    1OL     H2S 1669   2.611   0.961   6.787
    1OL     C13 1670   2.647   0.866   6.595
    1OL     H3R 1671   2.540   0.849   6.581
    1OL     H3S 1672   2.699   0.777   6.559
    1OL     C14 1673   2.691   0.987   6.510
    1OL     H4R 1674   2.795   1.010   6.534
    1OL     H4S 1675   2.632   1.075   6.538
    1OL     C15 1676   2.680   0.960   6.358
    1OL     H5R 1677   2.725   0.863   6.335
    1OL     H5S 1678   2.740   1.035   6.305
    1OL     C16 1679   2.537   0.963   6.298
    1OL     H6R 1680   2.477   0.883   6.341
    1OL     H6S 1681   2.545   0.943   6.191
    1OL     C17 1682   2.464   1.098   6.318
    1OL     H7R 1683   2.526   1.178   6.279
    1OL     H7S 1684   2.450   1.117   6.425
    1OL     C18 1685   2.327   1.105   6.248
    1OL     H8R 1686   2.341   1.086   6.142
    1OL     H8S 1687   2.289   1.207   6.258
    1OL     C19 1688   2.225   1.010   6.310
    1OL     H9R 1689   2.216   1.016   6.418
    1OL    C110 1690   2.149   0.924   6.243
    1OL    H10R 1691   2.079   0.861   6.297
    1OL    C111 1692   2.150   0.906   6.092
    1OL    H11R 1693   2.168   1.002   6.043
    1OL    H11S 1694   2.053   0.870   6.058
    1OL    C112 1695   2.260   0.805   6.053
    1OL    H12R 1696   2.223   0.703   6.066
    1OL    H12S 1697   2.344   0.818   6.121
    1OL    C113 1698   2.314   0.825   5.910
    1OL    H13R 1699   2.397   0.755   5.899
    1OL    H13S 1700   2.355   0.926   5.904
    1OL    C114 1701   2.217   0.801   5.794
    1OL    H14R 1702   2.254   0.853   5.705
    1OL    H14S 1703   2.120   0.846   5.818
    1OL    C115 1704   2.198   0.652   5.761
    1OL    H15R 1705   2.109   0.641   5.698
    1OL    H15S 1706   2.178   0.600   5.855
    1OL    C116 1707   2.315   0.578   5.693
    1OL    H16R 1708   2.288   0.472   5.687
    1OL    H16S 1709   2.404   0.583   5.756
    1OL    C117 1710   2.349   0.626   5.551
    1OL    H17R 1711   2.390   0.727   5.556
    1OL    H17S 1712   2.259   0.630   5.490
    1OL    C118 1713   2.452   0.534   5.484
    1OL    H18R 1714   2.482   0.573   5.387
    1OL    H18S 1715   2.409   0.434   5.469
    1OL    H18T 1716   2.542   0.524   5.546
    1PA    C116 1717   4.851   1.877   5.298
    1PA    H16R 1718   4.939   1.818   5.271
    1PA    H16S 1719   4.882   1.957   5.365
    1PA    H16T 1720   4.811   1.923   5.207
    1PA    C115 1721   4.743   1.789   5.363
    1PA    H15R 1722   4.658   1.852   5.390
    1PA    H15S 1723   4.708   1.716   5.290
    1PA    C114 1724   4.792   1.714   5.489
    1PA    H14R 1725   4.709   1.656   5.529
    1PA    H14S 1726   4.870   1.643   5.461
    1PA    C113 1727   4.845   1.809   5.598
    1PA    H13R 1728   4.939   1.853   5.566
    1PA    H13S 1729   4.774   1.890   5.613
    1PA    C112 1730   4.867   1.738   5.733
    1PA    H12R 1731   4.771   1.698   5.768
    1PA    H12S 1732   4.935   1.654   5.719
    1PA    C111 1733   4.925   1.834   5.839
    1PA    H11R 1734   5.021   1.871   5.802
    1PA    H11S 1735   4.860   1.922   5.848
    1PA    C110 1736   4.946   1.771   5.977
    1PA    H10R 1737   5.012   1.684   5.967
    1PA    H10S 1738   5.001   1.842   6.040
    1PA     C19 1739   4.818   1.730   6.052
    1PA     H9R 1740   4.760   1.657   5.995
    1PA     H9S 1741   4.848   1.682   6.146
    1PA     C18 1742   4.727   1.848   6.085
    1PA     H8R 1743   4.790   1.937   6.090
    1PA     H8S 1744   4.656   1.864   6.003
    1PA     C17 1745   4.651   1.835   6.219
    1PA     H7R 1746   4.723   1.807   6.297
    1PA     H7S 1747   4.611   1.932   6.246
    1PA     C16 1748   4.534   1.735   6.218
    1PA     H6R 1749   4.468   1.759   6.134
    1PA     H6S 1750   4.571   1.634   6.201
    1PA     C15 1751   4.451   1.741   6.348
    1PA     H5R 1752   4.411   1.842   6.359
    1PA     H5S 1753   4.364   1.675   6.338
    1PA     C14 1754   4.528   1.704   6.476
    1PA     H4R 1755   4.612   1.773   6.488
    1PA     H4S 1756   4.463   1.720   6.563
    1PA     C13 1757   4.578   1.558   6.479
    1PA     H3R 1758   4.491   1.492   6.475
    1PA     H3S 1759   4.637   1.538   6.389
    1PA     C12 1760   4.663   1.523   6.603
    1PA     H2R 1761   4.605   1.544   6.694
    1PA     H2S 1762   4.686   1.417   6.603
    1PC     C11 1763   4.793   1.600   6.610
    1PC     O12 1764   4.841   1.662   6.517
    1PC     O11 1765   4.852   1.589   6.731
    1PC      C1 1766   4.954   1.688   6.764
    1PC      HR 1767   5.019   1.644   6.841
    1PC      HS 1768   5.016   1.710   6.677
    1PC      C2 1769   4.894   1.820   6.821
    1PC      HX 1770   4.976   1.891   6.834
    1PC      C3 1771   4.822   1.798   6.957
    1PC      HA 1772   4.889   1.749   7.028
    1PC      HB 1773   4.794   1.895   6.999
    1PC     O31 1774   4.703   1.716   6.941
    1PC     P31 1775   4.598   1.698   7.059
    1PC     O32 1776   4.465   1.770   7.005
    1PC     C31 1777   4.469   1.889   6.926
    1PC     H1A 1778   4.541   1.874   6.845
    1PC     H1B 1779   4.371   1.903   6.880
    1PC     C32 1780   4.507   2.013   7.010
    1PC     H2A 1781   4.603   1.996   7.059
    1PC     H2B 1782   4.518   2.099   6.943
    1PC     N31 1783   4.413   2.058   7.119
    1PC     C33 1784   4.419   1.964   7.235
    1PC     H3A 1785   4.358   2.003   7.317
    1PC     H3B 1786   4.382   1.867   7.202
    1PC     H3C 1787   4.524   1.954   7.264
    1PC     C34 1788   4.453   2.194   7.164
    1PC     H4A 1789   4.558   2.190   7.195
    1PC     H4B 1790   4.441   2.264   7.082
    1PC     H4C 1791   4.391   2.224   7.249
    1PC     C35 1792   4.271   2.066   7.071
    1PC     H5A 1793   4.267   2.135   6.987
    1PC     H5B 1794   4.210   2.102   7.154
    1PC     H5C 1795   4.240   1.965   7.043
    1PC     O33 1796   4.572   1.554   7.069
    1PC     O34 1797   4.645   1.772   7.178
    1PC     O21 1798   4.799   1.874   6.725
    1PC     C21 1799   4.762   2.002   6.734
    1PC     O22 1800   4.803   2.081   6.817
    1OL     C12 1801   4.654   2.033   6.632
    1OL     H2R 1802   4.568   1.969   6.654
    1OL     H2S 1803   4.689   2.001   6.533
    1OL     C13 1804   4.608   2.180   6.632
    1OL     H3R 1805   4.582   2.211   6.733
    1OL     H3S 1806   4.516   2.187   6.573
    1OL     C14 1807   4.711   2.279   6.574
    1OL     H4R 1808   4.797   2.283   6.640
    1OL     H4S 1809   4.667   2.378   6.571
    1OL     C15 1810   4.760   2.243   6.433
    1OL     H5R 1811   4.808   2.145   6.438
    1OL     H5S 1812   4.837   2.315   6.404
    1OL     C16 1813   4.653   2.239   6.323
    1OL     H6R 1814   4.611   2.339   6.307
    1OL     H6S 1815   4.572   2.171   6.352
    1OL     C17 1816   4.721   2.187   6.195
    1OL     H7R 1817   4.763   2.090   6.221
    1OL     H7S 1818   4.804   2.255   6.173
    1OL     C18 1819   4.643   2.170   6.065
    1OL     H8R 1820   4.584   2.078   6.069
    1OL     H8S 1821   4.713   2.158   5.982
    1OL     C19 1822   4.553   2.287   6.039
    1OL     H9R 1823   4.596   2.370   5.983
    1OL    C110 1824   4.428   2.292   6.083
    1OL    H10R 1825   4.371   2.382   6.061
    1OL    C111 1826   4.358   2.184   6.163
    1OL    H11R 1827   4.304   2.230   6.247
    1OL    H11S 1828   4.429   2.114   6.208
    1OL    C112 1829   4.259   2.103   6.079
    1OL    H12R 1830   4.181   2.170   6.041
    1OL    H12S 1831   4.209   2.030   6.143
    1OL    C113 1832   4.326   2.028   5.961
    1OL    H13R 1833   4.395   1.954   6.001
    1OL    H13S 1834   4.385   2.097   5.901
    1OL    C114 1835   4.223   1.957   5.872
    1OL    H14R 1836   4.161   1.894   5.935
    1OL    H14S 1837   4.275   1.892   5.802
    1OL    C115 1838   4.130   2.052   5.794
    1OL    H15R 1839   4.074   2.113   5.865
    1OL    H15S 1840   4.056   1.992   5.740
    1OL    C116 1841   4.200   2.147   5.694
    1OL    H16R 1842   4.263   2.218   5.749
    1OL    H16S 1843   4.123   2.205   5.644
    1OL    C117 1844   4.284   2.073   5.589
    1OL    H17R 1845   4.225   1.992   5.545
    1OL    H17S 1846   4.371   2.028   5.637
    1OL    C118 1847   4.331   2.168   5.478
    1OL    H18R 1848   4.245   2.206   5.423
    1OL    H18S 1849   4.397   2.116   5.408
    1OL    H18T 1850   4.386   2.252   5.521
    1PA    C116 1851   3.481   0.791   5.225
    1PA    H16R 1852   3.430   0.872   5.173
    1PA    H16S 1853   3.409   0.710   5.238
    1PA    H16T 1854   3.563   0.756   5.161
    1PA    C115 1855   3.534   0.841   5.360
    1PA    H15R 1856   3.584   0.937   5.344
    1PA    H15S 1857   3.450   0.860   5.427
    1PA    C114 1858   3.631   0.748   5.434
    1PA    H14R 1859   3.725   0.743   5.377
    1PA    H14S 1860   3.655   0.795   5.530
    1PA    C113 1861   3.584   0.603   5.461
    1PA    H13R 1862   3.609   0.542   5.375
    1PA    H13S 1863   3.647   0.566   5.543
    1PA    C112 1864   3.437   0.579   5.501
    1PA    H12R 1865   3.370   0.612   5.422
    1PA    H12S 1866   3.422   0.471   5.512
    1PA    C111 1867   3.398   0.647   5.633
    1PA    H11R 1868   3.418   0.754   5.625
    1PA    H11S 1869   3.290   0.635   5.647
    1PA    C110 1870   3.467   0.590   5.757
    1PA    H10R 1871   3.424   0.493   5.782
    1PA    H10S 1872   3.574   0.575   5.740
    1PA     C19 1873   3.450   0.687   5.874
    1PA     H9R 1874   3.500   0.781   5.849
    1PA     H9S 1875   3.343   0.710   5.885
    1PA     C18 1876   3.505   0.636   6.008
    1PA     H8R 1877   3.607   0.599   5.995
    1PA     H8S 1878   3.512   0.722   6.076
    1PA     C17 1879   3.417   0.527   6.073
    1PA     H7R 1880   3.313   0.541   6.042
    1PA     H7S 1881   3.448   0.429   6.037
    1PA     C16 1882   3.421   0.532   6.227
    1PA     H6R 1883   3.377   0.627   6.258
    1PA     H6S 1884   3.358   0.453   6.267
    1PA     C15 1885   3.563   0.520   6.286
    1PA     H5R 1886   3.604   0.422   6.262
    1PA     H5S 1887   3.629   0.594   6.241
    1PA     C14 1888   3.569   0.540   6.440
    1PA     H4R 1889   3.510   0.463   6.489
    1PA     H4S 1890   3.672   0.528   6.472
    1PA     C13 1891   3.519   0.679   6.483
    1PA     H3R 1892   3.571   0.754   6.423
    1PA     H3S 1893   3.412   0.689   6.460
    1PA     C12 1894   3.540   0.711   6.632
    1PA     H2R 1895   3.477   0.646   6.694
    1PA     H2S 1896   3.644   0.694   6.660
    1PC     C11 1897   3.506   0.856   6.659
    1PC     O12 1898   3.558   0.946   6.598
    1PC     O11 1899   3.408   0.871   6.750
    1PC      C1 1900   3.370   1.009   6.780
    1PC      HR 1901   3.447   1.056   6.841
    1PC      HS 1902   3.362   1.065   6.687
    1PC      C2 1903   3.232   1.019   6.851
    1PC      HX 1904   3.184   1.113   6.820
    1PC      C3 1905   3.242   1.028   7.005
    1PC      HA 1906   3.286   1.124   7.034
    1PC      HB 1907   3.141   1.023   7.049
    1PC     O31 1908   3.324   0.923   7.061
    1PC     P31 1909   3.338   0.906   7.219
    1PC     O32 1910   3.343   0.747   7.238
    1PC     C31 1911   3.424   0.665   7.153
    1PC     H1A 1912   3.518   0.716   7.131
    1PC     H1B 1913   3.446   0.572   7.205
    1PC     C32 1914   3.345   0.637   7.024
    1PC     H2A 1915   3.341   0.727   6.963
    1PC     H2B 1916   3.398   0.560   6.968
    1PC     N31 1917   3.202   0.590   7.038
    1PC     C33 1918   3.106   0.696   7.082
    1PC     H3A 1919   3.120   0.784   7.018
    1PC     H3B 1920   3.004   0.659   7.075
    1PC     H3C 1921   3.130   0.722   7.185
    1PC     C34 1922   3.158   0.554   6.901
    1PC     H4A 1923   3.223   0.474   6.866
    1PC     H4B 1924   3.053   0.524   6.906
    1PC     H4C 1925   3.170   0.644   6.840
    1PC     C35 1926   3.191   0.474   7.131
    1PC     H5A 1927   3.214   0.511   7.231
    1PC     H5B 1928   3.262   0.397   7.102
    1PC     H5C 1929   3.089   0.436   7.131
    1PC     O33 1930   3.467   0.960   7.265
    1PC     O34 1931   3.210   0.947   7.279
    1PC     O21 1932   3.149   0.905   6.813
    1PC     C21 1933   3.069   0.919   6.705
    1PC     O22 1934   3.041   1.026   6.655
    1OL     C12 1935   3.021   0.786   6.650
    1OL     H2R 1936   2.926   0.761   6.699
    1OL     H2S 1937   3.093   0.708   6.676
    1OL     C13 1938   3.004   0.788   6.497
    1OL     H3R 1939   2.947   0.876   6.467
    1OL     H3S 1940   2.947   0.701   6.465
    1OL     C14 1941   3.140   0.790   6.425
    1OL     H4R 1942   3.189   0.694   6.443
    1OL     H4S 1943   3.202   0.867   6.471
    1OL     C15 1944   3.129   0.814   6.273
    1OL     H5R 1945   3.026   0.838   6.245
    1OL     H5S 1946   3.155   0.720   6.222
    1OL     C16 1947   3.223   0.928   6.226
    1OL     H6R 1948   3.306   0.936   6.297
    1OL     H6S 1949   3.170   1.023   6.228
    1OL     C17 1950   3.287   0.903   6.088
    1OL     H7R 1951   3.301   0.795   6.076
    1OL     H7S 1952   3.386   0.948   6.089
    1OL     C18 1953   3.212   0.958   5.965
    1OL     H8R 1954   3.272   0.940   5.876
    1OL     H8S 1955   3.204   1.066   5.977
    1OL     C19 1956   3.073   0.898   5.950
    1OL     H9R 1957   3.014   0.898   6.041
    1OL    C110 1958   3.018   0.850   5.839
    1OL    H10R 1959   2.916   0.812   5.844
    1OL    C111 1960   3.078   0.843   5.701
    1OL    H11R 1961   3.187   0.841   5.707
    1OL    H11S 1962   3.050   0.933   5.646
    1OL    C112 1963   3.030   0.718   5.622
    1OL    H12R 1964   3.033   0.633   5.690
    1OL    H12S 1965   3.106   0.698   5.546
    1OL    C113 1966   2.891   0.719   5.552
    1OL    H13R 1967   2.812   0.733   5.626
    1OL    H13S 1968   2.873   0.621   5.509
    1OL    C114 1969   2.866   0.822   5.442
    1OL    H14R 1970   2.868   0.922   5.487
    1OL    H14S 1971   2.764   0.810   5.405
    1OL    C115 1972   2.962   0.811   5.323
    1OL    H15R 1973   2.912   0.759   5.241
    1OL    H15S 1974   3.049   0.750   5.348
    1OL    C116 1975   3.010   0.948   5.275
    1OL    H16R 1976   2.924   1.008   5.245
    1OL    H16S 1977   3.073   0.935   5.186
    1OL    C117 1978   3.089   1.024   5.383
    1OL    H17R 1979   3.030   1.038   5.474
    1OL    H17S 1980   3.109   1.125   5.348
    1OL    C118 1981   3.225   0.965   5.418
    1OL    H18R 1982   3.274   1.027   5.493
    1OL    H18S 1983   3.287   0.965   5.328
    1OL    H18T 1984   3.217   0.863   5.455
    1PA    C116 1985   2.030   4.363   5.065
    1PA    H16R 1986   1.991   4.314   4.975
    1PA    H16S 1987   2.014   4.471   5.056
    1PA    H16T 1988   1.974   4.328   5.152
    1PA    C115 1989   2.179   4.332   5.083
    1PA    H15R 1990   2.195   4.224   5.089
    1PA    H15S 1991   2.234   4.367   4.995
    1PA    C114 1992   2.233   4.403   5.208
    1PA    H14R 1993   2.338   4.430   5.194
    1PA    H14S 1994   2.180   4.497   5.220
    1PA    C113 1995   2.216   4.317   5.334
    1PA    H13R 1996   2.109   4.307   5.353
    1PA    H13S 1997   2.254   4.216   5.315
    1PA    C112 1998   2.287   4.375   5.457
    1PA    H12R 1999   2.394   4.377   5.439
    1PA    H12S 2000   2.255   4.478   5.474
    1PA    C111 2001   2.261   4.293   5.584
    1PA    H11R 2002   2.294   4.190   5.567
    1PA    H11S 2003   2.323   4.334   5.665
    1PA    C110 2004   2.113   4.293   5.627
    1PA    H10R 2005   2.080   4.395   5.648
    1PA    H10S 2006   2.051   4.255   5.546
    1PA     C19 2007   2.085   4.204   5.749
    1PA     H9R 2008   1.977   4.193   5.762
    1PA     H9S 2009   2.126   4.106   5.727
    1PA     C18 2010   2.147   4.259   5.880
    1PA     H8R 2011   2.252   4.281   5.864
    1PA     H8S 2012   2.098   4.353   5.905
    1PA     C17 2013   2.138   4.163   6.000
    1PA     H7R 2014   2.193   4.071   5.978
    1PA     H7S 2015   2.189   4.212   6.083
    1PA     C16 2016   1.995   4.123   6.044
    1PA     H6R 2017   1.931   4.212   6.044
    1PA     H6S 2018   1.954   4.054   5.971
    1PA     C15 2019   1.992   4.058   6.184
    1PA     H5R 2020   1.892   4.019   6.202
    1PA     H5S 2021   2.061   3.973   6.186
    1PA     C14 2022   2.028   4.158   6.295
    1PA     H4R 2023   2.132   4.190   6.285
    1PA     H4S 2024   1.968   4.249   6.281
    1PA     C13 2025   2.007   4.110   6.440
    1PA     H3R 2026   2.064   4.177   6.504
    1PA     H3S 2027   1.902   4.125   6.468
    1PA     C12 2028   2.047   3.964   6.472
    1PA     H2R 2029   1.978   3.894   6.425
    1PA     H2S 2030   2.146   3.942   6.432
    1PC     C11 2031   2.048   3.939   6.622
    1PC     O12 2032   2.028   4.027   6.703
    1PC     O11 2033   2.072   3.810   6.653
    1PC      C1 2034   2.078   3.773   6.794
    1PC      HR 2035   2.018   3.842   6.852
    1PC      HS 2036   2.033   3.674   6.804
    1PC      C2 2037   2.224   3.763   6.848
    1PC      HX 2038   2.270   3.676   6.801
    1PC      C3 2039   2.231   3.742   7.002
    1PC      HA 2040   2.147   3.683   7.038
    1PC      HB 2041   2.322   3.684   7.023
    1PC     O31 2042   2.242   3.864   7.082
    1PC     P31 2043   2.116   3.942   7.143
    1PC     O32 2044   2.162   4.095   7.134
    1PC     C31 2045   2.179   4.157   7.006
    1PC     H1A 2046   2.121   4.104   6.930
    1PC     H1B 2047   2.140   4.259   7.013
    1PC     C32 2048   2.328   4.159   6.966
    1PC     H2A 2049   2.362   4.055   6.959
    1PC     H2B 2050   2.336   4.205   6.868
    1PC     N31 2051   2.431   4.229   7.053
    1PC     C33 2052   2.470   4.142   7.167
    1PC     H3A 2053   2.522   4.055   7.128
    1PC     H3B 2054   2.537   4.198   7.233
    1PC     H3C 2055   2.381   4.111   7.221
    1PC     C34 2056   2.554   4.258   6.973
    1PC     H4A 2057   2.603   4.164   6.949
    1PC     H4B 2058   2.527   4.312   6.882
    1PC     H4C 2059   2.622   4.318   7.034
    1PC     C35 2060   2.378   4.358   7.105
    1PC     H5A 2061   2.344   4.418   7.020
    1PC     H5B 2062   2.457   4.409   7.159
    1PC     H5C 2063   2.294   4.334   7.171
    1PC     O33 2064   1.997   3.926   7.058
    1PC     O34 2065   2.098   3.911   7.286
    1PC     O21 2066   2.297   3.883   6.814
    1PC     C21 2067   2.395   3.879   6.722
    1PC     O22 2068   2.425   3.783   6.655
    1OL     C12 2069   2.458   4.015   6.716
    1OL     H2R 2070   2.501   4.034   6.815
    1OL     H2S 2071   2.378   4.089   6.701
    1OL     C13 2072   2.569   4.039   6.614
    1OL     H3R 2073   2.657   3.982   6.643
    1OL     H3S 2074   2.597   4.144   6.626
    1OL     C14 2075   2.540   4.013   6.466
    1OL     H4R 2076   2.564   3.909   6.446
    1OL     H4S 2077   2.610   4.074   6.408
    1OL     C15 2078   2.397   4.030   6.412
    1OL     H5R 2079   2.340   4.099   6.475
    1OL     H5S 2080   2.349   3.932   6.419
    1OL     C16 2081   2.388   4.078   6.265
    1OL     H6R 2082   2.406   4.186   6.265
    1OL     H6S 2083   2.285   4.063   6.231
    1OL     C17 2084   2.481   4.011   6.163
    1OL     H7R 2085   2.580   3.997   6.206
    1OL     H7S 2086   2.443   3.912   6.138
    1OL     C18 2087   2.496   4.095   6.033
    1OL     H8R 2088   2.505   4.201   6.061
    1OL     H8S 2089   2.407   4.086   5.971
    1OL     C19 2090   2.621   4.056   5.958
    1OL     H9R 2091   2.704   4.029   6.022
    1OL    C110 2092   2.641   4.053   5.827
    1OL    H10R 2093   2.739   4.025   5.790
    1OL    C111 2094   2.542   4.087   5.718
    1OL    H11R 2095   2.597   4.130   5.634
    1OL    H11S 2096   2.472   4.164   5.752
    1OL    C112 2097   2.465   3.964   5.666
    1OL    H12R 2098   2.533   3.879   5.653
    1OL    H12S 2099   2.423   3.987   5.568
    1OL    C113 2100   2.350   3.925   5.762
    1OL    H13R 2101   2.305   4.017   5.799
    1OL    H13S 2102   2.391   3.872   5.848
    1OL    C114 2103   2.238   3.841   5.698
    1OL    H14R 2104   2.278   3.743   5.672
    1OL    H14S 2105   2.207   3.889   5.605
    1OL    C115 2106   2.117   3.829   5.793
    1OL    H15R 2107   2.068   3.927   5.803
    1OL    H15S 2108   2.152   3.803   5.893
    1OL    C116 2109   2.008   3.727   5.754
    1OL    H16R 2110   1.920   3.743   5.817
    1OL    H16S 2111   2.045   3.627   5.777
    1OL    C117 2112   1.965   3.727   5.606
    1OL    H17R 2113   2.054   3.726   5.543
    1OL    H17S 2114   1.911   3.634   5.586
    1OL    C118 2115   1.875   3.845   5.568
    1OL    H18R 2116   1.846   3.838   5.463
    1OL    H18S 2117   1.926   3.940   5.584
    1OL    H18T 2118   1.783   3.844   5.628
    1PA    C116 2119   3.728   4.284   5.407
    1PA    H16R 2120   3.760   4.382   5.443
    1PA    H16S 2121   3.718   4.292   5.298
    1PA    H16T 2122   3.808   4.213   5.428
    1PA    C115 2123   3.595   4.240   5.472
    1PA    H15R 2124   3.520   4.317   5.453
    1PA    H15S 2125   3.560   4.149   5.424
    1PA    C114 2126   3.603   4.213   5.624
    1PA    H14R 2127   3.502   4.219   5.666
    1PA    H14S 2128   3.638   4.111   5.642
    1PA    C113 2129   3.694   4.309   5.701
    1PA    H13R 2130   3.700   4.277   5.805
    1PA    H13S 2131   3.796   4.302   5.661
    1PA    C112 2132   3.644   4.455   5.694
    1PA    H12R 2133   3.608   4.478   5.594
    1PA    H12S 2134   3.560   4.468   5.762
    1PA    C111 2135   3.756   4.554   5.728
    1PA    H11R 2136   3.828   4.550   5.646
    1PA    H11S 2137   3.714   4.655   5.728
    1PA    C110 2138   3.828   4.528   5.861
    1PA    H10R 2139   3.886   4.436   5.854
    1PA    H10S 2140   3.898   4.610   5.878
    1PA     C19 2141   3.732   4.521   5.981
    1PA     H9R 2142   3.675   4.614   5.986
    1PA     H9S 2143   3.660   4.440   5.966
    1PA     C18 2144   3.803   4.499   6.116
    1PA     H8R 2145   3.879   4.576   6.131
    1PA     H8S 2146   3.727   4.512   6.193
    1PA     C17 2147   3.867   4.359   6.129
    1PA     H7R 2148   3.797   4.283   6.094
    1PA     H7S 2149   3.955   4.353   6.065
    1PA     C16 2150   3.908   4.325   6.274
    1PA     H6R 2151   3.951   4.225   6.273
    1PA     H6S 2152   3.986   4.394   6.308
    1PA     C15 2153   3.789   4.327   6.373
    1PA     H5R 2154   3.754   4.430   6.386
    1PA     H5S 2155   3.706   4.271   6.328
    1PA     C14 2156   3.816   4.267   6.512
    1PA     H4R 2157   3.722   4.265   6.568
    1PA     H4S 2158   3.848   4.164   6.501
    1PA     C13 2159   3.920   4.345   6.595
    1PA     H3R 2160   4.011   4.360   6.537
    1PA     H3S 2161   3.882   4.446   6.616
    1PA     C12 2162   3.953   4.274   6.728
    1PA     H2R 2163   3.868   4.281   6.796
    1PA     H2S 2164   3.973   4.168   6.710
    1PC     C11 2165   4.075   4.334   6.793
    1PC     O12 2166   4.180   4.348   6.733
    1PC     O11 2167   4.062   4.363   6.923
    1PC      C1 2168   4.146   4.471   6.976
    1PC      HR 2169   4.143   4.466   7.085
    1PC      HS 2170   4.250   4.458   6.945
    1PC      C2 2171   4.097   4.612   6.931
    1PC      HX 2172   4.167   4.686   6.971
    1PC      C3 2173   3.956   4.642   6.986
    1PC      HA 2174   3.954   4.636   7.095
    1PC      HB 2175   3.925   4.743   6.956
    1PC     O31 2176   3.864   4.546   6.930
    1PC     P31 2177   3.715   4.581   6.887
    1PC     O32 2178   3.629   4.502   6.997
    1PC     C31 2179   3.679   4.384   7.061
    1PC     H1A 2180   3.594   4.322   7.091
    1PC     H1B 2181   3.741   4.327   6.993
    1PC     C32 2182   3.759   4.428   7.187
    1PC     H2A 2183   3.783   4.340   7.246
    1PC     H2B 2184   3.852   4.474   7.154
    1PC     N31 2185   3.693   4.526   7.282
    1PC     C33 2186   3.688   4.666   7.228
    1PC     H3A 2187   3.629   4.667   7.137
    1PC     H3B 2188   3.640   4.730   7.302
    1PC     H3C 2189   3.789   4.702   7.207
    1PC     C34 2190   3.555   4.483   7.314
    1PC     H4A 2191   3.510   4.558   7.381
    1PC     H4B 2192   3.499   4.481   7.221
    1PC     H4C 2193   3.557   4.384   7.361
    1PC     C35 2194   3.772   4.533   7.408
    1PC     H5A 2195   3.873   4.566   7.384
    1PC     H5B 2196   3.773   4.434   7.454
    1PC     H5C 2197   3.723   4.605   7.474
    1PC     O33 2198   3.697   4.725   6.912
    1PC     O34 2199   3.691   4.521   6.755
    1PC     O21 2200   4.095   4.622   6.786
    1PC     C21 2201   4.068   4.741   6.729
    1PC     O22 2202   4.069   4.845   6.791
    1OL     C12 2203   4.040   4.730   6.581
    1OL     H2R 2204   3.983   4.639   6.563
    1OL     H2S 2205   4.134   4.721   6.527
    1OL     C13 2206   3.959   4.851   6.531
    1OL     H3R 2207   4.020   4.941   6.541
    1OL     H3S 2208   3.871   4.865   6.595
    1OL     C14 2209   3.910   4.840   6.385
    1OL     H4R 2210   3.860   4.934   6.360
    1OL     H4S 2211   3.835   4.761   6.377
    1OL     C15 2212   4.023   4.815   6.285
    1OL     H5R 2213   4.044   4.708   6.280
    1OL     H5S 2214   4.115   4.862   6.322
    1OL     C16 2215   3.991   4.869   6.144
    1OL     H6R 2216   3.938   4.964   6.153
    1OL     H6S 2217   3.925   4.799   6.092
    1OL     C17 2218   4.117   4.894   6.059
    1OL     H7R 2219   4.169   4.982   6.099
    1OL     H7S 2220   4.087   4.920   5.958
    1OL     C18 2221   4.216   4.776   6.056
    1OL     H8R 2222   4.244   4.745   6.157
    1OL     H8S 2223   4.308   4.808   6.008
    1OL     C19 2224   4.159   4.658   5.981
    1OL     H9R 2225   4.125   4.575   6.043
    1OL    C110 2226   4.150   4.650   5.849
    1OL    H10R 2227   4.109   4.561   5.804
    1OL    C111 2228   4.194   4.757   5.751
    1OL    H11R 2229   4.286   4.806   5.784
    1OL    H11S 2230   4.117   4.834   5.743
    1OL    C112 2231   4.216   4.696   5.612
    1OL    H12R 2232   4.281   4.608   5.622
    1OL    H12S 2233   4.267   4.767   5.547
    1OL    C113 2234   4.081   4.657   5.549
    1OL    H13R 2235   4.045   4.740   5.488
    1OL    H13S 2236   4.007   4.643   5.629
    1OL    C114 2237   4.086   4.529   5.465
    1OL    H14R 2238   3.987   4.512   5.420
    1OL    H14S 2239   4.108   4.443   5.529
    1OL    C115 2240   4.192   4.539   5.355
    1OL    H15R 2241   4.289   4.510   5.396
    1OL    H15S 2242   4.199   4.644   5.325
    1OL    C116 2243   4.158   4.457   5.230
    1OL    H16R 2244   4.069   4.499   5.183
    1OL    H16S 2245   4.133   4.354   5.260
    1OL    C117 2246   4.271   4.451   5.126
    1OL    H17R 2247   4.294   4.550   5.088
    1OL    H17S 2248   4.233   4.394   5.041
    1OL    C118 2249   4.398   4.383   5.178
    1OL    H18R 2250   4.376   4.306   5.253
    1OL    H18S 2251   4.467   4.456   5.221
    1OL    H18T 2252   4.450   4.333   5.096
    1PA    C116 2253   4.887   3.271   4.976
    1PA    H16R 2254   4.861   3.281   4.871
    1PA    H16S 2255   4.929   3.171   4.994
    1PA    H16T 2256   4.964   3.345   4.998
    1PA    C115 2257   4.765   3.297   5.064
    1PA    H15R 2258   4.792   3.288   5.169
    1PA    H15S 2259   4.734   3.400   5.048
    1PA    C114 2260   4.645   3.206   5.032
    1PA    H14R 2261   4.555   3.255   5.071
    1PA    H14S 2262   4.631   3.197   4.924
    1PA    C113 2263   4.652   3.066   5.095
    1PA    H13R 2264   4.689   2.997   5.019
    1PA    H13S 2265   4.724   3.066   5.177
    1PA    C112 2266   4.518   3.008   5.145
    1PA    H12R 2267   4.449   2.998   5.061
    1PA    H12S 2268   4.536   2.907   5.183
    1PA    C111 2269   4.446   3.088   5.256
    1PA    H11R 2270   4.384   3.167   5.213
    1PA    H11S 2271   4.378   3.021   5.308
    1PA    C110 2272   4.538   3.152   5.361
    1PA    H10R 2273   4.614   3.214   5.315
    1PA    H10S 2274   4.478   3.216   5.426
    1PA     C19 2275   4.604   3.043   5.445
    1PA     H9R 2276   4.525   2.995   5.504
    1PA     H9S 2277   4.650   2.967   5.382
    1PA     C18 2278   4.711   3.099   5.539
    1PA     H8R 2279   4.756   3.015   5.592
    1PA     H8S 2280   4.790   3.145   5.480
    1PA     C17 2281   4.656   3.201   5.640
    1PA     H7R 2282   4.625   3.293   5.590
    1PA     H7S 2283   4.570   3.160   5.694
    1PA     C16 2284   4.770   3.229   5.737
    1PA     H6R 2285   4.801   3.133   5.778
    1PA     H6S 2286   4.853   3.270   5.679
    1PA     C15 2287   4.742   3.322   5.855
    1PA     H5R 2288   4.837   3.348   5.902
    1PA     H5S 2289   4.700   3.417   5.819
    1PA     C14 2290   4.652   3.256   5.961
    1PA     H4R 2291   4.547   3.267   5.933
    1PA     H4S 2292   4.673   3.148   5.966
    1PA     C13 2293   4.680   3.319   6.097
    1PA     H3R 2294   4.786   3.310   6.123
    1PA     H3S 2295   4.663   3.427   6.088
    1PA     C12 2296   4.597   3.260   6.213
    1PA     H2R 2297   4.490   3.267   6.190
    1PA     H2S 2298   4.622   3.154   6.225
    1PC     C11 2299   4.624   3.330   6.344
    1PC     O12 2300   4.704   3.419   6.356
    1PC     O11 2301   4.547   3.281   6.444
    1PC      C1 2302   4.594   3.308   6.579
    1PC      HR 2303   4.635   3.409   6.586
    1PC      HS 2304   4.509   3.300   6.647
    1PC      C2 2305   4.701   3.202   6.615
    1PC      HX 2306   4.655   3.103   6.611
    1PC      C3 2307   4.767   3.223   6.753
    1PC      HA 2308   4.722   3.157   6.827
    1PC      HB 2309   4.873   3.198   6.745
    1PC     O31 2310   4.755   3.360   6.799
    1PC     P31 2311   4.854   3.414   6.912
    1PC     O32 2312   4.820   3.308   7.027
    1PC     C31 2313   4.712   3.330   7.117
    1PC     H1A 2314   4.625   3.368   7.062
    1PC     H1B 2315   4.686   3.235   7.164
    1PC     C32 2316   4.757   3.431   7.224
    1PC     H2A 2317   4.777   3.527   7.176
    1PC     H2B 2318   4.677   3.444   7.297
    1PC     N31 2319   4.881   3.397   7.303
    1PC     C33 2320   5.006   3.413   7.221
    1PC     H3A 2321   5.003   3.509   7.169
    1PC     H3B 2322   5.093   3.405   7.287
    1PC     H3C 2323   5.010   3.333   7.147
    1PC     C34 2324   4.890   3.491   7.417
    1PC     H4A 2325   4.896   3.593   7.379
    1PC     H4B 2326   4.802   3.478   7.480
    1PC     H4C 2327   4.980   3.467   7.473
    1PC     C35 2328   4.874   3.258   7.356
    1PC     H5A 2329   4.779   3.243   7.409
    1PC     H5B 2330   4.958   3.244   7.425
    1PC     H5C 2331   4.884   3.189   7.272
    1PC     O33 2332   4.995   3.394   6.876
    1PC     O34 2333   4.807   3.547   6.959
    1PC     O21 2334   4.802   3.213   6.515
    1PC     C21 2335   4.868   3.107   6.470
    1PC     O22 2336   4.860   2.996   6.519
    1OL     C12 2337   4.942   3.144   6.343
    1OL     H2R 2338   5.050   3.144   6.363
    1OL     H2S 2339   4.914   3.245   6.312
    1OL     C13 2340   4.908   3.044   6.233
    1OL     H3R 2341   4.801   3.022   6.236
    1OL     H3S 2342   4.959   2.953   6.264
    1OL     C14 2343   4.947   3.079   6.088
    1OL     H4R 2344   4.871   3.143   6.042
    1OL     H4S 2345   4.946   2.987   6.029
    1OL     C15 2346   5.083   3.148   6.072
    1OL     H5R 2347   5.151   3.110   6.148
    1OL     H5S 2348   5.071   3.255   6.088
    1OL     C16 2349   5.144   3.120   5.933
    1OL     H6R 2350   5.139   3.012   5.919
    1OL     H6S 2351   5.249   3.149   5.932
    1OL     C17 2352   5.071   3.179   5.813
    1OL     H7R 2353   5.020   3.271   5.844
    1OL     H7S 2354   4.996   3.105   5.783
    1OL     C18 2355   5.157   3.212   5.690
    1OL     H8R 2356   5.093   3.230   5.603
    1OL     H8S 2357   5.222   3.128   5.665
    1OL     C19 2358   5.239   3.334   5.720
    1OL     H9R 2359   5.342   3.313   5.751
    1OL    C110 2360   5.197   3.459   5.717
    1OL    H10R 2361   5.266   3.539   5.744
    1OL    C111 2362   5.058   3.505   5.680
    1OL    H11R 2363   5.005   3.538   5.770
    1OL    H11S 2364   5.001   3.425   5.635
    1OL    C112 2365   5.065   3.623   5.581
    1OL    H12R 2366   5.091   3.714   5.635
    1OL    H12S 2367   4.965   3.637   5.540
    1OL    C113 2368   5.165   3.599   5.467
    1OL    H13R 2369   5.155   3.497   5.429
    1OL    H13S 2370   5.267   3.610   5.505
    1OL    C114 2371   5.144   3.699   5.353
    1OL    H14R 2372   5.169   3.800   5.387
    1OL    H14S 2373   5.036   3.699   5.332
    1OL    C115 2374   5.221   3.664   5.225
    1OL    H15R 2375   5.168   3.584   5.174
    1OL    H15S 2376   5.320   3.627   5.253
    1OL    C116 2377   5.245   3.781   5.128
    1OL    H16R 2378   5.344   3.823   5.150
    1OL    H16S 2379   5.173   3.861   5.148
    1OL    C117 2380   5.240   3.741   4.979
    1OL    H17R 2381   5.137   3.720   4.950
    1OL    H17S 2382   5.298   3.650   4.963
    1OL    C118 2383   5.300   3.849   4.888
    1OL    H18R 2384   5.287   3.822   4.783
    1OL    H18S 2385   5.407   3.860   4.907
    1OL    H18T 2386   5.251   3.945   4.905
    1PA    C116 2387   1.406   3.629   5.179
    1PA    H16R 2388   1.451   3.535   5.147
    1PA    H16S 2389   1.485   3.697   5.210
    1PA    H16T 2390   1.353   3.674   5.094
    1PA    C115 2391   1.308   3.604   5.295
    1PA    H15R 2392   1.252   3.696   5.315
    1PA    H15S 2393   1.235   3.528   5.266
    1PA    C114 2394   1.381   3.561   5.423
    1PA    H14R 2395   1.433   3.466   5.406
    1PA    H14S 2396   1.456   3.636   5.447
    1PA    C113 2397   1.286   3.545   5.543
    1PA    H13R 2398   1.225   3.636   5.552
    1PA    H13S 2399   1.218   3.461   5.527
    1PA    C112 2400   1.364   3.525   5.674
    1PA    H12R 2401   1.420   3.431   5.669
    1PA    H12S 2402   1.438   3.605   5.681
    1PA    C111 2403   1.274   3.525   5.799
    1PA    H11R 2404   1.202   3.607   5.792
    1PA    H11S 2405   1.218   3.432   5.802
    1PA    C110 2406   1.354   3.541   5.930
    1PA    H10R 2407   1.288   3.520   6.015
    1PA    H10S 2408   1.435   3.469   5.933
    1PA     C19 2409   1.410   3.684   5.945
    1PA     H9R 2410   1.470   3.710   5.858
    1PA     H9S 2411   1.327   3.755   5.950
    1PA     C18 2412   1.499   3.703   6.070
    1PA     H8R 2413   1.442   3.681   6.160
    1PA     H8S 2414   1.584   3.634   6.066
    1PA     C17 2415   1.549   3.848   6.073
    1PA     H7R 2416   1.598   3.871   5.978
    1PA     H7S 2417   1.463   3.915   6.082
    1PA     C16 2418   1.649   3.879   6.186
    1PA     H6R 2419   1.736   3.814   6.177
    1PA     H6S 2420   1.684   3.982   6.170
    1PA     C15 2421   1.590   3.869   6.328
    1PA     H5R 2422   1.503   3.935   6.334
    1PA     H5S 2423   1.555   3.768   6.347
    1PA     C14 2424   1.694   3.910   6.433
    1PA     H4R 2425   1.764   3.827   6.448
    1PA     H4S 2426   1.752   3.993   6.392
    1PA     C13 2427   1.640   3.957   6.570
    1PA     H3R 2428   1.725   3.997   6.626
    1PA     H3S 2429   1.571   4.040   6.556
    1PA     C12 2430   1.575   3.848   6.658
    1PA     H2R 2431   1.624   3.751   6.641
    1PA     H2S 2432   1.591   3.873   6.763
    1PC     C11 2433   1.427   3.833   6.634
    1PC     O12 2434   1.378   3.797   6.529
    1PC     O11 2435   1.354   3.865   6.743
    1PC      C1 2436   1.222   3.804   6.754
    1PC      HR 2437   1.162   3.867   6.820
    1PC      HS 2438   1.173   3.802   6.656
    1PC      C2 2439   1.227   3.661   6.814
    1PC      HX 2440   1.128   3.615   6.800
    1PC      C3 2441   1.261   3.662   6.964
    1PC      HA 2442   1.194   3.729   7.018
    1PC      HB 2443   1.249   3.561   7.006
    1PC     O31 2444   1.397   3.705   6.985
    1PC     P31 2445   1.454   3.726   7.132
    1PC     O32 2446   1.477   3.575   7.181
    1PC     C31 2447   1.561   3.485   7.106
    1PC     H1A 2448   1.535   3.383   7.134
    1PC     H1B 2449   1.542   3.499   7.000
    1PC     C32 2450   1.709   3.512   7.142
    1PC     H2A 2451   1.722   3.617   7.165
    1PC     H2B 2452   1.736   3.455   7.231
    1PC     N31 2453   1.809   3.479   7.035
    1PC     C33 2454   1.788   3.570   6.918
    1PC     H3A 2455   1.794   3.673   6.955
    1PC     H3B 2456   1.865   3.550   6.843
    1PC     H3C 2457   1.689   3.552   6.876
    1PC     C34 2458   1.947   3.502   7.087
    1PC     H4A 2459   2.019   3.483   7.007
    1PC     H4B 2460   1.954   3.605   7.122
    1PC     H4C 2461   1.965   3.434   7.170
    1PC     C35 2462   1.800   3.337   6.990
    1PC     H5A 2463   1.829   3.272   7.072
    1PC     H5B 2464   1.869   3.324   6.906
    1PC     H5C 2465   1.698   3.316   6.957
    1PC     O33 2466   1.584   3.794   7.119
    1PC     O34 2467   1.344   3.787   7.210
    1PC     O21 2468   1.327   3.583   6.743
    1PC     C21 2469   1.321   3.449   6.751
    1PC     O22 2470   1.235   3.390   6.811
    1OL     C12 2471   1.437   3.382   6.682
    1OL     H2R 2472   1.412   3.277   6.663
    1OL     H2S 2473   1.523   3.383   6.750
    1OL     C13 2474   1.477   3.452   6.551
    1OL     H3R 2475   1.496   3.558   6.571
    1OL     H3S 2476   1.395   3.447   6.479
    1OL     C14 2477   1.604   3.393   6.489
    1OL     H4R 2478   1.582   3.296   6.446
    1OL     H4S 2479   1.678   3.379   6.568
    1OL     C15 2480   1.664   3.485   6.381
    1OL     H5R 2481   1.668   3.588   6.419
    1OL     H5S 2482   1.598   3.485   6.294
    1OL     C16 2483   1.807   3.443   6.343
    1OL     H6R 2484   1.810   3.334   6.333
    1OL     H6S 2485   1.875   3.471   6.423
    1OL     C17 2486   1.853   3.506   6.210
    1OL     H7R 2487   1.962   3.509   6.207
    1OL     H7S 2488   1.817   3.609   6.204
    1OL     C18 2489   1.801   3.423   6.092
    1OL     H8R 2490   1.694   3.405   6.105
    1OL     H8S 2491   1.851   3.326   6.092
    1OL     C19 2492   1.820   3.494   5.960
    1OL     H9R 2493   1.788   3.598   5.957
    1OL    C110 2494   1.873   3.439   5.852
    1OL    H10R 2495   1.883   3.498   5.761
    1OL    C111 2496   1.923   3.297   5.842
    1OL    H11R 2497   1.850   3.227   5.882
    1OL    H11S 2498   2.014   3.288   5.902
    1OL    C112 2499   1.957   3.260   5.697
    1OL    H12R 2500   2.016   3.168   5.697
    1OL    H12S 2501   2.017   3.339   5.654
    1OL    C113 2502   1.834   3.237   5.608
    1OL    H13R 2503   1.769   3.325   5.611
    1OL    H13S 2504   1.777   3.153   5.647
    1OL    C114 2505   1.876   3.210   5.463
    1OL    H14R 2506   1.964   3.145   5.461
    1OL    H14S 2507   1.905   3.304   5.416
    1OL    C115 2508   1.763   3.142   5.383
    1OL    H15R 2509   1.667   3.180   5.417
    1OL    H15S 2510   1.765   3.035   5.407
    1OL    C116 2511   1.775   3.160   5.231
    1OL    H16R 2512   1.741   3.068   5.183
    1OL    H16S 2513   1.879   3.174   5.203
    1OL    C117 2514   1.690   3.276   5.176
    1OL    H17R 2515   1.584   3.252   5.188
    1OL    H17S 2516   1.708   3.286   5.069
    1OL    C118 2517   1.717   3.411   5.245
    1OL    H18R 2518   1.667   3.492   5.191
    1OL    H18S 2519   1.824   3.431   5.247
    1OL    H18T 2520   1.681   3.410   5.348
    1PA    C116 2521   1.423   1.865   5.340
    1PA    H16R 2522   1.478   1.884   5.248
    1PA    H16S 2523   1.317   1.875   5.320
    1PA    H16T 2524   1.444   1.762   5.371
    1PA    C115 2525   1.467   1.964   5.449
    1PA    H15R 2526   1.575   1.963   5.458
    1PA    H15S 2527   1.436   2.065   5.420
    1PA    C114 2528   1.405   1.928   5.585
    1PA    H14R 2529   1.296   1.930   5.578
    1PA    H14S 2530   1.434   1.827   5.612
    1PA    C113 2531   1.449   2.026   5.696
    1PA    H13R 2532   1.557   2.017   5.712
    1PA    H13S 2533   1.431   2.128   5.661
    1PA    C112 2534   1.373   2.007   5.828
    1PA    H12R 2535   1.398   2.092   5.892
    1PA    H12S 2536   1.266   2.008   5.809
    1PA    C111 2537   1.411   1.877   5.900
    1PA    H11R 2538   1.424   1.797   5.826
    1PA    H11S 2539   1.507   1.895   5.949
    1PA    C110 2540   1.315   1.827   6.008
    1PA    H10R 2541   1.306   1.902   6.087
    1PA    H10S 2542   1.215   1.808   5.966
    1PA     C19 2543   1.376   1.698   6.066
    1PA     H9R 2544   1.387   1.625   5.985
    1PA     H9S 2545   1.477   1.722   6.100
    1PA     C18 2546   1.301   1.630   6.181
    1PA     H8R 2547   1.216   1.576   6.141
    1PA     H8S 2548   1.368   1.553   6.222
    1PA     C17 2549   1.257   1.721   6.297
    1PA     H7R 2550   1.261   1.663   6.390
    1PA     H7S 2551   1.327   1.805   6.307
    1PA     C16 2552   1.113   1.773   6.278
    1PA     H6R 2553   1.108   1.844   6.196
    1PA     H6S 2554   1.056   1.686   6.246
    1PA     C15 2555   1.038   1.824   6.403
    1PA     H5R 2556   0.966   1.746   6.430
    1PA     H5S 2557   1.106   1.834   6.487
    1PA     C14 2558   0.960   1.956   6.383
    1PA     H4R 2559   1.017   2.037   6.428
    1PA     H4S 2560   0.951   1.979   6.277
    1PA     C13 2561   0.818   1.960   6.444
    1PA     H3R 2562   0.784   2.064   6.445
    1PA     H3S 2563   0.751   1.906   6.377
    1PA     C12 2564   0.802   1.900   6.586
    1PA     H2R 2565   0.700   1.918   6.620
    1PA     H2S 2566   0.814   1.792   6.581
    1PC     C11 2567   0.897   1.955   6.691
    1PC     O12 2568   0.914   2.073   6.716
    1PC     O11 2569   0.957   1.856   6.759
    1PC      C1 2570   1.054   1.887   6.864
    1PC      HR 2571   1.082   1.992   6.862
    1PC      HS 2572   1.009   1.861   6.961
    1PC      C2 2573   1.180   1.802   6.840
    1PC      HX 2574   1.147   1.699   6.822
    1PC      C3 2575   1.279   1.802   6.959
    1PC      HA 2576   1.226   1.783   7.053
    1PC      HB 2577   1.349   1.720   6.942
    1PC     O31 2578   1.360   1.923   6.972
    1PC     P31 2579   1.483   1.925   7.077
    1PC     O32 2580   1.422   2.008   7.199
    1PC     C31 2581   1.437   2.151   7.206
    1PC     H1A 2582   1.415   2.183   7.309
    1PC     H1B 2583   1.540   2.179   7.184
    1PC     C32 2584   1.341   2.218   7.106
    1PC     H2A 2585   1.366   2.324   7.099
    1PC     H2B 2586   1.357   2.173   7.008
    1PC     N31 2587   1.193   2.211   7.135
    1PC     C33 2588   1.145   2.070   7.142
    1PC     H3A 2589   1.197   2.020   7.224
    1PC     H3B 2590   1.037   2.068   7.159
    1PC     H3C 2591   1.172   2.021   7.049
    1PC     C34 2592   1.161   2.278   7.264
    1PC     H4A 2593   1.053   2.275   7.281
    1PC     H4B 2594   1.212   2.224   7.344
    1PC     H4C 2595   1.196   2.381   7.261
    1PC     C35 2596   1.122   2.279   7.022
    1PC     H5A 2597   1.154   2.384   7.019
    1PC     H5B 2598   1.014   2.272   7.038
    1PC     H5C 2599   1.150   2.230   6.929
    1PC     O33 2600   1.502   1.788   7.128
    1PC     O34 2601   1.597   2.003   7.026
    1PC     O21 2602   1.247   1.855   6.724
    1PC     C21 2603   1.331   1.772   6.660
    1PC     O22 2604   1.336   1.652   6.681
    1OL     C12 2605   1.416   1.845   6.560
    1OL     H2R 2606   1.351   1.907   6.498
    1OL     H2S 2607   1.464   1.771   6.496
    1OL     C13 2608   1.521   1.934   6.628
    1OL     H3R 2609   1.578   1.875   6.701
    1OL     H3S 2610   1.471   2.013   6.685
    1OL     C14 2611   1.619   1.995   6.525
    1OL     H4R 2612   1.585   1.971   6.424
    1OL     H4S 2613   1.715   1.944   6.536
    1OL     C15 2614   1.643   2.147   6.534
    1OL     H5R 2615   1.741   2.167   6.490
    1OL     H5S 2616   1.648   2.179   6.639
    1OL     C16 2617   1.540   2.229   6.455
    1OL     H6R 2618   1.516   2.176   6.363
    1OL     H6S 2619   1.586   2.324   6.425
    1OL     C17 2620   1.411   2.263   6.533
    1OL     H7R 2621   1.426   2.355   6.589
    1OL     H7S 2622   1.386   2.185   6.605
    1OL     C18 2623   1.292   2.280   6.437
    1OL     H8R 2624   1.321   2.345   6.355
    1OL     H8S 2625   1.211   2.329   6.492
    1OL     C19 2626   1.244   2.145   6.388
    1OL     H9R 2627   1.221   2.075   6.468
    1OL    C110 2628   1.225   2.107   6.262
    1OL    H10R 2629   1.190   2.006   6.244
    1OL    C111 2630   1.249   2.187   6.137
    1OL    H11R 2631   1.293   2.121   6.062
    1OL    H11S 2632   1.324   2.264   6.156
    1OL    C112 2633   1.118   2.247   6.080
    1OL    H12R 2634   1.136   2.350   6.048
    1OL    H12S 2635   1.044   2.254   6.161
    1OL    C113 2636   1.055   2.170   5.962
    1OL    H13R 2637   0.946   2.178   5.970
    1OL    H13S 2638   1.080   2.064   5.970
    1OL    C114 2639   1.096   2.225   5.823
    1OL    H14R 2640   1.205   2.229   5.817
    1OL    H14S 2641   1.059   2.327   5.812
    1OL    C115 2642   1.042   2.138   5.707
    1OL    H15R 2643   0.933   2.135   5.713
    1OL    H15S 2644   1.077   2.036   5.720
    1OL    C116 2645   1.083   2.188   5.566
    1OL    H16R 2646   1.190   2.211   5.565
    1OL    H16S 2647   1.029   2.280   5.544
    1OL    C117 2648   1.057   2.081   5.458
    1OL    H17R 2649   0.991   2.005   5.502
    1OL    H17S 2650   1.150   2.030   5.434
    1OL    C118 2651   0.990   2.128   5.328
    1OL    H18R 2652   1.060   2.144   5.245
    1OL    H18S 2653   0.934   2.221   5.343
    1OL    H18T 2654   0.923   2.050   5.292
    1PA    C116 2655   1.980   1.186   5.427
    1PA    H16R 2656   1.956   1.193   5.533
    1PA    H16S 2657   1.994   1.287   5.387
    1PA    H16T 2658   2.075   1.132   5.416
    1PA    C115 2659   1.869   1.114   5.350
    1PA    H15R 2660   1.902   1.102   5.246
    1PA    H15S 2661   1.852   1.014   5.391
    1PA    C114 2662   1.738   1.193   5.349
    1PA    H14R 2663   1.762   1.296   5.319
    1PA    H14S 2664   1.673   1.152   5.271
    1PA    C113 2665   1.661   1.195   5.482
    1PA    H13R 2666   1.602   1.104   5.488
    1PA    H13S 2667   1.729   1.196   5.567
    1PA    C112 2668   1.566   1.317   5.491
    1PA    H12R 2669   1.622   1.405   5.525
    1PA    H12S 2670   1.530   1.341   5.391
    1PA    C111 2671   1.445   1.297   5.582
    1PA    H11R 2672   1.377   1.381   5.571
    1PA    H11S 2673   1.391   1.207   5.550
    1PA    C110 2674   1.484   1.283   5.730
    1PA    H10R 2675   1.555   1.200   5.742
    1PA    H10S 2676   1.533   1.374   5.764
    1PA     C19 2677   1.359   1.257   5.814
    1PA     H9R 2678   1.294   1.344   5.806
    1PA     H9S 2679   1.305   1.171   5.771
    1PA     C18 2680   1.388   1.227   5.961
    1PA     H8R 2681   1.438   1.130   5.969
    1PA     H8S 2682   1.455   1.304   6.000
    1PA     C17 2683   1.259   1.225   6.045
    1PA     H7R 2684   1.218   1.326   6.046
    1PA     H7S 2685   1.185   1.161   5.996
    1PA     C16 2686   1.276   1.175   6.189
    1PA     H6R 2687   1.185   1.197   6.244
    1PA     H6S 2688   1.285   1.066   6.186
    1PA     C15 2689   1.399   1.232   6.263
    1PA     H5R 2690   1.485   1.168   6.241
    1PA     H5S 2691   1.422   1.332   6.225
    1PA     C14 2692   1.381   1.242   6.416
    1PA     H4R 2693   1.480   1.246   6.461
    1PA     H4S 2694   1.332   1.337   6.439
    1PA     C13 2695   1.298   1.128   6.480
    1PA     H3R 2696   1.196   1.165   6.493
    1PA     H3S 2697   1.291   1.042   6.412
    1PA     C12 2698   1.352   1.079   6.615
    1PA     H2R 2699   1.394   1.162   6.673
    1PA     H2S 2700   1.270   1.036   6.673
    1PC     C11 2701   1.458   0.972   6.598
    1PC     O12 2702   1.534   0.966   6.503
    1PC     O11 2703   1.456   0.883   6.699
    1PC      C1 2704   1.558   0.778   6.702
    1PC      HR 2705   1.515   0.690   6.751
    1PC      HS 2706   1.587   0.749   6.601
    1PC      C2 2707   1.683   0.822   6.784
    1PC      HX 2708   1.755   0.740   6.788
    1PC      C3 2709   1.644   0.859   6.930
    1PC      HA 2710   1.544   0.904   6.931
    1PC      HB 2711   1.642   0.769   6.993
    1PC     O31 2712   1.737   0.955   6.987
    1PC     P31 2713   1.699   1.038   7.117
    1PC     O32 2714   1.581   1.131   7.063
    1PC     C31 2715   1.605   1.232   6.965
    1PC     H1A 2716   1.712   1.257   6.962
    1PC     H1B 2717   1.575   1.194   6.867
    1PC     C32 2718   1.526   1.358   7.005
    1PC     H2A 2719   1.570   1.402   7.094
    1PC     H2B 2720   1.533   1.431   6.924
    1PC     N31 2721   1.378   1.344   7.036
    1PC     C33 2722   1.308   1.252   6.943
    1PC     H3A 2723   1.202   1.254   6.967
    1PC     H3B 2724   1.324   1.287   6.841
    1PC     H3C 2725   1.349   1.152   6.957
    1PC     C34 2726   1.357   1.297   7.176
    1PC     H4A 2727   1.404   1.199   7.188
    1PC     H4B 2728   1.401   1.368   7.245
    1PC     H4C 2729   1.249   1.289   7.194
    1PC     C35 2730   1.316   1.478   7.024
    1PC     H5A 2731   1.212   1.469   7.054
    1PC     H5B 2732   1.322   1.509   6.920
    1PC     H5C 2733   1.369   1.548   7.089
    1PC     O33 2734   1.639   0.947   7.216
    1PC     O34 2735   1.813   1.125   7.153
    1PC     O21 2736   1.746   0.937   6.722
    1PC     C21 2737   1.822   0.916   6.613
    1PC     O22 2738   1.835   0.808   6.559
    1OL     C12 2739   1.893   1.040   6.567
    1OL     H2R 2740   1.928   1.023   6.465
    1OL     H2S 2741   1.980   1.057   6.631
    1OL     C13 2742   1.801   1.164   6.572
    1OL     H3R 2743   1.777   1.187   6.676
    1OL     H3S 2744   1.707   1.141   6.522
    1OL     C14 2745   1.861   1.290   6.508
    1OL     H4R 2746   1.946   1.325   6.568
    1OL     H4S 2747   1.784   1.368   6.513
    1OL     C15 2748   1.907   1.273   6.361
    1OL     H5R 2749   1.994   1.208   6.358
    1OL     H5S 2750   1.938   1.370   6.323
    1OL     C16 2751   1.797   1.216   6.270
    1OL     H6R 2752   1.709   1.280   6.274
    1OL     H6S 2753   1.766   1.118   6.308
    1OL     C17 2754   1.844   1.200   6.124
    1OL     H7R 2755   1.927   1.129   6.120
    1OL     H7S 2756   1.881   1.296   6.088
    1OL     C18 2757   1.732   1.152   6.030
    1OL     H8R 2758   1.770   1.150   5.928
    1OL     H8S 2759   1.652   1.227   6.034
    1OL     C19 2760   1.676   1.017   6.071
    1OL     H9R 2761   1.668   1.001   6.178
    1OL    C110 2762   1.635   0.920   5.989
    1OL    H10R 2763   1.596   0.828   6.033
    1OL    C111 2764   1.634   0.923   5.838
    1OL    H11R 2765   1.716   0.860   5.801
    1OL    H11S 2766   1.650   1.024   5.800
    1OL    C112 2767   1.501   0.867   5.785
    1OL    H12R 2768   1.418   0.919   5.833
    1OL    H12S 2769   1.493   0.762   5.813
    1OL    C113 2770   1.482   0.878   5.632
    1OL    H13R 2771   1.468   0.983   5.605
    1OL    H13S 2772   1.389   0.827   5.606
    1OL    C114 2773   1.599   0.819   5.550
    1OL    H14R 2774   1.616   0.716   5.584
    1OL    H14S 2775   1.690   0.875   5.571
    1OL    C115 2776   1.576   0.818   5.398
    1OL    H15R 2777   1.664   0.772   5.351
    1OL    H15S 2778   1.570   0.921   5.360
    1OL    C116 2779   1.450   0.740   5.356
    1OL    H16R 2780   1.361   0.797   5.385
    1OL    H16S 2781   1.448   0.646   5.412
    1OL    C117 2782   1.443   0.708   5.206
    1OL    H17R 2783   1.364   0.635   5.189
    1OL    H17S 2784   1.537   0.662   5.174
    1OL    C118 2785   1.416   0.831   5.119
    1OL    H18R 2786   1.415   0.806   5.013
    1OL    H18S 2787   1.492   0.907   5.135
    1OL    H18T 2788   1.317   0.871   5.144
    1PA    C116 2789   2.815   4.939   5.364
    1PA    H16R 2790   2.823   4.870   5.448
    1PA    H16S 2791   2.719   4.923   5.315
    1PA    H16T 2792   2.818   5.041   5.402
    1PA    C115 2793   2.930   4.915   5.264
    1PA    H15R 2794   2.923   4.813   5.224
    1PA    H15S 2795   2.918   4.983   5.179
    1PA    C114 2796   3.069   4.935   5.325
    1PA    H14R 2797   3.144   4.915   5.248
    1PA    H14S 2798   3.079   5.040   5.353
    1PA    C113 2799   3.098   4.849   5.449
    1PA    H13R 2800   3.035   4.883   5.532
    1PA    H13S 2801   3.072   4.745   5.429
    1PA    C112 2802   3.247   4.855   5.491
    1PA    H12R 2803   3.305   4.792   5.424
    1PA    H12S 2804   3.284   4.957   5.478
    1PA    C111 2805   3.273   4.814   5.636
    1PA    H11R 2806   3.227   4.717   5.657
    1PA    H11S 2807   3.381   4.801   5.649
    1PA    C110 2808   3.224   4.921   5.736
    1PA    H10R 2809   3.251   5.020   5.699
    1PA    H10S 2810   3.115   4.918   5.743
    1PA     C19 2811   3.285   4.907   5.877
    1PA     H9R 2812   3.394   4.909   5.867
    1PA     H9S 2813   3.256   4.994   5.936
    1PA     C18 2814   3.243   4.778   5.950
    1PA     H8R 2815   3.137   4.788   5.976
    1PA     H8S 2816   3.253   4.693   5.883
    1PA     C17 2817   3.327   4.749   6.077
    1PA     H7R 2818   3.299   4.653   6.119
    1PA     H7S 2819   3.431   4.738   6.045
    1PA     C16 2820   3.320   4.858   6.186
    1PA     H6R 2821   3.406   4.845   6.251
    1PA     H6S 2822   3.335   4.955   6.138
    1PA     C15 2823   3.193   4.872   6.272
    1PA     H5R 2824   3.202   4.966   6.326
    1PA     H5S 2825   3.106   4.883   6.207
    1PA     C14 2826   3.163   4.763   6.379
    1PA     H4R 2827   3.131   4.815   6.469
    1PA     H4S 2828   3.076   4.706   6.348
    1PA     C13 2829   3.276   4.665   6.418
    1PA     H3R 2830   3.271   4.578   6.353
    1PA     H3S 2831   3.375   4.709   6.400
    1PA     C12 2832   3.268   4.618   6.564
    1PA     H2R 2833   3.166   4.630   6.602
    1PA     H2S 2834   3.292   4.511   6.572
    1PC     C11 2835   3.361   4.694   6.655
    1PC     O12 2836   3.437   4.782   6.616
    1PC     O11 2837   3.346   4.659   6.784
    1PC      C1 2838   3.393   4.754   6.883
    1PC      HR 2839   3.415   4.700   6.975
    1PC      HS 2840   3.485   4.803   6.848
    1PC      C2 2841   3.284   4.861   6.909
    1PC      HX 2842   3.325   4.934   6.978
    1PC      C3 2843   3.157   4.797   6.970
    1PC      HA 2844   3.164   4.688   6.964
    1PC      HB 2845   3.152   4.829   7.075
    1PC     O31 2846   3.032   4.839   6.907
    1PC     P31 2847   2.922   4.731   6.861
    1PC     O32 2848   2.877   4.676   7.004
    1PC     C31 2849   2.771   4.742   7.074
    1PC     H1A 2850   2.786   4.851   7.069
    1PC     H1B 2851   2.677   4.717   7.025
    1PC     C32 2852   2.772   4.693   7.220
    1PC     H2A 2853   2.680   4.726   7.269
    1PC     H2B 2854   2.775   4.584   7.220
    1PC     N31 2855   2.883   4.738   7.311
    1PC     C33 2856   2.859   4.686   7.449
    1PC     H3A 2857   2.760   4.719   7.482
    1PC     H3B 2858   2.865   4.577   7.447
    1PC     H3C 2859   2.936   4.726   7.515
    1PC     C34 2860   3.016   4.687   7.267
    1PC     H4A 2861   3.016   4.578   7.274
    1PC     H4B 2862   3.028   4.718   7.163
    1PC     H4C 2863   3.093   4.730   7.331
    1PC     C35 2864   2.888   4.887   7.318
    1PC     H5A 2865   2.910   4.926   7.219
    1PC     H5B 2866   2.965   4.918   7.388
    1PC     H5C 2867   2.790   4.924   7.351
    1PC     O33 2868   2.807   4.802   6.803
    1PC     O34 2869   2.987   4.621   6.789
    1PC     O21 2870   3.252   4.925   6.784
    1PC     C21 2871   3.202   5.048   6.785
    1PC     O22 2872   3.203   5.123   6.882
    1OL     C12 2873   3.147   5.085   6.651
    1OL     H2R 2874   3.212   5.046   6.573
    1OL     H2S 2875   3.150   5.194   6.644
    1OL     C13 2876   3.003   5.032   6.629
    1OL     H3R 2877   2.948   5.032   6.724
    1OL     H3S 2878   3.005   4.929   6.593
    1OL     C14 2879   2.928   5.124   6.530
    1OL     H4R 2880   2.999   5.159   6.455
    1OL     H4S 2881   2.895   5.210   6.588
    1OL     C15 2882   2.805   5.068   6.460
    1OL     H5R 2883   2.749   5.151   6.416
    1OL     H5S 2884   2.740   5.019   6.533
    1OL     C16 2885   2.841   4.970   6.347
    1OL     H6R 2886   2.899   4.888   6.391
    1OL     H6S 2887   2.904   5.019   6.273
    1OL     C17 2888   2.716   4.913   6.280
    1OL     H7R 2889   2.685   4.978   6.197
    1OL     H7S 2890   2.634   4.912   6.352
    1OL     C18 2891   2.742   4.771   6.229
    1OL     H8R 2892   2.783   4.711   6.310
    1OL     H8S 2893   2.819   4.778   6.152
    1OL     C19 2894   2.618   4.703   6.176
    1OL     H9R 2895   2.552   4.663   6.253
    1OL    C110 2896   2.586   4.687   6.048
    1OL    H10R 2897   2.494   4.635   6.023
    1OL    C111 2898   2.668   4.735   5.931
    1OL    H11R 2899   2.775   4.735   5.953
    1OL    H11S 2900   2.639   4.838   5.908
    1OL    C112 2901   2.642   4.648   5.807
    1OL    H12R 2902   2.534   4.640   5.793
    1OL    H12S 2903   2.679   4.546   5.824
    1OL    C113 2904   2.708   4.708   5.682
    1OL    H13R 2905   2.815   4.687   5.682
    1OL    H13S 2906   2.698   4.817   5.686
    1OL    C114 2907   2.643   4.660   5.551
    1OL    H14R 2908   2.644   4.743   5.480
    1OL    H14S 2909   2.539   4.633   5.569
    1OL    C115 2910   2.712   4.540   5.487
    1OL    H15R 2911   2.698   4.453   5.552
    1OL    H15S 2912   2.818   4.562   5.482
    1OL    C116 2913   2.663   4.507   5.345
    1OL    H16R 2914   2.554   4.499   5.343
    1OL    H16S 2915   2.703   4.409   5.318
    1OL    C117 2916   2.709   4.610   5.241
    1OL    H17R 2917   2.812   4.640   5.265
    1OL    H17S 2918   2.646   4.699   5.247
    1OL    C118 2919   2.708   4.555   5.098
    1OL    H18R 2920   2.608   4.521   5.070
    1OL    H18S 2921   2.777   4.471   5.088
    1OL    H18T 2922   2.739   4.632   5.027
    1PA    C116 2923   5.068   2.072   4.994
    1PA    H16R 2924   5.170   2.069   4.955
    1PA    H16S 2925   5.009   2.141   4.932
    1PA    H16T 2926   5.025   1.972   4.986
    1PA    C115 2927   5.068   2.119   5.141
    1PA    H15R 2928   4.968   2.112   5.184
    1PA    H15S 2929   5.130   2.050   5.198
    1PA    C114 2930   5.121   2.262   5.158
    1PA    H14R 2931   5.214   2.272   5.103
    1PA    H14S 2932   5.050   2.335   5.118
    1PA    C113 2933   5.149   2.289   5.306
    1PA    H13R 2934   5.208   2.205   5.342
    1PA    H13S 2935   5.214   2.376   5.315
    1PA    C112 2936   5.026   2.307   5.398
    1PA    H12R 2937   4.974   2.400   5.372
    1PA    H12S 2938   4.955   2.225   5.386
    1PA    C111 2939   5.075   2.313   5.544
    1PA    H11R 2940   5.092   2.210   5.577
    1PA    H11S 2941   5.171   2.364   5.545
    1PA    C110 2942   4.986   2.376   5.652
    1PA    H10R 2943   4.939   2.468   5.615
    1PA    H10S 2944   4.907   2.308   5.682
    1PA     C19 2945   5.077   2.412   5.771
    1PA     H9R 2946   5.125   2.322   5.811
    1PA     H9S 2947   5.157   2.476   5.735
    1PA     C18 2948   5.006   2.485   5.885
    1PA     H8R 2949   5.082   2.545   5.934
    1PA     H8S 2950   4.932   2.554   5.843
    1PA     C17 2951   4.939   2.393   5.989
    1PA     H7R 2952   4.851   2.446   6.026
    1PA     H7S 2953   4.902   2.302   5.941
    1PA     C16 2954   5.029   2.359   6.111
    1PA     H6R 2955   5.108   2.435   6.120
    1PA     H6S 2956   4.969   2.367   6.202
    1PA     C15 2957   5.096   2.221   6.109
    1PA     H5R 2958   5.065   2.171   6.017
    1PA     H5S 2959   5.204   2.236   6.103
    1PA     C14 2960   5.063   2.125   6.226
    1PA     H4R 2961   4.958   2.096   6.215
    1PA     H4S 2962   5.115   2.030   6.213
    1PA     C13 2963   5.082   2.176   6.371
    1PA     H3R 2964   5.061   2.282   6.380
    1PA     H3S 2965   5.008   2.123   6.433
    1PA     C12 2966   5.218   2.144   6.436
    1PA     H2R 2967   5.244   2.040   6.412
    1PA     H2S 2968   5.295   2.209   6.396
    1PC     C11 2969   5.211   2.155   6.586
    1PC     O12 2970   5.170   2.066   6.658
    1PC     O11 2971   5.255   2.274   6.633
    1PC      C1 2972   5.264   2.291   6.778
    1PC      HR 2973   5.171   2.259   6.825
    1PC      HS 2974   5.346   2.230   6.816
    1PC      C2 2975   5.289   2.441   6.810
    1PC      HX 2976   5.371   2.473   6.745
    1PC      C3 2977   5.337   2.464   6.956
    1PC      HA 2978   5.357   2.368   7.003
    1PC      HB 2979   5.430   2.521   6.955
    1PC     O31 2980   5.240   2.538   7.035
    1PC     P31 2981   5.237   2.526   7.195
    1PC     O32 2982   5.093   2.463   7.221
    1PC     C31 2983   5.053   2.338   7.162
    1PC     H1A 2984   5.140   2.271   7.156
    1PC     H1B 2985   4.978   2.293   7.227
    1PC     C32 2986   4.994   2.366   7.022
    1PC     H2A 2987   5.073   2.400   6.956
    1PC     H2B 2988   4.953   2.273   6.983
    1PC     N31 2989   4.884   2.469   7.009
    1PC     C33 2990   4.776   2.449   7.109
    1PC     H3A 2991   4.743   2.345   7.104
    1PC     H3B 2992   4.817   2.470   7.208
    1PC     H3C 2993   4.692   2.516   7.087
    1PC     C34 2994   4.938   2.608   7.020
    1PC     H4A 2995   5.024   2.618   6.954
    1PC     H4B 2996   4.859   2.680   6.994
    1PC     H4C 2997   4.971   2.624   7.123
    1PC     C35 2998   4.826   2.454   6.873
    1PC     H5A 2999   4.741   2.521   6.863
    1PC     H5B 3000   4.795   2.350   6.859
    1PC     H5C 3001   4.904   2.480   6.800
    1PC     O33 3002   5.336   2.428   7.243
    1PC     O34 3003   5.228   2.659   7.255
    1PC     O21 3004   5.167   2.514   6.776
    1PC     C21 3005   5.182   2.619   6.692
    1PC     O22 3006   5.288   2.667   6.659
    1OL     C12 3007   5.050   2.668   6.639
    1OL     H2R 3008   5.068   2.758   6.580
    1OL     H2S 3009   4.985   2.696   6.722
    1OL     C13 3010   4.981   2.560   6.552
    1OL     H3R 3011   4.959   2.472   6.614
    1OL     H3S 3012   5.050   2.526   6.475
    1OL     C14 3013   4.850   2.611   6.489
    1OL     H4R 3014   4.792   2.663   6.565
    1OL     H4S 3015   4.790   2.527   6.454
    1OL     C15 3016   4.872   2.706   6.371
    1OL     H5R 3017   4.943   2.784   6.401
    1OL     H5S 3018   4.779   2.756   6.346
    1OL     C16 3019   4.924   2.632   6.247
    1OL     H6R 3020   4.843   2.571   6.207
    1OL     H6S 3021   5.006   2.565   6.276
    1OL     C17 3022   4.976   2.727   6.140
    1OL     H7R 3023   4.902   2.807   6.129
    1OL     H7S 3024   4.976   2.679   6.042
    1OL     C18 3025   5.117   2.781   6.171
    1OL     H8R 3026   5.128   2.797   6.279
    1OL     H8S 3027   5.126   2.880   6.124
    1OL     C19 3028   5.226   2.688   6.124
    1OL     H9R 3029   5.222   2.587   6.164
    1OL    C110 3030   5.325   2.721   6.041
    1OL    H10R 3031   5.398   2.645   6.014
    1OL    C111 3032   5.348   2.857   5.980
    1OL    H11R 3033   5.452   2.889   5.996
    1OL    H11S 3034   5.291   2.934   6.032
    1OL    C112 3035   5.319   2.861   5.828
    1OL    H12R 3036   5.400   2.812   5.773
    1OL    H12S 3037   5.320   2.965   5.795
    1OL    C113 3038   5.186   2.795   5.786
    1OL    H13R 3039   5.109   2.811   5.862
    1OL    H13S 3040   5.201   2.687   5.779
    1OL    C114 3041   5.133   2.849   5.652
    1OL    H14R 3042   5.217   2.862   5.583
    1OL    H14S 3043   5.092   2.949   5.669
    1OL    C115 3044   5.021   2.764   5.589
    1OL    H15R 3045   4.952   2.831   5.537
    1OL    H15S 3046   4.964   2.715   5.668
    1OL    C116 3047   5.072   2.660   5.489
    1OL    H16R 3048   4.987   2.602   5.453
    1OL    H16S 3049   5.142   2.591   5.537
    1OL    C117 3050   5.139   2.724   5.367
    1OL    H17R 3051   5.234   2.769   5.396
    1OL    H17S 3052   5.075   2.805   5.334
    1OL    C118 3053   5.167   2.628   5.252
    1OL    H18R 3054   5.096   2.545   5.252
    1OL    H18S 3055   5.268   2.588   5.262
    1OL    H18T 3056   5.160   2.678   5.155
    1PA    C116 3057   4.509   1.208   5.302
    1PA    H16R 3058   4.590   1.281   5.310
    1PA    H16S 3059   4.415   1.259   5.324
    1PA    H16T 3060   4.505   1.172   5.199
    1PA    C115 3061   4.532   1.091   5.399
    1PA    H15R 3062   4.542   1.132   5.500
    1PA    H15S 3063   4.445   1.024   5.398
    1PA    C114 3064   4.659   1.012   5.360
    1PA    H14R 3065   4.648   0.975   5.258
    1PA    H14S 3066   4.740   1.085   5.361
    1PA    C113 3067   4.702   0.896   5.451
    1PA    H13R 3068   4.628   0.815   5.447
    1PA    H13S 3069   4.797   0.856   5.416
    1PA    C112 3070   4.718   0.944   5.596
    1PA    H12R 3071   4.783   1.031   5.599
    1PA    H12S 3072   4.620   0.977   5.632
    1PA    C111 3073   4.768   0.839   5.696
    1PA    H11R 3074   4.742   0.881   5.793
    1PA    H11S 3075   4.711   0.746   5.683
    1PA    C110 3076   4.917   0.802   5.699
    1PA    H10R 3077   4.940   0.733   5.617
    1PA    H10S 3078   4.977   0.892   5.684
    1PA     C19 3079   4.956   0.738   5.834
    1PA     H9R 3080   4.899   0.646   5.849
    1PA     H9S 3081   5.062   0.710   5.833
    1PA     C18 3082   4.930   0.832   5.953
    1PA     H8R 3083   4.955   0.934   5.924
    1PA     H8S 3084   4.824   0.830   5.978
    1PA     C17 3085   5.010   0.802   6.080
    1PA     H7R 3086   4.998   0.697   6.109
    1PA     H7S 3087   5.116   0.821   6.063
    1PA     C16 3088   4.956   0.892   6.193
    1PA     H6R 3089   4.945   0.994   6.156
    1PA     H6S 3090   4.857   0.857   6.221
    1PA     C15 3091   5.048   0.894   6.316
    1PA     H5R 3092   5.085   0.793   6.335
    1PA     H5S 3093   5.135   0.957   6.295
    1PA     C14 3094   4.977   0.945   6.442
    1PA     H4R 3095   5.053   0.962   6.518
    1PA     H4S 3096   4.929   1.041   6.423
    1PA     C13 3097   4.872   0.843   6.493
    1PA     H3R 3098   4.776   0.864   6.445
    1PA     H3S 3099   4.901   0.743   6.462
    1PA     C12 3100   4.853   0.844   6.646
    1PA     H2R 3101   4.813   0.940   6.678
    1PA     H2S 3102   4.782   0.767   6.676
    1PC     C11 3103   4.984   0.819   6.718
    1PC     O12 3104   5.076   0.757   6.672
    1PC     O11 3105   4.990   0.881   6.836
    1PC      C1 3106   5.111   0.859   6.914
    1PC      HR 3107   5.103   0.765   6.970
    1PC      HS 3108   5.199   0.853   6.850
    1PC      C2 3109   5.131   0.979   7.009
    1PC      HX 3110   5.237   0.988   7.032
    1PC      C3 3111   5.058   0.960   7.143
    1PC      HA 3112   5.123   0.899   7.207
    1PC      HB 3113   5.042   1.057   7.191
    1PC     O31 3114   4.933   0.888   7.132
    1PC     P31 3115   4.829   0.892   7.253
    1PC     O32 3116   4.738   1.013   7.206
    1PC     C31 3117   4.655   0.992   7.091
    1PC     H1A 3118   4.663   0.889   7.056
    1PC     H1B 3119   4.550   1.010   7.118
    1PC     C32 3120   4.703   1.086   6.979
    1PC     H2A 3121   4.812   1.075   6.970
    1PC     H2B 3122   4.657   1.054   6.886
    1PC     N31 3123   4.673   1.232   6.996
    1PC     C33 3124   4.526   1.253   7.009
    1PC     H3A 3125   4.493   1.209   7.103
    1PC     H3B 3126   4.507   1.360   7.011
    1PC     H3C 3127   4.476   1.206   6.924
    1PC     C34 3128   4.740   1.289   7.117
    1PC     H4A 3129   4.701   1.238   7.205
    1PC     H4B 3130   4.847   1.272   7.109
    1PC     H4C 3131   4.716   1.396   7.122
    1PC     C35 3132   4.720   1.307   6.877
    1PC     H5A 3133   4.698   1.412   6.893
    1PC     H5B 3134   4.667   1.269   6.789
    1PC     H5C 3135   4.828   1.291   6.867
    1PC     O33 3136   4.739   0.775   7.256
    1PC     O34 3137   4.902   0.933   7.375
    1PC     O21 3138   5.085   1.101   6.942
    1PC     C21 3139   5.168   1.157   6.852
    1PC     O22 3140   5.289   1.147   6.859
    1OL     C12 3141   5.094   1.244   6.753
    1OL     H2R 3142   5.029   1.312   6.807
    1OL     H2S 3143   5.030   1.177   6.694
    1OL     C13 3144   5.189   1.323   6.661
    1OL     H3R 3145   5.260   1.254   6.615
    1OL     H3S 3146   5.247   1.394   6.720
    1OL     C14 3147   5.117   1.400   6.548
    1OL     H4R 3148   5.193   1.443   6.482
    1OL     H4S 3149   5.059   1.482   6.590
    1OL     C15 3150   5.024   1.309   6.465
    1OL     H5R 3151   4.940   1.277   6.526
    1OL     H5S 3152   5.080   1.220   6.434
    1OL     C16 3153   4.969   1.379   6.340
    1OL     H6R 3154   5.054   1.410   6.277
    1OL     H6S 3155   4.916   1.470   6.369
    1OL     C17 3156   4.876   1.287   6.259
    1OL     H7R 3157   4.801   1.243   6.326
    1OL     H7S 3158   4.934   1.205   6.217
    1OL     C18 3159   4.801   1.360   6.146
    1OL     H8R 3160   4.733   1.432   6.190
    1OL     H8S 3161   4.742   1.287   6.090
    1OL     C19 3162   4.898   1.434   6.056
    1OL     H9R 3163   4.979   1.485   6.107
    1OL    C110 3164   4.894   1.442   5.924
    1OL    H10R 3165   4.971   1.499   5.872
    1OL    C111 3166   4.791   1.380   5.832
    1OL    H11R 3167   4.739   1.459   5.776
    1OL    H11S 3168   4.716   1.322   5.885
    1OL    C112 3169   4.868   1.292   5.733
    1OL    H12R 3170   4.940   1.355   5.680
    1OL    H12S 3171   4.799   1.252   5.658
    1OL    C113 3172   4.941   1.177   5.805
    1OL    H13R 3173   4.878   1.088   5.797
    1OL    H13S 3174   4.952   1.196   5.911
    1OL    C114 3175   5.081   1.148   5.747
    1OL    H14R 3176   5.118   1.055   5.792
    1OL    H14S 3177   5.150   1.227   5.774
    1OL    C115 3178   5.074   1.134   5.594
    1OL    H15R 3179   5.083   1.232   5.548
    1OL    H15S 3180   4.975   1.095   5.568
    1OL    C116 3181   5.178   1.039   5.535
    1OL    H16R 3182   5.201   0.961   5.608
    1OL    H16S 3183   5.271   1.094   5.515
    1OL    C117 3184   5.124   0.973   5.407
    1OL    H17R 3185   5.033   1.023   5.374
    1OL    H17S 3186   5.095   0.870   5.430
    1OL    C118 3187   5.225   0.974   5.290
    1OL    H18R 3188   5.317   0.923   5.319
    1OL    H18S 3189   5.248   1.077   5.261
    1OL    H18T 3190   5.183   0.922   5.204
    1PA    C116 3191   4.333   0.911   5.162
    1PA    H16R 3192   4.321   1.015   5.194
    1PA    H16S 3193   4.320   0.906   5.054
    1PA    H16T 3194   4.434   0.879   5.186
    1PA    C115 3195   4.229   0.821   5.232
    1PA    H15R 3196   4.129   0.854   5.202
    1PA    H15S 3197   4.238   0.719   5.194
    1PA    C114 3198   4.237   0.823   5.386
    1PA    H14R 3199   4.238   0.927   5.419
    1PA    H14S 3200   4.146   0.777   5.427
    1PA    C113 3201   4.360   0.753   5.447
    1PA    H13R 3202   4.436   0.738   5.370
    1PA    H13S 3203   4.406   0.819   5.521
    1PA    C112 3204   4.331   0.617   5.515
    1PA    H12R 3205   4.275   0.553   5.447
    1PA    H12S 3206   4.426   0.565   5.533
    1PA    C111 3207   4.252   0.626   5.647
    1PA    H11R 3208   4.154   0.670   5.628
    1PA    H11S 3209   4.236   0.524   5.683
    1PA    C110 3210   4.319   0.707   5.759
    1PA    H10R 3211   4.321   0.812   5.731
    1PA    H10S 3212   4.259   0.698   5.849
    1PA     C19 3213   4.462   0.660   5.789
    1PA     H9R 3214   4.461   0.556   5.825
    1PA     H9S 3215   4.520   0.660   5.697
    1PA     C18 3216   4.534   0.751   5.889
    1PA     H8R 3217   4.638   0.718   5.896
    1PA     H8S 3218   4.534   0.853   5.850
    1PA     C17 3219   4.477   0.754   6.031
    1PA     H7R 3220   4.534   0.825   6.091
    1PA     H7S 3221   4.373   0.786   6.030
    1PA     C16 3222   4.490   0.615   6.094
    1PA     H6R 3223   4.426   0.544   6.040
    1PA     H6S 3224   4.593   0.581   6.085
    1PA     C15 3225   4.451   0.612   6.242
    1PA     H5R 3226   4.514   0.680   6.299
    1PA     H5S 3227   4.347   0.644   6.252
    1PA     C14 3228   4.464   0.470   6.293
    1PA     H4R 3229   4.420   0.402   6.220
    1PA     H4S 3230   4.570   0.445   6.299
    1PA     C13 3231   4.395   0.447   6.429
    1PA     H3R 3232   4.313   0.518   6.442
    1PA     H3S 3233   4.351   0.347   6.431
    1PA     C12 3234   4.497   0.459   6.542
    1PA     H2R 3235   4.577   0.386   6.527
    1PA     H2S 3236   4.543   0.558   6.540
    1PC     C11 3237   4.439   0.436   6.678
    1PC     O12 3238   4.324   0.401   6.702
    1PC     O11 3239   4.533   0.463   6.770
    1PC      C1 3240   4.497   0.462   6.910
    1PC      HR 3241   4.403   0.409   6.927
    1PC      HS 3242   4.576   0.409   6.965
    1PC      C2 3243   4.490   0.608   6.957
    1PC      HX 3244   4.590   0.651   6.944
    1PC      C3 3245   4.448   0.618   7.105
    1PC      HA 3246   4.522   0.567   7.167
    1PC      HB 3247   4.446   0.723   7.135
    1PC     O31 3248   4.318   0.557   7.126
    1PC     P31 3249   4.193   0.645   7.173
    1PC     O32 3250   4.070   0.546   7.147
    1PC     C31 3251   4.021   0.520   7.014
    1PC     H1A 3252   3.915   0.493   7.022
    1PC     H1B 3253   4.029   0.610   6.953
    1PC     C32 3254   4.100   0.403   6.949
    1PC     H2A 3255   4.058   0.384   6.850
    1PC     H2B 3256   4.203   0.434   6.935
    1PC     N31 3257   4.104   0.270   7.020
    1PC     C33 3258   4.193   0.274   7.140
    1PC     H3A 3259   4.151   0.345   7.211
    1PC     H3B 3260   4.196   0.174   7.184
    1PC     H3C 3261   4.292   0.306   7.109
    1PC     C34 3262   3.969   0.225   7.064
    1PC     H4A 3263   3.979   0.129   7.113
    1PC     H4B 3264   3.930   0.299   7.134
    1PC     H4C 3265   3.904   0.216   6.976
    1PC     C35 3266   4.160   0.167   6.927
    1PC     H5A 3267   4.182   0.077   6.985
    1PC     H5B 3268   4.252   0.205   6.883
    1PC     H5C 3269   4.087   0.144   6.850
    1PC     O33 3270   4.207   0.663   7.319
    1PC     O34 3271   4.181   0.763   7.086
    1PC     O21 3272   4.393   0.677   6.873
    1PC     C21 3273   4.419   0.802   6.832
    1PC     O22 3274   4.523   0.862   6.852
    1OL     C12 3275   4.310   0.864   6.749
    1OL     H2R 3276   4.320   0.972   6.758
    1OL     H2S 3277   4.213   0.836   6.791
    1OL     C13 3278   4.319   0.821   6.601
    1OL     H3R 3279   4.254   0.735   6.586
    1OL     H3S 3280   4.421   0.790   6.577
    1OL     C14 3281   4.280   0.938   6.507
    1OL     H4R 3282   4.360   1.013   6.511
    1OL     H4S 3283   4.190   0.986   6.545
    1OL     C15 3284   4.257   0.898   6.360
    1OL     H5R 3285   4.347   0.850   6.321
    1OL     H5S 3286   4.242   0.989   6.302
    1OL     C16 3287   4.134   0.807   6.342
    1OL     H6R 3288   4.047   0.855   6.389
    1OL     H6S 3289   4.151   0.712   6.393
    1OL     C17 3290   4.100   0.779   6.194
    1OL     H7R 3291   4.182   0.721   6.149
    1OL     H7S 3292   4.095   0.873   6.140
    1OL     C18 3293   3.968   0.702   6.173
    1OL     H8R 3294   3.959   0.674   6.068
    1OL     H8S 3295   3.885   0.771   6.193
    1OL     C19 3296   3.951   0.580   6.262
    1OL     H9R 3297   3.878   0.591   6.341
    1OL    C110 3298   4.017   0.465   6.250
    1OL    H10R 3299   3.996   0.385   6.321
    1OL    C111 3300   4.122   0.433   6.146
    1OL    H11R 3301   4.216   0.415   6.200
    1OL    H11S 3302   4.140   0.517   6.078
    1OL    C112 3303   4.090   0.306   6.067
    1OL    H12R 3304   4.076   0.224   6.137
    1OL    H12S 3305   4.176   0.280   6.005
    1OL    C113 3306   3.968   0.318   5.974
    1OL    H13R 3307   3.879   0.346   6.031
    1OL    H13S 3308   3.949   0.220   5.930
    1OL    C114 3309   3.990   0.418   5.860
    1OL    H14R 3310   4.091   0.403   5.819
    1OL    H14S 3311   3.985   0.520   5.897
    1OL    C115 3312   3.888   0.398   5.746
    1OL    H15R 3313   3.787   0.415   5.783
    1OL    H15S 3314   3.893   0.294   5.713
    1OL    C116 3315   3.917   0.491   5.628
    1OL    H16R 3316   4.025   0.504   5.619
    1OL    H16S 3317   3.875   0.590   5.648
    1OL    C117 3318   3.867   0.439   5.493
    1OL    H17R 3319   3.866   0.521   5.421
    1OL    H17S 3320   3.765   0.401   5.503
    1OL    C118 3321   3.955   0.326   5.437
    1OL    H18R 3322   3.945   0.236   5.498
    1OL    H18S 3323   4.060   0.356   5.435
    1OL    H18T 3324   3.923   0.304   5.335
    1PA    C116 3325   4.676   4.245   4.925
    1PA    H16R 3326   4.655   4.139   4.944
    1PA    H16S 3327   4.687   4.259   4.817
    1PA    H16T 3328   4.591   4.304   4.959
    1PA    C115 3329   4.803   4.292   4.995
    1PA    H15R 3330   4.890   4.244   4.949
    1PA    H15S 3331   4.814   4.399   4.974
    1PA    C114 3332   4.809   4.271   5.148
    1PA    H14R 3333   4.910   4.238   5.172
    1PA    H14S 3334   4.794   4.367   5.197
    1PA    C113 3335   4.712   4.169   5.209
    1PA    H13R 3336   4.615   4.216   5.224
    1PA    H13S 3337   4.698   4.084   5.142
    1PA    C112 3338   4.763   4.115   5.344
    1PA    H12R 3339   4.685   4.050   5.387
    1PA    H12S 3340   4.852   4.053   5.329
    1PA    C111 3341   4.800   4.225   5.444
    1PA    H11R 3342   4.901   4.261   5.427
    1PA    H11S 3343   4.732   4.309   5.429
    1PA    C110 3344   4.782   4.180   5.589
    1PA    H10R 3345   4.804   4.264   5.655
    1PA    H10S 3346   4.677   4.156   5.602
    1PA     C19 3347   4.867   4.059   5.634
    1PA     H9R 3348   4.887   3.992   5.551
    1PA     H9S 3349   4.963   4.094   5.672
    1PA     C18 3350   4.794   3.979   5.744
    1PA     H8R 3351   4.707   3.931   5.700
    1PA     H8S 3352   4.859   3.900   5.782
    1PA     C17 3353   4.748   4.069   5.860
    1PA     H7R 3354   4.835   4.105   5.915
    1PA     H7S 3355   4.696   4.157   5.822
    1PA     C16 3356   4.650   3.999   5.956
    1PA     H6R 3357   4.566   3.960   5.899
    1PA     H6S 3358   4.698   3.916   6.007
    1PA     C15 3359   4.598   4.102   6.057
    1PA     H5R 3360   4.564   4.191   6.004
    1PA     H5S 3361   4.510   4.062   6.109
    1PA     C14 3362   4.702   4.141   6.163
    1PA     H4R 3363   4.749   4.050   6.202
    1PA     H4S 3364   4.781   4.202   6.119
    1PA     C13 3365   4.637   4.215   6.281
    1PA     H3R 3366   4.571   4.145   6.332
    1PA     H3S 3367   4.716   4.241   6.352
    1PA     C12 3368   4.556   4.342   6.245
    1PA     H2R 3369   4.623   4.423   6.216
    1PA     H2S 3370   4.488   4.323   6.161
    1PC     C11 3371   4.471   4.388   6.361
    1PC     O12 3372   4.367   4.448   6.349
    1PC     O11 3373   4.520   4.347   6.480
    1PC      C1 3374   4.440   4.363   6.599
    1PC      HR 3375   4.423   4.469   6.619
    1PC      HS 3376   4.344   4.313   6.579
    1PC      C2 3377   4.512   4.293   6.718
    1PC      HX 3378   4.501   4.185   6.710
    1PC      C3 3379   4.456   4.339   6.855
    1PC      HA 3380   4.441   4.447   6.852
    1PC      HB 3381   4.362   4.288   6.877
    1PC     O31 3382   4.551   4.309   6.960
    1PC     P31 3383   4.551   4.387   7.100
    1PC     O32 3384   4.630   4.284   7.192
    1PC     C31 3385   4.582   4.152   7.214
    1PC     H1A 3386   4.621   4.119   7.310
    1PC     H1B 3387   4.472   4.152   7.218
    1PC     C32 3388   4.633   4.058   7.103
    1PC     H2A 3389   4.611   3.955   7.132
    1PC     H2B 3390   4.579   4.080   7.010
    1PC     N31 3391   4.780   4.061   7.067
    1PC     C33 3392   4.868   4.085   7.185
    1PC     H3A 3393   4.972   4.085   7.153
    1PC     H3B 3394   4.843   4.184   7.225
    1PC     H3C 3395   4.849   4.008   7.260
    1PC     C34 3396   4.816   3.932   7.001
    1PC     H4A 3397   4.754   3.919   6.912
    1PC     H4B 3398   4.921   3.934   6.972
    1PC     H4C 3399   4.798   3.849   7.070
    1PC     C35 3400   4.807   4.169   6.968
    1PC     H5A 3401   4.737   4.158   6.886
    1PC     H5B 3402   4.910   4.163   6.933
    1PC     H5C 3403   4.789   4.265   7.017
    1PC     O33 3404   4.639   4.505   7.090
    1PC     O34 3405   4.414   4.399   7.151
    1PC     O21 3406   4.651   4.332   6.716
    1PC     C21 3407   4.741   4.251   6.659
    1PC     O22 3408   4.728   4.131   6.649
    1OL     C12 3409   4.863   4.327   6.614
    1OL     H2R 3410   4.921   4.265   6.546
    1OL     H2S 3411   4.924   4.350   6.702
    1OL     C13 3412   4.819   4.458   6.545
    1OL     H3R 3413   4.761   4.518   6.615
    1OL     H3S 3414   4.753   4.435   6.461
    1OL     C14 3415   4.932   4.546   6.497
    1OL     H4R 3416   5.001   4.567   6.579
    1OL     H4S 3417   4.882   4.640   6.471
    1OL     C15 3418   5.011   4.495   6.375
    1OL     H5R 3419   5.051   4.395   6.396
    1OL     H5S 3420   5.096   4.561   6.358
    1OL     C16 3421   4.927   4.489   6.245
    1OL     H6R 3422   4.884   4.587   6.225
    1OL     H6S 3423   4.844   4.419   6.258
    1OL     C17 3424   5.012   4.444   6.125
    1OL     H7R 3425   5.058   4.349   6.149
    1OL     H7S 3426   5.092   4.516   6.110
    1OL     C18 3427   4.934   4.427   5.993
    1OL     H8R 3428   4.860   4.348   6.003
    1OL     H8S 3429   5.006   4.394   5.917
    1OL     C19 3430   4.870   4.556   5.945
    1OL     H9R 3431   4.929   4.645   5.965
    1OL    C110 3432   4.752   4.567   5.885
    1OL    H10R 3433   4.718   4.666   5.856
    1OL    C111 3434   4.656   4.455   5.852
    1OL    H11R 3435   4.667   4.373   5.923
    1OL    H11S 3436   4.678   4.418   5.752
    1OL    C112 3437   4.511   4.506   5.855
    1OL    H12R 3438   4.497   4.577   5.773
    1OL    H12S 3439   4.494   4.560   5.948
    1OL    C113 3440   4.404   4.396   5.845
    1OL    H13R 3441   4.305   4.441   5.854
    1OL    H13S 3442   4.415   4.328   5.930
    1OL    C114 3443   4.408   4.315   5.714
    1OL    H14R 3444   4.507   4.272   5.701
    1OL    H14S 3445   4.388   4.381   5.629
    1OL    C115 3446   4.304   4.201   5.718
    1OL    H15R 3447   4.204   4.243   5.723
    1OL    H15S 3448   4.320   4.144   5.810
    1OL    C116 3449   4.316   4.104   5.599
    1OL    H16R 3450   4.264   4.011   5.624
    1OL    H16S 3451   4.421   4.078   5.585
    1OL    C117 3452   4.258   4.160   5.468
    1OL    H17R 3453   4.294   4.099   5.385
    1OL    H17S 3454   4.293   4.262   5.452
    1OL    C118 3455   4.105   4.157   5.468
    1OL    H18R 3456   4.070   4.054   5.484
    1OL    H18S 3457   4.066   4.191   5.371
    1OL    H18T 3458   4.063   4.220   5.546
    1PA    C116 3459   2.642   5.227   5.177
    1PA    H16R 3460   2.602   5.211   5.277
    1PA    H16S 3461   2.661   5.129   5.131
    1PA    H16T 3462   2.567   5.278   5.117
    1PA    C115 3463   2.773   5.309   5.183
    1PA    H15R 3464   2.842   5.262   5.253
    1PA    H15S 3465   2.822   5.306   5.085
    1PA    C114 3466   2.747   5.455   5.222
    1PA    H14R 3467   2.830   5.518   5.187
    1PA    H14S 3468   2.658   5.491   5.171
    1PA    C113 3469   2.730   5.472   5.374
    1PA    H13R 3470   2.661   5.554   5.394
    1PA    H13S 3471   2.684   5.382   5.415
    1PA    C112 3472   2.864   5.502   5.443
    1PA    H12R 3473   2.946   5.451   5.391
    1PA    H12S 3474   2.883   5.609   5.436
    1PA    C111 3475   2.865   5.459   5.591
    1PA    H11R 3476   2.950   5.508   5.639
    1PA    H11S 3477   2.774   5.495   5.639
    1PA    C110 3478   2.878   5.306   5.608
    1PA    H10R 3479   2.805   5.256   5.544
    1PA    H10S 3480   2.977   5.275   5.575
    1PA     C19 3481   2.855   5.261   5.753
    1PA     H9R 3482   2.755   5.293   5.785
    1PA     H9S 3483   2.857   5.152   5.757
    1PA     C18 3484   2.960   5.317   5.850
    1PA     H8R 3485   3.057   5.274   5.825
    1PA     H8S 3486   2.968   5.425   5.837
    1PA     C17 3487   2.929   5.289   5.998
    1PA     H7R 3488   2.831   5.331   6.024
    1PA     H7S 3489   2.926   5.182   6.017
    1PA     C16 3490   3.037   5.355   6.085
    1PA     H6R 3491   3.132   5.308   6.060
    1PA     H6S 3492   3.044   5.461   6.058
    1PA     C15 3493   3.016   5.344   6.237
    1PA     H5R 3494   2.913   5.368   6.263
    1PA     H5S 3495   3.035   5.240   6.266
    1PA     C14 3496   3.113   5.438   6.313
    1PA     H4R 3497   3.214   5.415   6.280
    1PA     H4S 3498   3.093   5.541   6.285
    1PA     C13 3499   3.112   5.426   6.466
    1PA     H3R 3500   3.145   5.325   6.490
    1PA     H3S 3501   3.189   5.493   6.506
    1PA     C12 3502   2.979   5.456   6.539
    1PA     H2R 3503   2.950   5.561   6.528
    1PA     H2S 3504   2.898   5.397   6.496
    1PC     C11 3505   2.989   5.425   6.688
    1PC     O12 3506   3.094   5.407   6.746
    1PC     O11 3507   2.868   5.423   6.749
    1PC      C1 3508   2.860   5.373   6.887
    1PC      HR 3509   2.755   5.370   6.916
    1PC      HS 3510   2.897   5.270   6.890
    1PC      C2 3511   2.941   5.458   6.991
    1PC      HX 3512   3.038   5.408   7.003
    1PC      C3 3513   2.873   5.467   7.129
    1PC      HA 3514   2.805   5.382   7.140
    1PC      HB 3515   2.947   5.461   7.209
    1PC     O31 3516   2.798   5.591   7.148
    1PC     P31 3517   2.673   5.600   7.247
    1PC     O32 3518   2.561   5.665   7.155
    1PC     C31 3519   2.505   5.593   7.044
    1PC     H1A 3520   2.485   5.490   7.073
    1PC     H1B 3521   2.410   5.640   7.017
    1PC     C32 3522   2.604   5.600   6.926
    1PC     H2A 3523   2.699   5.556   6.956
    1PC     H2B 3524   2.564   5.543   6.842
    1PC     N31 3525   2.640   5.735   6.870
    1PC     C33 3526   2.517   5.802   6.824
    1PC     H3A 3527   2.463   5.736   6.756
    1PC     H3B 3528   2.455   5.827   6.910
    1PC     H3C 3529   2.549   5.891   6.771
    1PC     C34 3530   2.710   5.826   6.968
    1PC     H4A 3531   2.799   5.774   7.006
    1PC     H4B 3532   2.737   5.919   6.919
    1PC     H4C 3533   2.644   5.845   7.052
    1PC     C35 3534   2.731   5.718   6.753
    1PC     H5A 3535   2.755   5.817   6.714
    1PC     H5B 3536   2.679   5.658   6.678
    1PC     H5C 3537   2.821   5.667   6.787
    1PC     O33 3538   2.632   5.462   7.282
    1PC     O34 3539   2.706   5.699   7.351
    1PC     O21 3540   2.963   5.592   6.937
    1PC     C21 3541   3.068   5.658   6.986
    1PC     O22 3542   3.128   5.630   7.088
    1OL     C12 3543   3.113   5.769   6.895
    1OL     H2R 3544   3.202   5.813   6.940
    1OL     H2S 3545   3.034   5.845   6.892
    1OL     C13 3546   3.147   5.723   6.752
    1OL     H3R 3547   3.055   5.703   6.698
    1OL     H3S 3548   3.204   5.630   6.756
    1OL     C14 3549   3.232   5.828   6.677
    1OL     H4R 3550   3.330   5.833   6.726
    1OL     H4S 3551   3.187   5.926   6.688
    1OL     C15 3552   3.254   5.801   6.527
    1OL     H5R 3553   3.304   5.705   6.514
    1OL     H5S 3554   3.321   5.878   6.488
    1OL     C16 3555   3.125   5.803   6.442
    1OL     H6R 3556   3.071   5.709   6.458
    1OL     H6S 3557   3.153   5.805   6.337
    1OL     C17 3558   3.030   5.921   6.472
    1OL     H7R 3559   3.086   6.015   6.460
    1OL     H7S 3560   2.996   5.917   6.575
    1OL     C18 3561   2.907   5.924   6.380
    1OL     H8R 3562   2.939   5.928   6.276
    1OL     H8S 3563   2.851   6.017   6.399
    1OL     C19 3564   2.814   5.807   6.405
    1OL     H9R 3565   2.753   5.814   6.494
    1OL    C110 3566   2.799   5.701   6.325
    1OL    H10R 3567   2.728   5.623   6.351
    1OL    C111 3568   2.874   5.679   6.195
    1OL    H11R 3569   2.873   5.573   6.171
    1OL    H11S 3570   2.978   5.710   6.206
    1OL    C112 3571   2.810   5.757   6.080
    1OL    H12R 3572   2.810   5.863   6.106
    1OL    H12S 3573   2.706   5.726   6.068
    1OL    C113 3574   2.885   5.738   5.947
    1OL    H13R 3575   2.871   5.636   5.911
    1OL    H13S 3576   2.992   5.754   5.963
    1OL    C114 3577   2.831   5.838   5.844
    1OL    H14R 3578   2.853   5.939   5.879
    1OL    H14S 3579   2.723   5.827   5.837
    1OL    C115 3580   2.889   5.822   5.704
    1OL    H15R 3581   2.839   5.895   5.641
    1OL    H15S 3582   2.863   5.723   5.665
    1OL    C116 3583   3.042   5.841   5.696
    1OL    H16R 3584   3.091   5.765   5.757
    1OL    H16S 3585   3.070   5.939   5.736
    1OL    C117 3586   3.093   5.828   5.552
    1OL    H17R 3587   3.062   5.730   5.513
    1OL    H17S 3588   3.203   5.829   5.552
    1OL    C118 3589   3.041   5.939   5.459
    1OL    H18R 3590   3.047   5.910   5.353
    1OL    H18S 3591   3.100   6.029   5.472
    1OL    H18T 3592   2.936   5.960   5.477
    1PA    C116 3593   1.093   2.697   5.520
    1PA    H16R 3594   0.990   2.709   5.485
    1PA    H16S 3595   1.092   2.644   5.615
    1PA    H16T 3596   1.147   2.637   5.447
    1PA    C115 3597   1.163   2.834   5.536
    1PA    H15R 3598   1.264   2.819   5.574
    1PA    H15S 3599   1.171   2.881   5.438
    1PA    C114 3600   1.090   2.932   5.629
    1PA    H14R 3601   1.084   2.891   5.730
    1PA    H14S 3602   1.149   3.024   5.634
    1PA    C113 3603   0.950   2.965   5.575
    1PA    H13R 3604   0.956   2.974   5.467
    1PA    H13S 3605   0.881   2.883   5.597
    1PA    C112 3606   0.893   3.098   5.627
    1PA    H12R 3607   0.952   3.178   5.582
    1PA    H12S 3608   0.790   3.110   5.590
    1PA    C111 3609   0.894   3.115   5.780
    1PA    H11R 3610   0.998   3.115   5.815
    1PA    H11S 3611   0.852   3.213   5.806
    1PA    C110 3612   0.815   3.006   5.853
    1PA    H10R 3613   0.710   3.010   5.825
    1PA    H10S 3614   0.853   2.908   5.822
    1PA     C19 3615   0.830   3.022   6.006
    1PA     H9R 3616   0.935   3.036   6.031
    1PA     H9S 3617   0.777   3.111   6.038
    1PA     C18 3618   0.777   2.901   6.086
    1PA     H8R 3619   0.799   2.917   6.192
    1PA     H8S 3620   0.669   2.895   6.076
    1PA     C17 3621   0.838   2.767   6.043
    1PA     H7R 3622   0.811   2.691   6.117
    1PA     H7S 3623   0.796   2.736   5.947
    1PA     C16 3624   0.990   2.762   6.032
    1PA     H6R 3625   1.026   2.835   5.960
    1PA     H6S 3626   1.032   2.787   6.130
    1PA     C15 3627   1.033   2.621   5.989
    1PA     H5R 3628   1.004   2.548   6.064
    1PA     H5S 3629   0.983   2.594   5.896
    1PA     C14 3630   1.184   2.615   5.965
    1PA     H4R 3631   1.211   2.513   5.938
    1PA     H4S 3632   1.207   2.679   5.880
    1PA     C13 3633   1.270   2.659   6.083
    1PA     H3R 3634   1.370   2.672   6.043
    1PA     H3S 3635   1.237   2.755   6.123
    1PA     C12 3636   1.288   2.557   6.196
    1PA     H2R 3637   1.299   2.458   6.152
    1PA     H2S 3638   1.381   2.579   6.249
    1PC     C11 3639   1.177   2.557   6.297
    1PC     O12 3640   1.084   2.479   6.299
    1PC     O11 3641   1.200   2.648   6.391
    1PC      C1 3642   1.127   2.641   6.516
    1PC      HR 3643   1.033   2.695   6.506
    1PC      HS 3644   1.107   2.536   6.541
    1PC      C2 3645   1.216   2.703   6.625
    1PC      HX 3646   1.309   2.647   6.636
    1PC      C3 3647   1.141   2.698   6.759
    1PC      HA 3648   1.045   2.750   6.749
    1PC      HB 3649   1.122   2.594   6.787
    1PC     O31 3650   1.217   2.759   6.866
    1PC     P31 3651   1.160   2.890   6.939
    1PC     O32 3652   1.038   2.824   7.018
    1PC     C31 3653   1.055   2.774   7.150
    1PC     H1A 3654   0.979   2.698   7.169
    1PC     H1B 3655   1.154   2.728   7.159
    1PC     C32 3656   1.041   2.891   7.249
    1PC     H2A 3657   1.048   2.851   7.351
    1PC     H2B 3658   1.123   2.961   7.233
    1PC     N31 3659   0.914   2.972   7.245
    1PC     C33 3660   0.794   2.890   7.211
    1PC     H3A 3661   0.787   2.806   7.281
    1PC     H3B 3662   0.706   2.953   7.219
    1PC     H3C 3663   0.807   2.854   7.109
    1PC     C34 3664   0.893   3.031   7.380
    1PC     H4A 3665   0.892   2.952   7.455
    1PC     H4B 3666   0.974   3.101   7.400
    1PC     H4C 3667   0.797   3.085   7.380
    1PC     C35 3668   0.927   3.083   7.145
    1PC     H5A 3669   0.940   3.041   7.046
    1PC     H5B 3670   1.015   3.143   7.170
    1PC     H5C 3671   0.838   3.147   7.149
    1PC     O33 3672   1.257   2.935   7.041
    1PC     O34 3673   1.100   2.982   6.842
    1PC     O21 3674   1.243   2.840   6.586
    1PC     C21 3675   1.352   2.863   6.511
    1PC     O22 3676   1.445   2.786   6.499
    1OL     C12 3677   1.342   2.995   6.438
    1OL     H2R 3678   1.354   3.075   6.512
    1OL     H2S 3679   1.242   3.005   6.396
    1OL     C13 3680   1.448   3.012   6.326
    1OL     H3R 3681   1.546   2.995   6.371
    1OL     H3S 3682   1.446   3.115   6.291
    1OL     C14 3683   1.431   2.918   6.204
    1OL     H4R 3684   1.342   2.945   6.147
    1OL     H4S 3685   1.419   2.816   6.241
    1OL     C15 3686   1.556   2.923   6.114
    1OL     H5R 3687   1.639   2.901   6.182
    1OL     H5S 3688   1.570   3.024   6.074
    1OL     C16 3689   1.577   2.819   6.004
    1OL     H6R 3690   1.565   2.719   6.047
    1OL     H6S 3691   1.682   2.824   5.974
    1OL     C17 3692   1.494   2.836   5.876
    1OL     H7R 3693   1.506   2.937   5.838
    1OL     H7S 3694   1.387   2.823   5.898
    1OL     C18 3695   1.536   2.737   5.766
    1OL     H8R 3696   1.631   2.772   5.723
    1OL     H8S 3697   1.462   2.741   5.687
    1OL     C19 3698   1.557   2.594   5.816
    1OL     H9R 3699   1.647   2.580   5.876
    1OL    C110 3700   1.480   2.488   5.792
    1OL    H10R 3701   1.509   2.392   5.833
    1OL    C111 3702   1.354   2.487   5.709
    1OL    H11R 3703   1.316   2.588   5.692
    1OL    H11S 3704   1.275   2.433   5.763
    1OL    C112 3705   1.372   2.414   5.575
    1OL    H12R 3706   1.279   2.423   5.518
    1OL    H12S 3707   1.388   2.308   5.593
    1OL    C113 3708   1.489   2.468   5.492
    1OL    H13R 3709   1.506   2.407   5.403
    1OL    H13S 3710   1.579   2.460   5.552
    1OL    C114 3711   1.465   2.615   5.453
    1OL    H14R 3712   1.542   2.675   5.501
    1OL    H14S 3713   1.369   2.647   5.492
    1OL    C115 3714   1.466   2.645   5.303
    1OL    H15R 3715   1.409   2.570   5.248
    1OL    H15S 3716   1.569   2.639   5.265
    1OL    C116 3717   1.406   2.784   5.278
    1OL    H16R 3718   1.299   2.780   5.302
    1OL    H16S 3719   1.411   2.806   5.171
    1OL    C117 3720   1.473   2.897   5.360
    1OL    H17R 3721   1.581   2.896   5.344
    1OL    H17S 3722   1.457   2.880   5.467
    1OL    C118 3723   1.418   3.037   5.327
    1OL    H18R 3724   1.309   3.038   5.332
    1OL    H18S 3725   1.449   3.068   5.227
    1OL    H18T 3726   1.456   3.110   5.398
    1PA    C116 3727   1.515   0.316   5.171
    1PA    H16R 3728   1.515   0.401   5.101
    1PA    H16S 3729   1.425   0.322   5.232
    1PA    H16T 3730   1.511   0.224   5.113
    1PA    C115 3731   1.641   0.317   5.259
    1PA    H15R 3732   1.636   0.230   5.325
    1PA    H15S 3733   1.730   0.308   5.196
    1PA    C114 3734   1.651   0.446   5.343
    1PA    H14R 3735   1.669   0.530   5.276
    1PA    H14S 3736   1.555   0.463   5.393
    1PA    C113 3737   1.762   0.445   5.450
    1PA    H13R 3738   1.858   0.426   5.402
    1PA    H13S 3739   1.767   0.544   5.495
    1PA    C112 3740   1.737   0.339   5.560
    1PA    H12R 3741   1.638   0.353   5.603
    1PA    H12S 3742   1.739   0.240   5.514
    1PA    C111 3743   1.843   0.342   5.672
    1PA    H11R 3744   1.835   0.249   5.729
    1PA    H11S 3745   1.942   0.343   5.627
    1PA    C110 3746   1.828   0.460   5.769
    1PA    H10R 3747   1.836   0.555   5.714
    1PA    H10S 3748   1.730   0.457   5.817
    1PA     C19 3749   1.939   0.454   5.875
    1PA     H9R 3750   1.931   0.361   5.931
    1PA     H9S 3751   2.035   0.448   5.823
    1PA     C18 3752   1.943   0.575   5.972
    1PA     H8R 3753   2.039   0.572   6.025
    1PA     H8S 3754   1.942   0.668   5.914
    1PA     C17 3755   1.832   0.580   6.078
    1PA     H7R 3756   1.854   0.661   6.147
    1PA     H7S 3757   1.736   0.602   6.030
    1PA     C16 3758   1.821   0.447   6.155
    1PA     H6R 3759   1.777   0.373   6.088
    1PA     H6S 3760   1.922   0.411   6.179
    1PA     C15 3761   1.740   0.456   6.285
    1PA     H5R 3762   1.808   0.464   6.370
    1PA     H5S 3763   1.676   0.544   6.284
    1PA     C14 3764   1.651   0.331   6.299
    1PA     H4R 3765   1.579   0.335   6.217
    1PA     H4S 3766   1.711   0.241   6.283
    1PA     C13 3767   1.571   0.319   6.430
    1PA     H3R 3768   1.514   0.411   6.443
    1PA     H3S 3769   1.498   0.239   6.419
    1PA     C12 3770   1.653   0.292   6.557
    1PA     H2R 3771   1.732   0.366   6.569
    1PA     H2S 3772   1.586   0.302   6.643
    1PC     C11 3773   1.715   0.154   6.562
    1PC     O12 3774   1.775   0.099   6.472
    1PC     O11 3775   1.701   0.097   6.685
    1PC      C1 3776   1.802   0.000   6.724
    1PC      HR 3777   1.760  -0.066   6.800
    1PC      HS 3778   1.835  -0.060   6.639
    1PC      C2 3779   1.922   0.077   6.785
    1PC      HX 3780   2.006   0.010   6.802
    1PC      C3 3781   1.879   0.141   6.919
    1PC      HA 3782   1.787   0.197   6.902
    1PC      HB 3783   1.860   0.061   6.992
    1PC     O31 3784   1.979   0.229   6.974
    1PC     P31 3785   1.961   0.388   6.974
    1PC     O32 3786   1.819   0.403   7.049
    1PC     C31 3787   1.804   0.361   7.185
    1PC     H1A 3788   1.842   0.259   7.197
    1PC     H1B 3789   1.863   0.428   7.248
    1PC     C32 3790   1.654   0.370   7.223
    1PC     H2A 3791   1.644   0.336   7.326
    1PC     H2B 3792   1.623   0.474   7.218
    1PC     N31 3793   1.553   0.290   7.143
    1PC     C33 3794   1.537   0.344   7.004
    1PC     H3A 3795   1.459   0.287   6.953
    1PC     H3B 3796   1.511   0.449   7.011
    1PC     H3C 3797   1.633   0.333   6.952
    1PC     C34 3798   1.588   0.145   7.136
    1PC     H4A 3799   1.691   0.136   7.103
    1PC     H4B 3800   1.576   0.102   7.235
    1PC     H4C 3801   1.520   0.096   7.066
    1PC     C35 3802   1.420   0.301   7.211
    1PC     H5A 3803   1.431   0.260   7.312
    1PC     H5B 3804   1.346   0.243   7.156
    1PC     H5C 3805   1.390   0.405   7.216
    1PC     O33 3806   2.066   0.446   7.060
    1PC     O34 3807   1.942   0.436   6.836
    1PC     O21 3808   1.956   0.183   6.694
    1PC     C21 3809   2.079   0.200   6.647
    1PC     O22 3810   2.173   0.126   6.670
    1OL     C12 3811   2.080   0.321   6.557
    1OL     H2R 3812   2.084   0.409   6.621
    1OL     H2S 3813   1.986   0.327   6.502
    1OL     C13 3814   2.199   0.325   6.460
    1OL     H3R 3815   2.285   0.272   6.501
    1OL     H3S 3816   2.225   0.431   6.453
    1OL     C14 3817   2.173   0.283   6.315
    1OL     H4R 3818   2.268   0.288   6.262
    1OL     H4S 3819   2.107   0.357   6.269
    1OL     C15 3820   2.114   0.143   6.292
    1OL     H5R 3821   2.017   0.134   6.341
    1OL     H5S 3822   2.181   0.068   6.334
    1OL     C16 3823   2.099   0.123   6.140
    1OL     H6R 3824   2.193   0.149   6.091
    1OL     H6S 3825   2.023   0.192   6.102
    1OL     C17 3826   2.061  -0.020   6.101
    1OL     H7R 3827   1.971  -0.050   6.154
    1OL     H7S 3828   2.142  -0.088   6.131
    1OL     C18 3829   2.038  -0.032   5.949
    1OL     H8R 3830   2.124   0.009   5.896
    1OL     H8S 3831   1.951   0.027   5.923
    1OL     C19 3832   2.018  -0.177   5.910
    1OL     H9R 3833   2.006  -0.246   5.993
    1OL    C110 3834   2.011  -0.222   5.786
    1OL    H10R 3835   1.995  -0.328   5.769
    1OL    C111 3836   2.023  -0.139   5.660
    1OL    H11R 3837   2.057  -0.203   5.578
    1OL    H11S 3838   2.097  -0.059   5.671
    1OL    C112 3839   1.886  -0.078   5.625
    1OL    H12R 3840   1.871   0.011   5.687
    1OL    H12S 3841   1.810  -0.150   5.654
    1OL    C113 3842   1.863  -0.042   5.477
    1OL    H13R 3843   1.947   0.015   5.437
    1OL    H13S 3844   1.774   0.022   5.471
    1OL    C114 3845   1.839  -0.169   5.392
    1OL    H14R 3846   1.836  -0.256   5.459
    1OL    H14S 3847   1.922  -0.185   5.324
    1OL    C115 3848   1.706  -0.168   5.314
    1OL    H15R 3849   1.625  -0.141   5.381
    1OL    H15S 3850   1.686  -0.270   5.278
    1OL    C116 3851   1.701  -0.072   5.195
    1OL    H16R 3852   1.791  -0.086   5.135
    1OL    H16S 3853   1.701   0.031   5.231
    1OL    C117 3854   1.577  -0.096   5.106
    1OL    H17R 3855   1.587  -0.194   5.058
    1OL    H17S 3856   1.576  -0.021   5.026
    1OL    C118 3857   1.442  -0.093   5.179
    1OL    H18R 3858   1.437  -0.169   5.257
    1OL    H18S 3859   1.362  -0.114   5.107
    1OL    H18T 3860   1.425   0.005   5.223
    1PA    C116 3861   0.067   1.596   5.264
    1PA    H16R 3862   0.087   1.687   5.207
    1PA    H16S 3863  -0.004   1.534   5.208
    1PA    H16T 3864   0.160   1.540   5.276
    1PA    C115 3865   0.011   1.630   5.403
    1PA    H15R 3866  -0.086   1.681   5.392
    1PA    H15S 3867  -0.007   1.538   5.458
    1PA    C114 3868   0.108   1.719   5.481
    1PA    H14R 3869   0.195   1.659   5.510
    1PA    H14S 3870   0.144   1.799   5.416
    1PA    C113 3871   0.046   1.782   5.605
    1PA    H13R 3872   0.120   1.845   5.656
    1PA    H13S 3873  -0.032   1.849   5.568
    1PA    C112 3874  -0.018   1.687   5.708
    1PA    H12R 3875  -0.076   1.746   5.779
    1PA    H12S 3876  -0.086   1.618   5.659
    1PA    C111 3877   0.090   1.610   5.785
    1PA    H11R 3878   0.150   1.553   5.714
    1PA    H11S 3879   0.156   1.682   5.835
    1PA    C110 3880   0.031   1.515   5.889
    1PA    H10R 3881  -0.040   1.568   5.953
    1PA    H10S 3882  -0.026   1.437   5.837
    1PA     C19 3883   0.139   1.449   5.976
    1PA     H9R 3884   0.095   1.364   6.027
    1PA     H9S 3885   0.220   1.410   5.913
    1PA     C18 3886   0.198   1.543   6.082
    1PA     H8R 3887   0.251   1.626   6.035
    1PA     H8S 3888   0.114   1.586   6.138
    1PA     C17 3889   0.294   1.466   6.175
    1PA     H7R 3890   0.260   1.363   6.186
    1PA     H7S 3891   0.393   1.462   6.129
    1PA     C16 3892   0.306   1.526   6.317
    1PA     H6R 3893   0.381   1.468   6.371
    1PA     H6S 3894   0.343   1.629   6.311
    1PA     C15 3895   0.172   1.523   6.393
    1PA     H5R 3896   0.100   1.587   6.342
    1PA     H5S 3897   0.130   1.422   6.390
    1PA     C14 3898   0.182   1.571   6.539
    1PA     H4R 3899   0.213   1.676   6.536
    1PA     H4S 3900   0.082   1.568   6.583
    1PA     C13 3901   0.279   1.493   6.629
    1PA     H3R 3902   0.246   1.388   6.633
    1PA     H3S 3903   0.379   1.494   6.587
    1PA     C12 3904   0.284   1.548   6.773
    1PA     H2R 3905   0.184   1.550   6.816
    1PA     H2S 3906   0.344   1.481   6.835
    1PC     C11 3907   0.343   1.687   6.784
    1PC     O12 3908   0.386   1.752   6.691
    1PC     O11 3909   0.347   1.730   6.912
    1PC      C1 3910   0.370   1.872   6.936
    1PC      HR 3911   0.430   1.881   7.027
    1PC      HS 3912   0.427   1.916   6.854
    1PC      C2 3913   0.238   1.952   6.956
    1PC      HX 3914   0.265   2.058   6.950
    1PC      C3 3915   0.171   1.927   7.093
    1PC      HA 3916   0.239   1.955   7.173
    1PC      HB 3917   0.083   1.991   7.100
    1PC     O31 3918   0.135   1.788   7.115
    1PC     P31 3919  -0.010   1.747   7.169
    1PC     O32 3920  -0.087   1.693   7.040
    1PC     C31 3921  -0.230   1.702   7.032
    1PC     H1A 3922  -0.271   1.752   7.120
    1PC     H1B 3923  -0.255   1.763   6.944
    1PC     C32 3924  -0.289   1.561   7.018
    1PC     H2A 3925  -0.398   1.569   7.016
    1PC     H2B 3926  -0.255   1.517   6.925
    1PC     N31 3927  -0.258   1.460   7.127
    1PC     C33 3928  -0.120   1.406   7.111
    1PC     H3A 3929  -0.048   1.487   7.125
    1PC     H3B 3930  -0.103   1.328   7.186
    1PC     H3C 3931  -0.108   1.365   7.011
    1PC     C34 3932  -0.282   1.514   7.263
    1PC     H4A 3933  -0.213   1.597   7.281
    1PC     H4B 3934  -0.385   1.550   7.269
    1PC     H4C 3935  -0.266   1.434   7.336
    1PC     C35 3936  -0.348   1.344   7.114
    1PC     H5A 3937  -0.333   1.278   7.200
    1PC     H5B 3938  -0.318   1.292   7.022
    1PC     H5C 3939  -0.452   1.378   7.110
    1PC     O33 3940   0.004   1.635   7.265
    1PC     O34 3941  -0.083   1.867   7.214
    1PC     O21 3942   0.147   1.922   6.847
    1PC     C21 3943   0.051   2.011   6.817
    1PC     O22 3944   0.025   2.109   6.885
    1OL     C12 3945  -0.020   1.987   6.687
    1OL     H2R 3946  -0.015   2.079   6.628
    1OL     H2S 3947  -0.125   1.966   6.709
    1OL     C13 3948   0.040   1.871   6.606
    1OL     H3R 3949   0.037   1.781   6.667
    1OL     H3S 3950   0.144   1.892   6.582
    1OL     C14 3951  -0.038   1.844   6.477
    1OL     H4R 3952  -0.144   1.830   6.501
    1OL     H4S 3953  -0.003   1.750   6.434
    1OL     C15 3954  -0.024   1.954   6.371
    1OL     H5R 3955   0.081   1.974   6.352
    1OL     H5S 3956  -0.069   2.047   6.406
    1OL     C16 3957  -0.093   1.905   6.242
    1OL     H6R 3958  -0.185   1.852   6.269
    1OL     H6S 3959  -0.027   1.831   6.195
    1OL     C17 3960  -0.132   2.013   6.140
    1OL     H7R 3961  -0.056   2.090   6.127
    1OL     H7S 3962  -0.219   2.066   6.179
    1OL     C18 3963  -0.164   1.946   6.005
    1OL     H8R 3964  -0.186   1.840   6.020
    1OL     H8S 3965  -0.076   1.950   5.940
    1OL     C19 3966  -0.283   2.008   5.938
    1OL     H9R 3967  -0.379   1.970   5.971
    1OL    C110 3968  -0.279   2.101   5.844
    1OL    H10R 3969  -0.374   2.134   5.801
    1OL    C111 3970  -0.156   2.165   5.784
    1OL    H11R 3971  -0.076   2.173   5.858
    1OL    H11S 3972  -0.180   2.266   5.751
    1OL    C112 3973  -0.109   2.081   5.664
    1OL    H12R 3974  -0.087   1.982   5.704
    1OL    H12S 3975  -0.018   2.123   5.621
    1OL    C113 3976  -0.220   2.073   5.557
    1OL    H13R 3977  -0.231   2.175   5.519
    1OL    H13S 3978  -0.314   2.046   5.606
    1OL    C114 3979  -0.212   1.978   5.437
    1OL    H14R 3980  -0.308   1.983   5.386
    1OL    H14S 3981  -0.205   1.874   5.471
    1OL    C115 3982  -0.102   2.010   5.334
    1OL    H15R 3983  -0.004   1.990   5.377
    1OL    H15S 3984  -0.107   2.115   5.307
    1OL    C116 3985  -0.123   1.924   5.207
    1OL    H16R 3986  -0.223   1.942   5.166
    1OL    H16S 3987  -0.118   1.818   5.232
    1OL    C117 3988  -0.021   1.955   5.096
    1OL    H17R 3989   0.080   1.936   5.133
    1OL    H17S 3990  -0.028   2.061   5.070
    1OL    C118 3991  -0.046   1.870   4.970
    1OL    H18R 3992   0.029   1.890   4.895
    1OL    H18S 3993  -0.144   1.893   4.928
    1OL    H18T 3994  -0.043   1.764   4.995
    1PA    C116 3995   1.366   4.124   5.425
    1PA    H16R 3996   1.438   4.198   5.459
    1PA    H16S 3997   1.388   4.098   5.321
    1PA    H16T 3998   1.376   4.034   5.486
    1PA    C115 3999   1.223   4.180   5.434
    1PA    H15R 4000   1.211   4.265   5.367
    1PA    H15S 4001   1.154   4.103   5.400
    1PA    C114 4002   1.181   4.222   5.577
    1PA    H14R 4003   1.073   4.231   5.577
    1PA    H14S 4004   1.208   4.144   5.648
    1PA    C113 4005   1.239   4.356   5.624
    1PA    H13R 4006   1.345   4.345   5.650
    1PA    H13S 4007   1.232   4.428   5.542
    1PA    C112 4008   1.158   4.409   5.744
    1PA    H12R 4009   1.054   4.424   5.712
    1PA    H12S 4010   1.156   4.333   5.822
    1PA    C111 4011   1.208   4.541   5.806
    1PA    H11R 4012   1.125   4.588   5.858
    1PA    H11S 4013   1.282   4.516   5.882
    1PA    C110 4014   1.267   4.642   5.705
    1PA    H10R 4015   1.360   4.604   5.663
    1PA    H10S 4016   1.196   4.652   5.622
    1PA     C19 4017   1.291   4.784   5.762
    1PA     H9R 4018   1.297   4.853   5.678
    1PA     H9S 4019   1.203   4.813   5.820
    1PA     C18 4020   1.418   4.804   5.847
    1PA     H8R 4021   1.506   4.776   5.789
    1PA     H8S 4022   1.428   4.911   5.868
    1PA     C17 4023   1.420   4.728   5.981
    1PA     H7R 4024   1.324   4.740   6.032
    1PA     H7S 4025   1.433   4.621   5.960
    1PA     C16 4026   1.534   4.770   6.075
    1PA     H6R 4027   1.628   4.767   6.019
    1PA     H6S 4028   1.519   4.873   6.107
    1PA     C15 4029   1.546   4.676   6.197
    1PA     H5R 4030   1.481   4.590   6.184
    1PA     H5S 4031   1.648   4.637   6.199
    1PA     C14 4032   1.515   4.741   6.334
    1PA     H4R 4033   1.580   4.828   6.349
    1PA     H4S 4034   1.412   4.777   6.336
    1PA     C13 4035   1.537   4.640   6.449
    1PA     H3R 4036   1.454   4.568   6.449
    1PA     H3S 4037   1.627   4.582   6.427
    1PA     C12 4038   1.553   4.699   6.591
    1PA     H2R 4039   1.571   4.617   6.661
    1PA     H2S 4040   1.641   4.765   6.596
    1PC     C11 4041   1.434   4.777   6.640
    1PC     O12 4042   1.442   4.892   6.677
    1PC     O11 4043   1.325   4.700   6.646
    1PC      C1 4044   1.201   4.751   6.705
    1PC      HR 4045   1.210   4.856   6.734
    1PC      HS 4046   1.124   4.744   6.628
    1PC      C2 4047   1.162   4.664   6.827
    1PC      HX 4048   1.060   4.687   6.859
    1PC      C3 4049   1.260   4.691   6.944
    1PC      HA 4050   1.360   4.654   6.917
    1PC      HB 4051   1.267   4.799   6.958
    1PC     O31 4052   1.218   4.634   7.071
    1PC     P31 4053   1.227   4.477   7.109
    1PC     O32 4054   1.346   4.417   7.019
    1PC     C31 4055   1.484   4.428   7.059
    1PC     H1A 4056   1.522   4.525   7.025
    1PC     H1B 4057   1.495   4.423   7.167
    1PC     C32 4058   1.561   4.312   6.992
    1PC     H2A 4059   1.531   4.307   6.887
    1PC     H2B 4060   1.668   4.332   6.998
    1PC     N31 4061   1.542   4.173   7.048
    1PC     C33 4062   1.401   4.127   7.045
    1PC     H3A 4063   1.342   4.194   7.109
    1PC     H3B 4064   1.364   4.131   6.942
    1PC     H3C 4065   1.397   4.025   7.084
    1PC     C34 4066   1.624   4.077   6.968
    1PC     H4A 4067   1.611   3.978   7.013
    1PC     H4B 4068   1.587   4.076   6.865
    1PC     H4C 4069   1.729   4.105   6.973
    1PC     C35 4070   1.590   4.166   7.189
    1PC     H5A 4071   1.694   4.196   7.194
    1PC     H5B 4072   1.582   4.062   7.222
    1PC     H5C 4073   1.527   4.230   7.252
    1PC     O33 4074   1.274   4.468   7.248
    1PC     O34 4075   1.102   4.406   7.075
    1PC     O21 4076   1.174   4.524   6.794
    1PC     C21 4077   1.086   4.469   6.709
    1PC     O22 4078   0.998   4.530   6.652
    1OL     C12 4079   1.111   4.321   6.690
    1OL     H2R 4080   1.055   4.268   6.767
    1OL     H2S 4081   1.217   4.301   6.707
    1OL     C13 4082   1.069   4.272   6.550
    1OL     H3R 4083   0.964   4.299   6.533
    1OL     H3S 4084   1.074   4.163   6.548
    1OL     C14 4085   1.153   4.328   6.434
    1OL     H4R 4086   1.153   4.437   6.436
    1OL     H4S 4087   1.106   4.299   6.340
    1OL     C15 4088   1.299   4.277   6.434
    1OL     H5R 4089   1.298   4.168   6.444
    1OL     H5S 4090   1.353   4.318   6.520
    1OL     C16 4091   1.373   4.314   6.304
    1OL     H6R 4092   1.374   4.422   6.292
    1OL     H6S 4093   1.318   4.273   6.220
    1OL     C17 4094   1.518   4.261   6.303
    1OL     H7R 4095   1.516   4.154   6.326
    1OL     H7S 4096   1.575   4.310   6.382
    1OL     C18 4097   1.590   4.281   6.168
    1OL     H8R 4098   1.692   4.241   6.178
    1OL     H8S 4099   1.598   4.388   6.147
    1OL     C19 4100   1.520   4.207   6.056
    1OL     H9R 4101   1.476   4.112   6.086
    1OL    C110 4102   1.505   4.247   5.931
    1OL    H10R 4103   1.450   4.184   5.861
    1OL    C111 4104   1.556   4.377   5.872
    1OL    H11R 4105   1.615   4.434   5.944
    1OL    H11S 4106   1.471   4.438   5.843
    1OL    C112 4107   1.639   4.353   5.745
    1OL    H12R 4108   1.579   4.298   5.672
    1OL    H12S 4109   1.726   4.291   5.769
    1OL    C113 4110   1.686   4.486   5.684
    1OL    H13R 4111   1.750   4.537   5.757
    1OL    H13S 4112   1.600   4.552   5.668
    1OL    C114 4113   1.764   4.470   5.553
    1OL    H14R 4114   1.850   4.404   5.570
    1OL    H14S 4115   1.804   4.567   5.524
    1OL    C115 4116   1.683   4.415   5.434
    1OL    H15R 4117   1.653   4.312   5.454
    1OL    H15S 4118   1.748   4.412   5.346
    1OL    C116 4119   1.558   4.499   5.400
    1OL    H16R 4120   1.586   4.604   5.390
    1OL    H16S 4121   1.485   4.491   5.481
    1OL    C117 4122   1.491   4.452   5.269
    1OL    H17R 4123   1.469   4.346   5.275
    1OL    H17S 4124   1.560   4.467   5.186
    1OL    C118 4125   1.361   4.529   5.240
    1OL    H18R 4126   1.380   4.636   5.229
    1OL    H18S 4127   1.289   4.515   5.321
    1OL    H18T 4128   1.315   4.492   5.147
    1PA    C116 4129   3.976   4.885   5.231
    1PA    H16R 4130   4.050   4.806   5.244
    1PA    H16S 4131   3.934   4.876   5.130
    1PA    H16T 4132   3.895   4.869   5.303
    1PA    C115 4133   4.040   5.024   5.250
    1PA    H15R 4134   4.093   5.052   5.159
    1PA    H15S 4135   3.960   5.097   5.260
    1PA    C114 4136   4.138   5.031   5.370
    1PA    H14R 4137   4.165   4.931   5.403
    1PA    H14S 4138   4.229   5.082   5.339
    1PA    C113 4139   4.073   5.109   5.485
    1PA    H13R 4140   4.054   5.210   5.449
    1PA    H13S 4141   3.978   5.061   5.509
    1PA    C112 4142   4.150   5.123   5.617
    1PA    H12R 4143   4.082   5.163   5.692
    1PA    H12S 4144   4.183   5.025   5.652
    1PA    C111 4145   4.270   5.218   5.605
    1PA    H11R 4146   4.345   5.169   5.543
    1PA    H11S 4147   4.241   5.311   5.556
    1PA    C110 4148   4.328   5.249   5.744
    1PA    H10R 4149   4.259   5.314   5.799
    1PA    H10S 4150   4.336   5.156   5.802
    1PA     C19 4151   4.465   5.315   5.734
    1PA     H9R 4152   4.529   5.259   5.666
    1PA     H9S 4153   4.454   5.415   5.692
    1PA     C18 4154   4.534   5.322   5.871
    1PA     H8R 4155   4.468   5.372   5.943
    1PA     H8S 4156   4.554   5.222   5.908
    1PA     C17 4157   4.664   5.400   5.857
    1PA     H7R 4158   4.727   5.350   5.783
    1PA     H7S 4159   4.641   5.500   5.819
    1PA     C16 4160   4.742   5.415   5.988
    1PA     H6R 4161   4.803   5.506   5.981
    1PA     H6S 4162   4.673   5.428   6.071
    1PA     C15 4163   4.834   5.297   6.017
    1PA     H5R 4164   4.775   5.207   6.038
    1PA     H5S 4165   4.893   5.273   5.929
    1PA     C14 4166   4.929   5.332   6.134
    1PA     H4R 4167   5.006   5.256   6.144
    1PA     H4S 4168   4.981   5.425   6.108
    1PA     C13 4169   4.862   5.353   6.270
    1PA     H3R 4170   4.941   5.348   6.346
    1PA     H3S 4171   4.823   5.454   6.274
    1PA     C12 4172   4.749   5.251   6.301
    1PA     H2R 4173   4.653   5.295   6.273
    1PA     H2S 4174   4.763   5.161   6.242
    1PC     C11 4175   4.742   5.206   6.444
    1PC     O12 4176   4.825   5.234   6.527
    1PC     O11 4177   4.636   5.126   6.470
    1PC      C1 4178   4.622   5.068   6.603
    1PC      HR 4179   4.557   4.980   6.595
    1PC      HS 4180   4.719   5.035   6.641
    1PC      C2 4181   4.558   5.167   6.703
    1PC      HX 4182   4.608   5.264   6.691
    1PC      C3 4183   4.576   5.124   6.851
    1PC      HA 4184   4.548   5.019   6.864
    1PC      HB 4185   4.681   5.137   6.878
    1PC     O31 4186   4.494   5.209   6.937
    1PC     P31 4187   4.541   5.257   7.083
    1PC     O32 4188   4.427   5.196   7.176
    1PC     C31 4189   4.431   5.058   7.214
    1PC     H1A 4190   4.490   5.000   7.143
    1PC     H1B 4191   4.477   5.050   7.313
    1PC     C32 4192   4.285   5.009   7.216
    1PC     H2A 4193   4.284   4.905   7.249
    1PC     H2B 4194   4.228   5.069   7.287
    1PC     N31 4195   4.207   5.013   7.086
    1PC     C33 4196   4.286   4.953   6.975
    1PC     H3A 4197   4.311   4.850   6.999
    1PC     H3B 4198   4.226   4.959   6.884
    1PC     H3C 4199   4.376   5.014   6.963
    1PC     C34 4200   4.081   4.936   7.103
    1PC     H4A 4201   4.106   4.838   7.146
    1PC     H4B 4202   4.015   4.991   7.170
    1PC     H4C 4203   4.035   4.926   7.005
    1PC     C35 4204   4.168   5.151   7.045
    1PC     H5A 4205   4.107   5.196   7.124
    1PC     H5B 4206   4.112   5.146   6.952
    1PC     H5C 4207   4.259   5.210   7.029
    1PC     O33 4208   4.667   5.190   7.120
    1PC     O34 4209   4.531   5.404   7.093
    1PC     O21 4210   4.417   5.177   6.671
    1PC     C21 4211   4.363   5.301   6.662
    1PC     O22 4212   4.422   5.405   6.676
    1OL     C12 4213   4.218   5.298   6.626
    1OL     H2R 4214   4.167   5.361   6.700
    1OL     H2S 4215   4.179   5.196   6.636
    1OL     C13 4216   4.193   5.355   6.486
    1OL     H3R 4217   4.287   5.387   6.440
    1OL     H3S 4218   4.133   5.446   6.496
    1OL     C14 4219   4.121   5.257   6.392
    1OL     H4R 4220   4.096   5.307   6.298
    1OL     H4S 4221   4.026   5.225   6.437
    1OL     C15 4222   4.201   5.130   6.362
    1OL     H5R 4223   4.137   5.066   6.302
    1OL     H5S 4224   4.225   5.077   6.454
    1OL     C16 4225   4.329   5.158   6.282
    1OL     H6R 4226   4.393   5.229   6.334
    1OL     H6S 4227   4.302   5.202   6.186
    1OL     C17 4228   4.408   5.028   6.258
    1OL     H7R 4229   4.341   4.947   6.232
    1OL     H7S 4230   4.460   4.999   6.349
    1OL     C18 4231   4.508   5.048   6.144
    1OL     H8R 4232   4.568   5.138   6.163
    1OL     H8S 4233   4.453   5.070   6.052
    1OL     C19 4234   4.599   4.929   6.130
    1OL     H9R 4235   4.662   4.907   6.216
    1OL    C110 4236   4.608   4.851   6.023
    1OL    H10R 4237   4.677   4.767   6.024
    1OL    C111 4238   4.528   4.867   5.895
    1OL    H11R 4239   4.442   4.934   5.909
    1OL    H11S 4240   4.488   4.771   5.864
    1OL    C112 4241   4.614   4.924   5.783
    1OL    H12R 4242   4.691   4.851   5.757
    1OL    H12S 4243   4.662   5.015   5.820
    1OL    C113 4244   4.534   4.958   5.657
    1OL    H13R 4245   4.456   5.031   5.681
    1OL    H13S 4246   4.485   4.869   5.618
    1OL    C114 4247   4.631   5.015   5.554
    1OL    H14R 4248   4.700   4.933   5.530
    1OL    H14S 4249   4.691   5.094   5.600
    1OL    C115 4250   4.573   5.068   5.422
    1OL    H15R 4251   4.523   5.164   5.438
    1OL    H15S 4252   4.501   4.997   5.381
    1OL    C116 4253   4.690   5.089   5.326
    1OL    H16R 4254   4.749   4.997   5.326
    1OL    H16S 4255   4.754   5.168   5.366
    1OL    C117 4256   4.652   5.119   5.181
    1OL    H17R 4257   4.558   5.174   5.179
    1OL    H17S 4258   4.636   5.026   5.127
    1OL    C118 4259   4.763   5.200   5.113
    1OL    H18R 4260   4.792   5.287   5.174
    1OL    H18S 4261   4.730   5.237   5.016
    1OL    H18T 4262   4.852   5.138   5.099
    1PA    C116 4263   4.114   5.502   5.261
    1PA    H16R 4264   4.145   5.397   5.262
    1PA    H16S 4265   4.186   5.559   5.319
    1PA    H16T 4266   4.116   5.537   5.157
    1PA    C115 4267   3.973   5.517   5.320
    1PA    H15R 4268   3.975   5.480   5.423
    1PA    H15S 4269   3.947   5.623   5.324
    1PA    C114 4270   3.866   5.444   5.238
    1PA    H14R 4271   3.858   5.492   5.140
    1PA    H14S 4272   3.902   5.343   5.219
    1PA    C113 4273   3.724   5.439   5.301
    1PA    H13R 4274   3.680   5.538   5.297
    1PA    H13S 4275   3.662   5.373   5.241
    1PA    C112 4276   3.720   5.390   5.448
    1PA    H12R 4277   3.764   5.467   5.511
    1PA    H12S 4278   3.616   5.380   5.482
    1PA    C111 4279   3.796   5.258   5.472
    1PA    H11R 4280   3.860   5.239   5.385
    1PA    H11S 4281   3.864   5.274   5.556
    1PA    C110 4282   3.718   5.128   5.495
    1PA    H10R 4283   3.618   5.132   5.453
    1PA    H10S 4284   3.769   5.046   5.443
    1PA     C19 4285   3.715   5.094   5.645
    1PA     H9R 4286   3.818   5.090   5.682
    1PA     H9S 4287   3.665   5.176   5.697
    1PA     C18 4288   3.646   4.961   5.677
    1PA     H8R 4289   3.540   4.970   5.656
    1PA     H8S 4290   3.686   4.882   5.614
    1PA     C17 4291   3.667   4.922   5.825
    1PA     H7R 4292   3.601   4.838   5.849
    1PA     H7S 4293   3.769   4.888   5.840
    1PA     C16 4294   3.639   5.040   5.920
    1PA     H6R 4295   3.719   5.113   5.912
    1PA     H6S 4296   3.546   5.089   5.890
    1PA     C15 4297   3.626   4.998   6.067
    1PA     H5R 4298   3.544   4.927   6.075
    1PA     H5S 4299   3.716   4.946   6.098
    1PA     C14 4300   3.601   5.119   6.158
    1PA     H4R 4301   3.691   5.180   6.160
    1PA     H4S 4302   3.520   5.181   6.117
    1PA     C13 4303   3.564   5.077   6.301
    1PA     H3R 4304   3.458   5.049   6.305
    1PA     H3S 4305   3.622   4.989   6.329
    1PA     C12 4306   3.588   5.188   6.404
    1PA     H2R 4307   3.692   5.221   6.399
    1PA     H2S 4308   3.524   5.274   6.381
    1PC     C11 4309   3.560   5.141   6.544
    1PC     O12 4310   3.472   5.189   6.612
    1PC     O11 4311   3.646   5.045   6.583
    1PC      C1 4312   3.649   5.005   6.723
    1PC      HR 4313   3.553   5.025   6.772
    1PC      HS 4314   3.667   4.897   6.727
    1PC      C2 4315   3.766   5.078   6.793
    1PC      HX 4316   3.857   5.033   6.754
    1PC      C3 4317   3.765   5.064   6.949
    1PC      HA 4318   3.674   5.014   6.982
    1PC      HB 4319   3.850   5.001   6.977
    1PC     O31 4320   3.781   5.195   7.014
    1PC     P31 4321   3.788   5.218   7.173
    1PC     O32 4322   3.642   5.270   7.206
    1PC     C31 4323   3.524   5.194   7.176
    1PC     H1A 4324   3.544   5.120   7.099
    1PC     H1B 4325   3.490   5.142   7.266
    1PC     C32 4326   3.415   5.291   7.125
    1PC     H2A 4327   3.324   5.234   7.104
    1PC     H2B 4328   3.391   5.363   7.204
    1PC     N31 4329   3.441   5.373   7.001
    1PC     C33 4330   3.541   5.481   7.025
    1PC     H3A 4331   3.638   5.435   7.045
    1PC     H3B 4332   3.546   5.545   6.936
    1PC     H3C 4333   3.508   5.539   7.111
    1PC     C34 4334   3.485   5.289   6.886
    1PC     H4A 4335   3.489   5.351   6.796
    1PC     H4B 4336   3.583   5.248   6.908
    1PC     H4C 4337   3.411   5.210   6.871
    1PC     C35 4338   3.314   5.436   6.962
    1PC     H5A 4339   3.244   5.358   6.932
    1PC     H5B 4340   3.332   5.504   6.878
    1PC     H5C 4341   3.278   5.489   7.050
    1PC     O33 4342   3.812   5.090   7.242
    1PC     O34 4343   3.879   5.332   7.200
    1PC     O21 4344   3.762   5.220   6.756
    1PC     C21 4345   3.879   5.285   6.761
    1PC     O22 4346   3.984   5.234   6.794
    1OL     C12 4347   3.868   5.430   6.719
    1OL     H2R 4348   3.962   5.479   6.745
    1OL     H2S 4349   3.788   5.478   6.775
    1OL     C13 4350   3.842   5.443   6.567
    1OL     H3R 4351   3.737   5.423   6.545
    1OL     H3S 4352   3.900   5.366   6.515
    1OL     C14 4353   3.883   5.581   6.512
    1OL     H4R 4354   3.973   5.615   6.564
    1OL     H4S 4355   3.804   5.653   6.533
    1OL     C15 4356   3.914   5.581   6.361
    1OL     H5R 4357   4.000   5.516   6.342
    1OL     H5S 4358   3.944   5.682   6.333
    1OL     C16 4359   3.798   5.537   6.270
    1OL     H6R 4360   3.713   5.603   6.290
    1OL     H6S 4361   3.767   5.435   6.293
    1OL     C17 4362   3.842   5.547   6.123
    1OL     H7R 4363   3.908   5.463   6.099
    1OL     H7S 4364   3.900   5.638   6.111
    1OL     C18 4365   3.728   5.552   6.020
    1OL     H8R 4366   3.676   5.456   6.021
    1OL     H8S 4367   3.771   5.563   5.920
    1OL     C19 4368   3.634   5.668   6.046
    1OL     H9R 4369   3.670   5.766   6.016
    1OL    C110 4370   3.514   5.657   6.103
    1OL    H10R 4371   3.453   5.746   6.118
    1OL    C111 4372   3.453   5.527   6.150
    1OL    H11R 4373   3.397   5.546   6.242
    1OL    H11S 4374   3.530   5.455   6.176
    1OL    C112 4375   3.358   5.466   6.045
    1OL    H12R 4376   3.270   5.530   6.035
    1OL    H12S 4377   3.326   5.369   6.084
    1OL    C113 4378   3.420   5.443   5.906
    1OL    H13R 4379   3.504   5.374   5.914
    1OL    H13S 4380   3.458   5.538   5.867
    1OL    C114 4381   3.319   5.386   5.805
    1OL    H14R 4382   3.234   5.453   5.796
    1OL    H14S 4383   3.282   5.290   5.841
    1OL    C115 4384   3.384   5.366   5.667
    1OL    H15R 4385   3.468   5.298   5.677
    1OL    H15S 4386   3.424   5.462   5.633
    1OL    C116 4387   3.288   5.311   5.560
    1OL    H16R 4388   3.203   5.378   5.549
    1OL    H16S 4389   3.250   5.214   5.591
    1OL    C117 4390   3.361   5.298   5.425
    1OL    H17R 4391   3.456   5.246   5.441
    1OL    H17S 4392   3.384   5.397   5.386
    1OL    C118 4393   3.284   5.218   5.318
    1OL    H18R 4394   3.326   5.238   5.220
    1OL    H18S 4395   3.178   5.245   5.319
    1OL    H18T 4396   3.293   5.111   5.337
    1PA    C116 4397   1.889   4.971   5.419
    1PA    H16R 4398   1.997   4.986   5.425
    1PA    H16S 4399   1.842   5.059   5.464
    1PA    H16T 4400   1.860   4.967   5.314
    1PA    C115 4401   1.846   4.842   5.491
    1PA    H15R 4402   1.737   4.831   5.488
    1PA    H15S 4403   1.886   4.756   5.437
    1PA    C114 4404   1.894   4.836   5.638
    1PA    H14R 4405   1.881   4.735   5.676
    1PA    H14S 4406   2.001   4.859   5.641
    1PA    C113 4407   1.818   4.934   5.728
    1PA    H13R 4408   1.823   5.034   5.686
    1PA    H13S 4409   1.713   4.904   5.732
    1PA    C112 4410   1.872   4.939   5.872
    1PA    H12R 4411   1.862   4.839   5.917
    1PA    H12S 4412   1.978   4.963   5.869
    1PA    C111 4413   1.797   5.044   5.956
    1PA    H11R 4414   1.806   5.141   5.907
    1PA    H11S 4415   1.691   5.019   5.959
    1PA    C110 4416   1.851   5.057   6.100
    1PA    H10R 4417   1.959   5.072   6.097
    1PA    H10S 4418   1.808   5.146   6.147
    1PA     C19 4419   1.817   4.935   6.187
    1PA     H9R 4420   1.710   4.938   6.210
    1PA     H9S 4421   1.834   4.843   6.129
    1PA     C18 4422   1.897   4.923   6.318
    1PA     H8R 4423   2.003   4.925   6.296
    1PA     H8S 4424   1.876   5.009   6.382
    1PA     C17 4425   1.861   4.793   6.392
    1PA     H7R 4426   1.782   4.818   6.463
    1PA     H7S 4427   1.819   4.721   6.321
    1PA     C16 4428   1.976   4.723   6.465
    1PA     H6R 4429   2.048   4.686   6.392
    1PA     H6S 4430   2.028   4.793   6.531
    1PA     C15 4431   1.923   4.604   6.547
    1PA     H5R 4432   1.858   4.643   6.626
    1PA     H5S 4433   1.861   4.541   6.483
    1PA     C14 4434   2.034   4.517   6.609
    1PA     H4R 4435   2.090   4.470   6.528
    1PA     H4S 4436   2.104   4.579   6.665
    1PA     C13 4437   1.978   4.406   6.701
    1PA     H3R 4438   1.897   4.355   6.649
    1PA     H3S 4439   2.055   4.331   6.719
    1PA     C12 4440   1.925   4.459   6.837
    1PA     H2R 4441   1.859   4.545   6.822
    1PA     H2S 4442   1.866   4.381   6.884
    1PC     C11 4443   2.035   4.497   6.933
    1PC     O12 4444   2.154   4.478   6.913
    1PC     O11 4445   1.986   4.547   7.048
    1PC      C1 4446   2.076   4.553   7.164
    1PC      HR 4447   2.015   4.538   7.253
    1PC      HS 4448   2.147   4.470   7.159
    1PC      C2 4449   2.151   4.688   7.178
    1PC      HX 4450   2.230   4.675   7.253
    1PC      C3 4451   2.056   4.796   7.233
    1PC      HA 4452   1.966   4.799   7.172
    1PC      HB 4453   2.027   4.770   7.336
    1PC     O31 4454   2.117   4.928   7.235
    1PC     P31 4455   2.027   5.055   7.270
    1PC     O32 4456   1.958   5.083   7.130
    1PC     C31 4457   2.008   5.185   7.044
    1PC     H1A 4458   1.979   5.282   7.084
    1PC     H1B 4459   2.117   5.181   7.039
    1PC     C32 4460   1.943   5.158   6.907
    1PC     H2A 4461   1.836   5.148   6.923
    1PC     H2B 4462   1.962   5.244   6.842
    1PC     N31 4463   1.987   5.035   6.831
    1PC     C33 4464   1.954   4.908   6.903
    1PC     H3A 4465   1.980   4.823   6.840
    1PC     H3B 4466   2.013   4.905   6.995
    1PC     H3C 4467   1.848   4.907   6.929
    1PC     C34 4468   1.917   5.033   6.700
    1PC     H4A 4469   1.941   5.125   6.646
    1PC     H4B 4470   1.950   4.946   6.644
    1PC     H4C 4471   1.809   5.027   6.718
    1PC     C35 4472   2.134   5.039   6.807
    1PC     H5A 4473   2.160   5.135   6.762
    1PC     H5B 4474   2.162   4.956   6.742
    1PC     H5C 4475   2.184   5.029   6.904
    1PC     O33 4476   1.914   5.014   7.357
    1PC     O34 4477   2.108   5.173   7.305
    1PC     O21 4478   2.207   4.731   7.050
    1PC     C21 4479   2.341   4.733   7.034
    1PC     O22 4480   2.420   4.702   7.122
    1OL     C12 4481   2.382   4.781   6.897
    1OL     H2R 4482   2.464   4.853   6.907
    1OL     H2S 4483   2.298   4.834   6.852
    1OL     C13 4484   2.425   4.666   6.803
    1OL     H3R 4485   2.344   4.594   6.795
    1OL     H3S 4486   2.510   4.614   6.848
    1OL     C14 4487   2.465   4.710   6.660
    1OL     H4R 4488   2.493   4.620   6.605
    1OL     H4S 4489   2.554   4.773   6.665
    1OL     C15 4490   2.355   4.785   6.581
    1OL     H5R 4491   2.353   4.890   6.612
    1OL     H5S 4492   2.257   4.742   6.603
    1OL     C16 4493   2.378   4.777   6.428
    1OL     H6R 4494   2.357   4.675   6.395
    1OL     H6S 4495   2.484   4.795   6.409
    1OL     C17 4496   2.294   4.876   6.345
    1OL     H7R 4497   2.319   4.978   6.373
    1OL     H7S 4498   2.189   4.861   6.370
    1OL     C18 4499   2.312   4.861   6.192
    1OL     H8R 4500   2.303   4.755   6.166
    1OL     H8S 4501   2.412   4.893   6.163
    1OL     C19 4502   2.204   4.937   6.116
    1OL     H9R 4503   2.103   4.906   6.139
    1OL    C110 4504   2.219   5.030   6.022
    1OL    H10R 4505   2.131   5.072   5.975
    1OL    C111 4506   2.349   5.082   5.964
    1OL    H11R 4507   2.436   5.042   6.018
    1OL    H11S 4508   2.352   5.191   5.973
    1OL    C112 4509   2.360   5.044   5.815
    1OL    H12R 4510   2.460   5.069   5.780
    1OL    H12S 4511   2.289   5.103   5.756
    1OL    C113 4512   2.332   4.894   5.793
    1OL    H13R 4513   2.225   4.873   5.803
    1OL    H13S 4514   2.383   4.838   5.872
    1OL    C114 4515   2.382   4.837   5.659
    1OL    H14R 4516   2.384   4.729   5.672
    1OL    H14S 4517   2.485   4.871   5.643
    1OL    C115 4518   2.299   4.866   5.533
    1OL    H15R 4519   2.297   4.973   5.511
    1OL    H15S 4520   2.197   4.833   5.552
    1OL    C116 4521   2.360   4.787   5.415
    1OL    H16R 4522   2.375   4.684   5.446
    1OL    H16S 4523   2.458   4.829   5.390
    1OL    C117 4524   2.276   4.783   5.286
    1OL    H17R 4525   2.327   4.717   5.215
    1OL    H17S 4526   2.270   4.882   5.241
    1OL    C118 4527   2.135   4.728   5.311
    1OL    H18R 4528   2.078   4.802   5.368
    1OL    H18S 4529   2.138   4.637   5.370
    1OL    H18T 4530   2.083   4.709   5.217
    1PA    C116 4531   5.152   4.149   5.373
    1PA    H16R 4532   5.165   4.257   5.363
    1PA    H16S 4533   5.080   4.129   5.452
    1PA    H16T 4534   5.113   4.109   5.279
    1PA    C115 4535   5.286   4.083   5.407
    1PA    H15R 4536   5.271   3.975   5.414
    1PA    H15S 4537   5.357   4.100   5.326
    1PA    C114 4538   5.345   4.133   5.540
    1PA    H14R 4539   5.272   4.121   5.620
    1PA    H14S 4540   5.429   4.067   5.563
    1PA    C113 4541   5.399   4.277   5.539
    1PA    H13R 4542   5.436   4.302   5.439
    1PA    H13S 4543   5.317   4.346   5.561
    1PA    C112 4544   5.513   4.297   5.641
    1PA    H12R 4545   5.528   4.403   5.658
    1PA    H12S 4546   5.483   4.253   5.737
    1PA    C111 4547   5.646   4.235   5.594
    1PA    H11R 4548   5.632   4.129   5.568
    1PA    H11S 4549   5.676   4.284   5.501
    1PA    C110 4550   5.762   4.248   5.695
    1PA    H10R 4551   5.854   4.216   5.645
    1PA    H10S 4552   5.773   4.354   5.720
    1PA     C19 4553   5.749   4.170   5.827
    1PA     H9R 4554   5.836   4.192   5.890
    1PA     H9S 4555   5.661   4.205   5.881
    1PA     C18 4556   5.741   4.019   5.805
    1PA     H8R 4557   5.657   4.000   5.737
    1PA     H8S 4558   5.832   3.982   5.757
    1PA     C17 4559   5.712   3.939   5.932
    1PA     H7R 4560   5.631   3.988   5.986
    1PA     H7S 4561   5.675   3.840   5.902
    1PA     C16 4562   5.832   3.919   6.026
    1PA     H6R 4563   5.911   3.866   5.973
    1PA     H6S 4564   5.870   4.015   6.059
    1PA     C15 4565   5.785   3.836   6.146
    1PA     H5R 4566   5.707   3.892   6.199
    1PA     H5S 4567   5.739   3.744   6.110
    1PA     C14 4568   5.897   3.799   6.245
    1PA     H4R 4569   5.973   3.742   6.192
    1PA     H4S 4570   5.945   3.890   6.283
    1PA     C13 4571   5.841   3.714   6.362
    1PA     H3R 4572   5.785   3.631   6.319
    1PA     H3S 4573   5.924   3.669   6.416
    1PA     C12 4574   5.749   3.789   6.461
    1PA     H2R 4575   5.670   3.844   6.408
    1PA     H2S 4576   5.698   3.714   6.522
    1PC     C11 4577   5.822   3.885   6.553
    1PC     O12 4578   5.900   3.970   6.517
    1PC     O11 4579   5.790   3.864   6.682
    1PC      C1 4580   5.851   3.950   6.784
    1PC      HR 4581   5.824   3.907   6.881
    1PC      HS 4582   5.959   3.947   6.775
    1PC      C2 4583   5.805   4.098   6.775
    1PC      HX 4584   5.862   4.145   6.695
    1PC      C3 4585   5.831   4.176   6.907
    1PC      HA 4586   5.937   4.203   6.910
    1PC      HB 4587   5.772   4.268   6.911
    1PC     O31 4588   5.804   4.094   7.024
    1PC     P31 4589   5.663   4.094   7.099
    1PC     O32 4590   5.566   4.007   7.007
    1PC     C31 4591   5.570   3.863   7.009
    1PC     H1A 4592   5.630   3.828   6.924
    1PC     H1B 4593   5.616   3.827   7.101
    1PC     C32 4594   5.426   3.809   6.998
    1PC     H2A 4595   5.388   3.832   6.898
    1PC     H2B 4596   5.429   3.701   7.009
    1PC     N31 4597   5.323   3.860   7.096
    1PC     C33 4598   5.267   3.990   7.049
    1PC     H3A 4599   5.195   4.026   7.122
    1PC     H3B 4600   5.349   4.061   7.040
    1PC     H3C 4601   5.221   3.975   6.951
    1PC     C34 4602   5.213   3.759   7.104
    1PC     H4A 4603   5.170   3.745   7.005
    1PC     H4B 4604   5.255   3.666   7.140
    1PC     H4C 4605   5.138   3.796   7.175
    1PC     C35 4606   5.379   3.880   7.233
    1PC     H5A 4607   5.453   3.960   7.229
    1PC     H5B 4608   5.428   3.788   7.266
    1PC     H5C 4609   5.299   3.906   7.302
    1PC     O33 4610   5.682   4.021   7.226
    1PC     O34 4611   5.610   4.231   7.106
    1PC     O21 4612   5.664   4.104   6.744
    1PC     C21 4613   5.622   4.215   6.680
    1PC     O22 4614   5.692   4.311   6.656
    1OL     C12 4615   5.478   4.201   6.635
    1OL     H2R 4616   5.413   4.211   6.722
    1OL     H2S 4617   5.467   4.100   6.597
    1OL     C13 4618   5.442   4.305   6.527
    1OL     H3R 4619   5.522   4.309   6.452
    1OL     H3S 4620   5.435   4.404   6.572
    1OL     C14 4621   5.310   4.273   6.453
    1OL     H4R 4622   5.290   4.352   6.381
    1OL     H4S 4623   5.227   4.271   6.524
    1OL     C15 4624   5.319   4.139   6.379
    1OL     H5R 4625   5.318   4.056   6.451
    1OL     H5S 4626   5.415   4.135   6.328
    1OL     C16 4627   5.205   4.116   6.278
    1OL     H6R 4628   5.200   4.200   6.208
    1OL     H6S 4629   5.110   4.110   6.331
    1OL     C17 4630   5.229   3.986   6.199
    1OL     H7R 4631   5.138   3.959   6.145
    1OL     H7S 4632   5.248   3.905   6.270
    1OL     C18 4633   5.345   3.999   6.100
    1OL     H8R 4634   5.419   4.072   6.132
    1OL     H8S 4635   5.307   4.035   6.004
    1OL     C19 4636   5.414   3.866   6.085
    1OL     H9R 4637   5.494   3.846   6.156
    1OL    C110 4638   5.384   3.776   5.993
    1OL    H10R 4639   5.440   3.682   5.991
    1OL    C111 4640   5.276   3.788   5.889
    1OL    H11R 4641   5.198   3.857   5.921
    1OL    H11S 4642   5.228   3.691   5.874
    1OL    C112 4643   5.336   3.836   5.757
    1OL    H12R 4644   5.377   3.936   5.773
    1OL    H12S 4645   5.258   3.845   5.681
    1OL    C113 4646   5.448   3.744   5.705
    1OL    H13R 4647   5.408   3.646   5.678
    1OL    H13S 4648   5.524   3.729   5.781
    1OL    C114 4649   5.511   3.807   5.582
    1OL    H14R 4650   5.534   3.911   5.609
    1OL    H14S 4651   5.440   3.809   5.500
    1OL    C115 4652   5.644   3.744   5.540
    1OL    H15R 4653   5.625   3.657   5.476
    1OL    H15S 4654   5.699   3.710   5.627
    1OL    C116 4655   5.728   3.848   5.465
    1OL    H16R 4656   5.815   3.795   5.425
    1OL    H16S 4657   5.766   3.923   5.536
    1OL    C117 4658   5.658   3.920   5.349
    1OL    H17R 4659   5.732   3.981   5.296
    1OL    H17S 4660   5.581   3.988   5.386
    1OL    C118 4661   5.595   3.820   5.251
    1OL    H18R 4662   5.506   3.774   5.294
    1OL    H18S 4663   5.666   3.739   5.231
    1OL    H18T 4664   5.568   3.869   5.158
    1PA    C116 4665   1.025   1.755   5.379
    1PA    H16R 4666   1.014   1.716   5.278
    1PA    H16S 4667   1.114   1.818   5.383
    1PA    H16T 4668   0.937   1.817   5.401
    1PA    C115 4669   1.037   1.641   5.482
    1PA    H15R 4670   1.136   1.596   5.473
    1PA    H15S 4671   1.028   1.682   5.583
    1PA    C114 4672   0.930   1.533   5.459
    1PA    H14R 4673   0.948   1.486   5.362
    1PA    H14S 4674   0.940   1.456   5.536
    1PA    C113 4675   0.786   1.589   5.461
    1PA    H13R 4676   0.765   1.629   5.560
    1PA    H13S 4677   0.775   1.670   5.389
    1PA    C112 4678   0.687   1.478   5.425
    1PA    H12R 4679   0.717   1.440   5.327
    1PA    H12S 4680   0.698   1.395   5.496
    1PA    C111 4681   0.540   1.520   5.416
    1PA    H11R 4682   0.527   1.591   5.334
    1PA    H11S 4683   0.480   1.433   5.392
    1PA    C110 4684   0.484   1.585   5.544
    1PA    H10R 4685   0.523   1.687   5.552
    1PA    H10S 4686   0.376   1.591   5.535
    1PA     C19 4687   0.518   1.506   5.671
    1PA     H9R 4688   0.487   1.401   5.660
    1PA     H9S 4689   0.626   1.508   5.684
    1PA     C18 4690   0.455   1.563   5.799
    1PA     H8R 4691   0.347   1.550   5.794
    1PA     H8S 4692   0.488   1.504   5.885
    1PA     C17 4693   0.485   1.712   5.821
    1PA     H7R 4694   0.434   1.768   5.742
    1PA     H7S 4695   0.442   1.742   5.917
    1PA     C16 4696   0.633   1.752   5.819
    1PA     H6R 4697   0.678   1.723   5.723
    1PA     H6S 4698   0.642   1.860   5.826
    1PA     C15 4699   0.710   1.686   5.934
    1PA     H5R 4700   0.698   1.749   6.023
    1PA     H5S 4701   0.667   1.589   5.957
    1PA     C14 4702   0.858   1.666   5.903
    1PA     H4R 4703   0.870   1.587   5.828
    1PA     H4S 4704   0.901   1.757   5.862
    1PA     C13 4705   0.933   1.629   6.031
    1PA     H3R 4706   1.036   1.604   6.007
    1PA     H3S 4707   0.933   1.720   6.092
    1PA     C12 4708   0.867   1.515   6.112
    1PA     H2R 4709   0.770   1.546   6.151
    1PA     H2S 4710   0.851   1.428   6.048
    1PC     C11 4711   0.951   1.468   6.228
    1PC     O12 4712   1.053   1.404   6.215
    1PC     O11 4713   0.902   1.506   6.346
    1PC      C1 4714   0.975   1.471   6.466
    1PC      HR 4715   1.033   1.379   6.452
    1PC      HS 4716   1.044   1.552   6.492
    1PC      C2 4717   0.874   1.445   6.580
    1PC      HX 4718   0.799   1.525   6.584
    1PC      C3 4719   0.949   1.440   6.714
    1PC      HA 4720   1.018   1.355   6.712
    1PC      HB 4721   1.005   1.532   6.733
    1PC     O31 4722   0.854   1.419   6.822
    1PC     P31 4723   0.898   1.333   6.948
    1PC     O32 4724   0.779   1.362   7.051
    1PC     C31 4725   0.764   1.493   7.107
    1PC     H1A 4726   0.862   1.527   7.143
    1PC     H1B 4727   0.730   1.561   7.029
    1PC     C32 4728   0.667   1.487   7.226
    1PC     H2A 4729   0.709   1.423   7.303
    1PC     H2B 4730   0.658   1.588   7.268
    1PC     N31 4731   0.525   1.440   7.203
    1PC     C33 4732   0.521   1.294   7.176
    1PC     H3A 4733   0.417   1.262   7.168
    1PC     H3B 4734   0.574   1.275   7.082
    1PC     H3C 4735   0.572   1.241   7.257
    1PC     C34 4736   0.446   1.467   7.327
    1PC     H4A 4737   0.493   1.416   7.411
    1PC     H4B 4738   0.445   1.575   7.346
    1PC     H4C 4739   0.344   1.432   7.312
    1PC     C35 4740   0.460   1.511   7.090
    1PC     H5A 4741   0.458   1.618   7.111
    1PC     H5B 4742   0.357   1.474   7.082
    1PC     H5C 4743   0.516   1.490   6.999
    1PC     O33 4744   0.897   1.191   6.910
    1PC     O34 4745   1.021   1.394   7.001
    1PC     O21 4746   0.813   1.316   6.557
    1PC     C21 4747   0.703   1.308   6.480
    1PC     O22 4748   0.636   1.402   6.443
    1OL     C12 4749   0.673   1.165   6.442
    1OL     H2R 4750   0.579   1.160   6.387
    1OL     H2S 4751   0.661   1.107   6.534
    1OL     C13 4752   0.787   1.103   6.359
    1OL     H3R 4753   0.778   0.994   6.360
    1OL     H3S 4754   0.883   1.125   6.407
    1OL     C14 4755   0.794   1.150   6.212
    1OL     H4R 4756   0.895   1.130   6.175
    1OL     H4S 4757   0.779   1.258   6.207
    1OL     C15 4758   0.692   1.078   6.121
    1OL     H5R 4759   0.591   1.113   6.142
    1OL     H5S 4760   0.694   0.971   6.144
    1OL     C16 4761   0.725   1.095   5.972
    1OL     H6R 4762   0.671   1.019   5.914
    1OL     H6S 4763   0.831   1.075   5.958
    1OL     C17 4764   0.688   1.234   5.915
    1OL     H7R 4765   0.696   1.309   5.994
    1OL     H7S 4766   0.583   1.233   5.885
    1OL     C18 4767   0.775   1.275   5.795
    1OL     H8R 4768   0.740   1.372   5.760
    1OL     H8S 4769   0.761   1.205   5.713
    1OL     C19 4770   0.921   1.293   5.831
    1OL     H9R 4771   0.945   1.380   5.891
    1OL    C110 4772   1.021   1.216   5.792
    1OL    H10R 4773   1.121   1.242   5.824
    1OL    C111 4774   1.012   1.094   5.705
    1OL    H11R 4775   0.911   1.051   5.707
    1OL    H11S 4776   1.080   1.017   5.742
    1OL    C112 4777   1.049   1.132   5.561
    1OL    H12R 4778   1.149   1.175   5.558
    1OL    H12S 4779   0.979   1.210   5.528
    1OL    C113 4780   1.042   1.009   5.471
    1OL    H13R 4781   0.966   0.942   5.512
    1OL    H13S 4782   1.136   0.955   5.476
    1OL    C114 4783   1.007   1.036   5.323
    1OL    H14R 4784   0.989   0.940   5.275
    1OL    H14S 4785   1.094   1.077   5.272
    1OL    C115 4786   0.886   1.129   5.297
    1OL    H15R 4787   0.873   1.132   5.188
    1OL    H15S 4788   0.910   1.231   5.327
    1OL    C116 4789   0.753   1.084   5.359
    1OL    H16R 4790   0.752   1.105   5.466
    1OL    H16S 4791   0.741   0.977   5.346
    1OL    C117 4792   0.632   1.152   5.291
    1OL    H17R 4793   0.644   1.150   5.183
    1OL    H17S 4794   0.626   1.257   5.321
    1OL    C118 4795   0.498   1.085   5.325
    1OL    H18R 4796   0.497   0.981   5.294
    1OL    H18S 4797   0.417   1.138   5.273
    1OL    H18T 4798   0.478   1.090   5.433
    1PA    C116 4799   0.712   2.060   5.452
    1PA    H16R 4800   0.770   2.052   5.544
    1PA    H16S 4801   0.747   2.146   5.395
    1PA    H16T 4802   0.723   1.969   5.394
    1PA    C115 4803   0.566   2.087   5.483
    1PA    H15R 4804   0.513   2.114   5.391
    1PA    H15S 4805   0.522   1.994   5.520
    1PA    C114 4806   0.559   2.202   5.585
    1PA    H14R 4807   0.608   2.173   5.678
    1PA    H14S 4808   0.617   2.285   5.545
    1PA    C113 4809   0.417   2.252   5.614
    1PA    H13R 4810   0.425   2.359   5.638
    1PA    H13S 4811   0.353   2.242   5.527
    1PA    C112 4812   0.353   2.190   5.737
    1PA    H12R 4813   0.418   2.207   5.823
    1PA    H12S 4814   0.259   2.242   5.757
    1PA    C111 4815   0.325   2.040   5.722
    1PA    H11R 4816   0.237   2.024   5.659
    1PA    H11S 4817   0.410   1.989   5.676
    1PA    C110 4818   0.308   1.973   5.858
    1PA    H10R 4819   0.278   1.869   5.843
    1PA    H10S 4820   0.405   1.973   5.909
    1PA     C19 4821   0.203   2.038   5.947
    1PA     H9R 4822   0.216   2.146   5.950
    1PA     H9S 4823   0.106   2.019   5.901
    1PA     C18 4824   0.211   1.978   6.088
    1PA     H8R 4825   0.121   2.008   6.142
    1PA     H8S 4826   0.210   1.869   6.083
    1PA     C17 4827   0.329   2.026   6.174
    1PA     H7R 4828   0.313   1.991   6.277
    1PA     H7S 4829   0.421   1.979   6.139
    1PA     C16 4830   0.348   2.179   6.176
    1PA     H6R 4831   0.421   2.204   6.253
    1PA     H6S 4832   0.393   2.208   6.081
    1PA     C15 4833   0.221   2.264   6.199
    1PA     H5R 4834   0.145   2.240   6.124
    1PA     H5S 4835   0.178   2.243   6.297
    1PA     C14 4836   0.255   2.413   6.186
    1PA     H4R 4837   0.309   2.445   6.275
    1PA     H4S 4838   0.322   2.425   6.101
    1PA     C13 4839   0.136   2.507   6.160
    1PA     H3R 4840   0.174   2.610   6.156
    1PA     H3S 4841   0.095   2.483   6.062
    1PA     C12 4842   0.021   2.501   6.262
    1PA     H2R 4843  -0.051   2.580   6.241
    1PA     H2S 4844  -0.031   2.405   6.252
    1PC     C11 4845   0.070   2.518   6.403
    1PC     O12 4846   0.130   2.616   6.442
    1PC     O11 4847   0.039   2.410   6.477
    1PC      C1 4848   0.070   2.414   6.619
    1PC      HR 4849   0.075   2.517   6.657
    1PC      HS 4850  -0.012   2.362   6.668
    1PC      C2 4851   0.197   2.335   6.654
    1PC      HX 4852   0.186   2.234   6.613
    1PC      C3 4853   0.207   2.327   6.809
    1PC      HA 4854   0.110   2.340   6.857
    1PC      HB 4855   0.244   2.227   6.832
    1PC     O31 4856   0.300   2.422   6.866
    1PC     P31 4857   0.335   2.413   7.021
    1PC     O32 4858   0.380   2.260   7.036
    1PC     C31 4859   0.396   2.205   7.167
    1PC     H1A 4860   0.311   2.232   7.229
    1PC     H1B 4861   0.402   2.096   7.159
    1PC     C32 4862   0.528   2.259   7.225
    1PC     H2A 4863   0.521   2.368   7.227
    1PC     H2B 4864   0.538   2.224   7.328
    1PC     N31 4865   0.656   2.226   7.155
    1PC     C33 4866   0.663   2.274   7.013
    1PC     H3A 4867   0.585   2.225   6.955
    1PC     H3B 4868   0.643   2.382   7.013
    1PC     H3C 4869   0.761   2.253   6.970
    1PC     C34 4870   0.764   2.294   7.231
    1PC     H4A 4871   0.861   2.269   7.186
    1PC     H4B 4872   0.744   2.401   7.226
    1PC     H4C 4873   0.759   2.259   7.334
    1PC     C35 4874   0.679   2.078   7.155
    1PC     H5A 4875   0.669   2.042   7.257
    1PC     H5B 4876   0.779   2.057   7.116
    1PC     H5C 4877   0.604   2.033   7.090
    1PC     O33 4878   0.455   2.493   7.051
    1PC     O34 4879   0.213   2.427   7.102
    1PC     O21 4880   0.314   2.397   6.597
    1PC     C21 4881   0.431   2.334   6.615
    1PC     O22 4882   0.444   2.220   6.656
    1OL     C12 4883   0.547   2.422   6.578
    1OL     H2R 4884   0.625   2.412   6.654
    1OL     H2S 4885   0.514   2.526   6.576
    1OL     C13 4886   0.602   2.382   6.440
    1OL     H3R 4887   0.520   2.383   6.368
    1OL     H3S 4888   0.642   2.281   6.444
    1OL     C14 4889   0.712   2.479   6.394
    1OL     H4R 4890   0.787   2.488   6.472
    1OL     H4S 4891   0.668   2.578   6.380
    1OL     C15 4892   0.781   2.433   6.265
    1OL     H5R 4893   0.840   2.344   6.286
    1OL     H5S 4894   0.851   2.512   6.235
    1OL     C16 4895   0.688   2.404   6.145
    1OL     H6R 4896   0.628   2.315   6.164
    1OL     H6S 4897   0.752   2.383   6.059
    1OL     C17 4898   0.596   2.523   6.112
    1OL     H7R 4899   0.636   2.615   6.153
    1OL     H7S 4900   0.500   2.510   6.164
    1OL     C18 4901   0.574   2.540   5.961
    1OL     H8R 4902   0.495   2.471   5.929
    1OL     H8S 4903   0.665   2.515   5.906
    1OL     C19 4904   0.533   2.682   5.932
    1OL     H9R 4905   0.477   2.729   6.013
    1OL    C110 4906   0.565   2.753   5.824
    1OL    H10R 4907   0.532   2.856   5.817
    1OL    C111 4908   0.649   2.704   5.708
    1OL    H11R 4909   0.744   2.663   5.743
    1OL    H11S 4910   0.674   2.790   5.644
    1OL    C112 4911   0.576   2.599   5.623
    1OL    H12R 4912   0.557   2.511   5.684
    1OL    H12S 4913   0.641   2.570   5.540
    1OL    C113 4914   0.444   2.655   5.567
    1OL    H13R 4915   0.466   2.746   5.512
    1OL    H13S 4916   0.380   2.684   5.651
    1OL    C114 4917   0.362   2.560   5.477
    1OL    H14R 4918   0.286   2.621   5.428
    1OL    H14S 4919   0.308   2.489   5.539
    1OL    C115 4920   0.439   2.479   5.371
    1OL    H15R 4921   0.371   2.404   5.330
    1OL    H15S 4922   0.522   2.425   5.417
    1OL    C116 4923   0.493   2.563   5.255
    1OL    H16R 4924   0.545   2.497   5.186
    1OL    H16S 4925   0.565   2.636   5.292
    1OL    C117 4926   0.378   2.634   5.181
    1OL    H17R 4927   0.356   2.730   5.230
    1OL    H17S 4928   0.288   2.573   5.185
    1OL    C118 4929   0.411   2.660   5.035
    1OL    H18R 4930   0.501   2.721   5.025
    1OL    H18S 4931   0.427   2.564   4.984
    1OL    H18T 4932   0.327   2.711   4.987
    1PA    C116 4933   0.528   3.749   5.392
    1PA    H16R 4934   0.446   3.689   5.352
    1PA    H16S 4935   0.522   3.747   5.501
    1PA    H16T 4936   0.621   3.701   5.362
    1PA    C115 4937   0.519   3.893   5.339
    1PA    H15R 4938   0.474   3.892   5.239
    1PA    H15S 4939   0.454   3.953   5.403
    1PA    C114 4940   0.657   3.960   5.330
    1PA    H14R 4941   0.720   3.901   5.263
    1PA    H14S 4942   0.648   4.059   5.284
    1PA    C113 4943   0.727   3.972   5.466
    1PA    H13R 4944   0.708   4.072   5.507
    1PA    H13S 4945   0.685   3.900   5.537
    1PA    C112 4946   0.878   3.947   5.453
    1PA    H12R 4947   0.895   3.845   5.418
    1PA    H12S 4948   0.918   4.015   5.377
    1PA    C111 4949   0.953   3.969   5.585
    1PA    H11R 4950   1.059   3.952   5.566
    1PA    H11S 4951   0.940   4.073   5.616
    1PA    C110 4952   0.907   3.879   5.700
    1PA    H10R 4953   0.808   3.909   5.733
    1PA    H10S 4954   0.901   3.776   5.665
    1PA     C19 4955   1.007   3.887   5.817
    1PA     H9R 4956   1.104   3.849   5.782
    1PA     H9S 4957   1.023   3.991   5.845
    1PA     C18 4958   0.965   3.805   5.941
    1PA     H8R 4959   0.945   3.702   5.911
    1PA     H8S 4960   1.050   3.802   6.010
    1PA     C17 4961   0.843   3.861   6.017
    1PA     H7R 4962   0.754   3.857   5.953
    1PA     H7S 4963   0.824   3.794   6.102
    1PA     C16 4964   0.863   4.005   6.067
    1PA     H6R 4965   0.964   4.015   6.108
    1PA     H6S 4966   0.857   4.074   5.982
    1PA     C15 4967   0.762   4.050   6.174
    1PA     H5R 4968   0.776   4.157   6.192
    1PA     H5S 4969   0.660   4.038   6.136
    1PA     C14 4970   0.778   3.974   6.307
    1PA     H4R 4971   0.755   3.869   6.291
    1PA     H4S 4972   0.882   3.980   6.340
    1PA     C13 4973   0.687   4.030   6.418
    1PA     H3R 4974   0.713   4.135   6.434
    1PA     H3S 4975   0.583   4.028   6.385
    1PA     C12 4976   0.700   3.957   6.554
    1PA     H2R 4977   0.806   3.947   6.581
    1PA     H2S 4978   0.653   4.019   6.630
    1PC     C11 4979   0.635   3.820   6.559
    1PC     O12 4980   0.623   3.745   6.464
    1PC     O11 4981   0.591   3.791   6.683
    1PC      C1 4982   0.519   3.665   6.708
    1PC      HR 4983   0.452   3.682   6.792
    1PC      HS 4984   0.457   3.639   6.621
    1PC      C2 4985   0.615   3.549   6.746
    1PC      HX 4986   0.559   3.465   6.787
    1PC      C3 4987   0.716   3.601   6.852
    1PC      HA 4988   0.803   3.642   6.802
    1PC      HB 4989   0.666   3.681   6.907
    1PC     O31 4990   0.760   3.500   6.947
    1PC     P31 4991   0.738   3.519   7.106
    1PC     O32 4992   0.782   3.672   7.129
    1PC     C31 4993   0.686   3.775   7.159
    1PC     H1A 4994   0.587   3.745   7.122
    1PC     H1B 4995   0.679   3.788   7.267
    1PC     C32 4996   0.724   3.907   7.088
    1PC     H2A 4997   0.730   3.889   6.980
    1PC     H2B 4998   0.643   3.978   7.107
    1PC     N31 4999   0.851   3.978   7.128
    1PC     C33 5000   0.972   3.903   7.082
    1PC     H3A 5001   0.970   3.894   6.974
    1PC     H3B 5002   1.061   3.957   7.116
    1PC     H3C 5003   0.970   3.805   7.129
    1PC     C34 5004   0.853   4.113   7.063
    1PC     H4A 5005   0.852   4.101   6.955
    1PC     H4B 5006   0.764   4.167   7.097
    1PC     H4C 5007   0.943   4.166   7.095
    1PC     C35 5008   0.860   3.996   7.275
    1PC     H5A 5009   0.768   4.043   7.311
    1PC     H5B 5010   0.946   4.058   7.299
    1PC     H5C 5011   0.873   3.897   7.321
    1PC     O33 5012   0.593   3.507   7.133
    1PC     O34 5013   0.831   3.434   7.183
    1PC     O21 5014   0.689   3.507   6.628
    1PC     C21 5015   0.620   3.441   6.533
    1PC     O22 5016   0.506   3.401   6.549
    1OL     C12 5017   0.700   3.423   6.405
    1OL     H2R 5018   0.790   3.366   6.430
    1OL     H2S 5019   0.732   3.521   6.371
    1OL     C13 5020   0.624   3.351   6.291
    1OL     H3R 5021   0.588   3.254   6.326
    1OL     H3S 5022   0.696   3.332   6.211
    1OL     C14 5023   0.506   3.431   6.233
    1OL     H4R 5024   0.540   3.531   6.204
    1OL     H4S 5025   0.429   3.444   6.310
    1OL     C15 5026   0.440   3.365   6.111
    1OL     H5R 5027   0.348   3.420   6.087
    1OL     H5S 5028   0.410   3.263   6.136
    1OL     C16 5029   0.531   3.363   5.986
    1OL     H6R 5030   0.618   3.300   6.003
    1OL     H6S 5031   0.566   3.465   5.968
    1OL     C17 5032   0.456   3.313   5.862
    1OL     H7R 5033   0.362   3.367   5.854
    1OL     H7S 5034   0.432   3.207   5.874
    1OL     C18 5035   0.533   3.334   5.731
    1OL     H8R 5036   0.479   3.284   5.651
    1OL     H8S 5037   0.631   3.286   5.737
    1OL     C19 5038   0.543   3.482   5.699
    1OL     H9R 5039   0.448   3.532   5.681
    1OL    C110 5040   0.656   3.553   5.690
    1OL    H10R 5041   0.651   3.659   5.666
    1OL    C111 5042   0.795   3.498   5.711
    1OL    H11R 5043   0.794   3.425   5.793
    1OL    H11S 5044   0.863   3.578   5.742
    1OL    C112 5045   0.849   3.431   5.584
    1OL    H12R 5046   0.780   3.351   5.555
    1OL    H12S 5047   0.945   3.385   5.607
    1OL    C113 5048   0.869   3.527   5.466
    1OL    H13R 5049   0.956   3.590   5.485
    1OL    H13S 5050   0.783   3.594   5.458
    1OL    C114 5051   0.888   3.456   5.330
    1OL    H14R 5052   0.970   3.384   5.335
    1OL    H14S 5053   0.914   3.532   5.257
    1OL    C115 5054   0.759   3.385   5.284
    1OL    H15R 5055   0.676   3.454   5.304
    1OL    H15S 5056   0.742   3.296   5.345
    1OL    C116 5057   0.756   3.348   5.134
    1OL    H16R 5058   0.818   3.260   5.114
    1OL    H16S 5059   0.796   3.432   5.078
    1OL    C117 5060   0.612   3.323   5.086
    1OL    H17R 5061   0.548   3.386   5.148
    1OL    H17S 5062   0.583   3.219   5.103
    1OL    C118 5063   0.584   3.364   4.940
    1OL    H18R 5064   0.486   3.412   4.933
    1OL    H18S 5065   0.582   3.277   4.874
    1OL    H18T 5066   0.660   3.432   4.901
    1PA    C116 5067   4.603   0.325   5.505
    1PA    H16R 5068   4.539   0.288   5.586
    1PA    H16S 5069   4.551   0.405   5.454
    1PA    H16T 5070   4.694   0.367   5.548
    1PA    C115 5071   4.634   0.212   5.405
    1PA    H15R 5072   4.539   0.178   5.363
    1PA    H15S 5073   4.689   0.255   5.321
    1PA    C114 5074   4.712   0.090   5.460
    1PA    H14R 5075   4.642   0.008   5.476
    1PA    H14S 5076   4.783   0.057   5.383
    1PA    C113 5077   4.788   0.112   5.591
    1PA    H13R 5078   4.851   0.201   5.582
    1PA    H13S 5079   4.713   0.133   5.668
    1PA    C112 5080   4.874  -0.007   5.639
    1PA    H12R 5081   4.878  -0.003   5.748
    1PA    H12S 5082   4.825  -0.100   5.610
    1PA    C111 5083   5.018  -0.006   5.588
    1PA    H11R 5084   5.017  -0.004   5.478
    1PA    H11S 5085   5.066   0.086   5.621
    1PA    C110 5086   5.106  -0.124   5.636
    1PA    H10R 5087   5.057  -0.218   5.610
    1PA    H10S 5088   5.201  -0.120   5.581
    1PA     C19 5089   5.138  -0.132   5.786
    1PA     H9R 5090   5.047  -0.159   5.840
    1PA     H9S 5091   5.210  -0.213   5.801
    1PA     C18 5092   5.193  -0.003   5.847
    1PA     H8R 5093   5.273   0.037   5.784
    1PA     H8S 5094   5.111   0.069   5.850
    1PA     C17 5095   5.247  -0.026   5.989
    1PA     H7R 5096   5.175  -0.086   6.046
    1PA     H7S 5097   5.340  -0.083   5.985
    1PA     C16 5098   5.271   0.107   6.063
    1PA     H6R 5099   5.361   0.153   6.022
    1PA     H6S 5100   5.189   0.176   6.044
    1PA     C15 5101   5.288   0.091   6.215
    1PA     H5R 5102   5.363   0.013   6.233
    1PA     H5S 5103   5.329   0.184   6.256
    1PA     C14 5104   5.161   0.054   6.295
    1PA     H4R 5105   5.136  -0.051   6.275
    1PA     H4S 5106   5.184   0.060   6.401
    1PA     C13 5107   5.037   0.141   6.266
    1PA     H3R 5108   4.999   0.115   6.167
    1PA     H3S 5109   4.958   0.114   6.337
    1PA     C12 5110   5.059   0.293   6.271
    1PA     H2R 5111   5.140   0.324   6.204
    1PA     H2S 5112   4.968   0.343   6.236
    1PC     C11 5113   5.089   0.344   6.409
    1PC     O12 5114   5.197   0.330   6.462
    1PC     O11 5115   4.983   0.409   6.460
    1PC      C1 5116   4.997   0.470   6.591
    1PC      HR 5117   5.097   0.458   6.632
    1PC      HS 5118   4.976   0.576   6.577
    1PC      C2 5119   4.893   0.414   6.690
    1PC      HX 5120   4.793   0.445   6.658
    1PC      C3 5121   4.920   0.465   6.835
    1PC      HA 5122   4.991   0.548   6.833
    1PC      HB 5123   4.826   0.501   6.880
    1PC     O31 5124   4.973   0.358   6.918
    1PC     P31 5125   5.086   0.380   7.028
    1PC     O32 5126   5.023   0.320   7.164
    1PC     C31 5127   4.883   0.290   7.178
    1PC     H1A 5128   4.861   0.282   7.285
    1PC     H1B 5129   4.823   0.372   7.137
    1PC     C32 5130   4.848   0.155   7.109
    1PC     H2A 5131   4.742   0.133   7.126
    1PC     H2B 5132   4.863   0.166   7.002
    1PC     N31 5133   4.922   0.030   7.150
    1PC     C33 5134   4.850  -0.091   7.100
    1PC     H3A 5135   4.852  -0.092   6.990
    1PC     H3B 5136   4.900  -0.180   7.138
    1PC     H3C 5137   4.747  -0.088   7.135
    1PC     C34 5138   5.060   0.025   7.093
    1PC     H4A 5139   5.116   0.111   7.129
    1PC     H4B 5140   5.107  -0.068   7.126
    1PC     H4C 5141   5.054   0.028   6.984
    1PC     C35 5142   4.930   0.018   7.298
    1PC     H5A 5143   4.830   0.023   7.339
    1PC     H5B 5144   4.995   0.098   7.335
    1PC     H5C 5145   4.974  -0.080   7.319
    1PC     O33 5146   5.199   0.291   6.996
    1PC     O34 5147   5.111   0.524   7.047
    1PC     O21 5148   4.902   0.271   6.682
    1PC     C21 5149   4.812   0.198   6.748
    1PC     O22 5150   4.712   0.242   6.801
    1OL     C12 5151   4.851   0.054   6.749
    1OL     H2R 5152   4.892   0.030   6.848
    1OL     H2S 5153   4.932   0.036   6.677
    1OL     C13 5154   4.732  -0.036   6.717
    1OL     H3R 5155   4.646  -0.011   6.780
    1OL     H3S 5156   4.763  -0.137   6.742
    1OL     C14 5157   4.693  -0.032   6.568
    1OL     H4R 5158   4.633  -0.121   6.548
    1OL     H4S 5159   4.785  -0.042   6.509
    1OL     C15 5160   4.613   0.086   6.512
    1OL     H5R 5161   4.678   0.173   6.500
    1OL     H5S 5162   4.531   0.113   6.579
    1OL     C16 5163   4.558   0.040   6.375
    1OL     H6R 5164   4.474  -0.029   6.390
    1OL     H6S 5165   4.636  -0.016   6.324
    1OL     C17 5166   4.514   0.153   6.282
    1OL     H7R 5167   4.580   0.238   6.299
    1OL     H7S 5168   4.411   0.181   6.304
    1OL     C18 5169   4.527   0.113   6.134
    1OL     H8R 5170   4.478   0.017   6.118
    1OL     H8S 5171   4.633   0.103   6.111
    1OL     C19 5172   4.464   0.216   6.042
    1OL     H9R 5173   4.358   0.233   6.060
    1OL    C110 5174   4.525   0.284   5.946
    1OL    H10R 5175   4.468   0.354   5.886
    1OL    C111 5176   4.671   0.272   5.908
    1OL    H11R 5177   4.682   0.301   5.803
    1OL    H11S 5178   4.705   0.169   5.917
    1OL    C112 5179   4.760   0.365   5.994
    1OL    H12R 5180   4.740   0.346   6.099
    1OL    H12S 5181   4.733   0.468   5.972
    1OL    C113 5182   4.910   0.347   5.968
    1OL    H13R 5183   4.941   0.249   6.005
    1OL    H13S 5184   4.965   0.422   6.024
    1OL    C114 5185   4.949   0.356   5.820
    1OL    H14R 5186   4.905   0.444   5.773
    1OL    H14S 5187   4.910   0.267   5.769
    1OL    C115 5188   5.101   0.358   5.803
    1OL    H15R 5189   5.145   0.275   5.859
    1OL    H15S 5190   5.140   0.450   5.847
    1OL    C116 5191   5.143   0.347   5.656
    1OL    H16R 5192   5.129   0.445   5.609
    1OL    H16S 5193   5.074   0.281   5.603
    1OL    C117 5194   5.288   0.297   5.637
    1OL    H17R 5195   5.321   0.240   5.725
    1OL    H17S 5196   5.355   0.382   5.628
    1OL    C118 5197   5.307   0.210   5.512
    1OL    H18R 5198   5.413   0.201   5.489
    1OL    H18S 5199   5.257   0.254   5.425
    1OL    H18T 5200   5.267   0.110   5.529
    1PA    C116 5201   0.646   0.703   5.457
    1PA    H16R 5202   0.635   0.669   5.354
    1PA    H16S 5203   0.588   0.796   5.468
    1PA    H16T 5204   0.601   0.629   5.524
    1PA    C115 5205   0.793   0.729   5.492
    1PA    H15R 5206   0.822   0.822   5.443
    1PA    H15S 5207   0.803   0.745   5.600
    1PA    C114 5208   0.893   0.621   5.446
    1PA    H14R 5209   0.874   0.530   5.504
    1PA    H14S 5210   0.874   0.595   5.342
    1PA    C113 5211   1.040   0.665   5.462
    1PA    H13R 5212   1.063   0.740   5.386
    1PA    H13S 5213   1.052   0.713   5.560
    1PA    C112 5214   1.143   0.551   5.451
    1PA    H12R 5215   1.135   0.503   5.353
    1PA    H12S 5216   1.243   0.593   5.459
    1PA    C111 5217   1.124   0.448   5.563
    1PA    H11R 5218   1.124   0.499   5.659
    1PA    H11S 5219   1.026   0.402   5.550
    1PA    C110 5220   1.227   0.334   5.566
    1PA    H10R 5221   1.254   0.305   5.465
    1PA    H10S 5222   1.318   0.368   5.617
    1PA     C19 5223   1.169   0.211   5.639
    1PA     H9R 5224   1.091   0.167   5.577
    1PA     H9S 5225   1.248   0.136   5.650
    1PA     C18 5226   1.110   0.243   5.778
    1PA     H8R 5227   1.190   0.283   5.842
    1PA     H8S 5228   1.033   0.320   5.770
    1PA     C17 5229   1.047   0.120   5.845
    1PA     H7R 5230   0.958   0.088   5.790
    1PA     H7S 5231   1.120   0.039   5.842
    1PA     C16 5232   1.011   0.146   5.993
    1PA     H6R 5233   1.008   0.050   6.044
    1PA     H6S 5234   1.092   0.205   6.038
    1PA     C15 5235   0.879   0.221   6.017
    1PA     H5R 5236   0.882   0.313   5.958
    1PA     H5S 5237   0.796   0.161   5.980
    1PA     C14 5238   0.851   0.262   6.164
    1PA     H4R 5239   0.927   0.334   6.197
    1PA     H4S 5240   0.754   0.312   6.164
    1PA     C13 5241   0.835   0.152   6.269
    1PA     H3R 5242   0.751   0.091   6.235
    1PA     H3S 5243   0.924   0.089   6.271
    1PA     C12 5244   0.806   0.204   6.412
    1PA     H2R 5245   0.871   0.288   6.435
    1PA     H2S 5246   0.703   0.240   6.419
    1PC     C11 5247   0.828   0.099   6.520
    1PC     O12 5248   0.897   0.001   6.505
    1PC     O11 5249   0.765   0.128   6.634
    1PC      C1 5250   0.829   0.089   6.760
    1PC      HR 5251   0.759   0.031   6.821
    1PC      HS 5252   0.918   0.027   6.743
    1PC      C2 5253   0.868   0.219   6.835
    1PC      HX 5254   0.941   0.274   6.774
    1PC      C3 5255   0.932   0.195   6.973
    1PC      HA 5256   0.866   0.134   7.035
    1PC      HB 5257   1.026   0.140   6.959
    1PC     O31 5258   0.964   0.320   7.040
    1PC     P31 5259   0.883   0.370   7.168
    1PC     O32 5260   0.878   0.527   7.145
    1PC     C31 5261   0.787   0.582   7.050
    1PC     H1A 5262   0.815   0.550   6.949
    1PC     H1B 5263   0.686   0.546   7.072
    1PC     C32 5264   0.793   0.735   7.067
    1PC     H2A 5265   0.707   0.780   7.017
    1PC     H2B 5266   0.786   0.757   7.173
    1PC     N31 5267   0.915   0.806   7.015
    1PC     C33 5268   0.920   0.797   6.866
    1PC     H3A 5269   1.004   0.857   6.831
    1PC     H3B 5270   0.933   0.693   6.837
    1PC     H3C 5271   0.827   0.837   6.826
    1PC     C34 5272   0.904   0.949   7.054
    1PC     H4A 5273   0.902   0.957   7.163
    1PC     H4B 5274   0.989   1.004   7.013
    1PC     H4C 5275   0.814   0.992   7.011
    1PC     C35 5276   1.042   0.752   7.073
    1PC     H5A 5277   1.036   0.760   7.181
    1PC     H5B 5278   1.126   0.811   7.034
    1PC     H5C 5279   1.051   0.647   7.045
    1PC     O33 5280   0.743   0.325   7.164
    1PC     O34 5281   0.965   0.346   7.289
    1PC     O21 5282   0.746   0.296   6.852
    1PC     C21 5283   0.711   0.379   6.752
    1PC     O22 5284   0.790   0.430   6.674
    1OL     C12 5285   0.562   0.401   6.752
    1OL     H2R 5286   0.531   0.432   6.852
    1OL     H2S 5287   0.515   0.304   6.731
    1OL     C13 5288   0.515   0.504   6.648
    1OL     H3R 5289   0.406   0.502   6.644
    1OL     H3S 5290   0.551   0.473   6.549
    1OL     C14 5291   0.562   0.647   6.682
    1OL     H4R 5292   0.670   0.649   6.692
    1OL     H4S 5293   0.520   0.675   6.778
    1OL     C15 5294   0.520   0.752   6.577
    1OL     H5R 5295   0.558   0.849   6.608
    1OL     H5S 5296   0.411   0.759   6.575
    1OL     C16 5297   0.570   0.722   6.434
    1OL     H6R 5298   0.537   0.804   6.368
    1OL     H6S 5299   0.521   0.632   6.397
    1OL     C17 5300   0.723   0.706   6.421
    1OL     H7R 5301   0.757   0.623   6.483
    1OL     H7S 5302   0.772   0.796   6.458
    1OL     C18 5303   0.767   0.679   6.276
    1OL     H8R 5304   0.876   0.670   6.274
    1OL     H8S 5305   0.739   0.763   6.212
    1OL     C19 5306   0.706   0.550   6.228
    1OL     H9R 5307   0.699   0.472   6.304
    1OL    C110 5308   0.659   0.523   6.106
    1OL    H10R 5309   0.615   0.426   6.088
    1OL    C111 5310   0.657   0.615   5.987
    1OL    H11R 5311   0.693   0.716   6.011
    1OL    H11S 5312   0.555   0.621   5.951
    1OL    C112 5313   0.735   0.558   5.869
    1OL    H12R 5314   0.838   0.539   5.898
    1OL    H12S 5315   0.736   0.634   5.790
    1OL    C113 5316   0.669   0.430   5.816
    1OL    H13R 5317   0.562   0.445   5.800
    1OL    H13S 5318   0.681   0.347   5.886
    1OL    C114 5319   0.735   0.398   5.683
    1OL    H14R 5320   0.843   0.407   5.693
    1OL    H14S 5321   0.702   0.474   5.611
    1OL    C115 5322   0.703   0.261   5.623
    1OL    H15R 5323   0.595   0.244   5.618
    1OL    H15S 5324   0.748   0.183   5.685
    1OL    C116 5325   0.764   0.260   5.483
    1OL    H16R 5326   0.866   0.298   5.487
    1OL    H16S 5327   0.708   0.327   5.417
    1OL    C117 5328   0.769   0.121   5.423
    1OL    H17R 5329   0.667   0.093   5.397
    1OL    H17S 5330   0.808   0.050   5.497
    1OL    C118 5331   0.856   0.120   5.298
    1OL    H18R 5332   0.939   0.190   5.305
    1OL    H18S 5333   0.792   0.146   5.213
    1OL    H18T 5334   0.896   0.020   5.277
    1PA    C116 5335   5.061   5.249   5.357
    1PA    H16R 5336   5.001   5.264   5.267
    1PA    H16S 5337   5.115   5.341   5.378
    1PA    H16T 5338   4.991   5.226   5.438
    1PA    C115 5339   5.158   5.133   5.336
    1PA    H15R 5340   5.097   5.042   5.335
    1PA    H15S 5341   5.199   5.141   5.235
    1PA    C114 5342   5.277   5.109   5.431
    1PA    H14R 5343   5.334   5.200   5.446
    1PA    H14S 5344   5.245   5.075   5.530
    1PA    C113 5345   5.363   5.001   5.363
    1PA    H13R 5346   5.298   4.929   5.313
    1PA    H13S 5347   5.418   5.053   5.284
    1PA    C112 5348   5.461   4.920   5.448
    1PA    H12R 5349   5.529   4.865   5.383
    1PA    H12S 5350   5.522   4.988   5.509
    1PA    C111 5351   5.391   4.821   5.541
    1PA    H11R 5352   5.302   4.869   5.583
    1PA    H11S 5353   5.357   4.733   5.486
    1PA    C110 5354   5.481   4.780   5.658
    1PA    H10R 5355   5.557   4.709   5.624
    1PA    H10S 5356   5.532   4.869   5.694
    1PA     C19 5357   5.399   4.719   5.772
    1PA     H9R 5358   5.315   4.785   5.795
    1PA     H9S 5359   5.357   4.623   5.740
    1PA     C18 5360   5.481   4.699   5.901
    1PA     H8R 5361   5.420   4.643   5.972
    1PA     H8S 5362   5.570   4.640   5.879
    1PA     C17 5363   5.522   4.833   5.966
    1PA     H7R 5364   5.584   4.892   5.898
    1PA     H7S 5365   5.431   4.891   5.984
    1PA     C16 5366   5.599   4.811   6.097
    1PA     H6R 5367   5.566   4.718   6.145
    1PA     H6S 5368   5.705   4.798   6.075
    1PA     C15 5369   5.579   4.927   6.196
    1PA     H5R 5370   5.652   4.919   6.277
    1PA     H5S 5371   5.596   5.022   6.146
    1PA     C14 5372   5.435   4.922   6.252
    1PA     H4R 5373   5.384   5.016   6.230
    1PA     H4S 5374   5.379   4.844   6.201
    1PA     C13 5375   5.428   4.893   6.403
    1PA     H3R 5376   5.341   4.829   6.423
    1PA     H3S 5377   5.515   4.836   6.435
    1PA     C12 5378   5.415   5.022   6.485
    1PA     H2R 5379   5.508   5.078   6.475
    1PA     H2S 5380   5.337   5.087   6.446
    1PC     C11 5381   5.386   4.996   6.631
    1PC     O12 5382   5.381   4.886   6.681
    1PC     O11 5383   5.366   5.110   6.699
    1PC      C1 5384   5.382   5.112   6.844
    1PC      HR 5385   5.365   5.013   6.887
    1PC      HS 5386   5.484   5.144   6.868
    1PC      C2 5387   5.282   5.211   6.906
    1PC      HX 5388   5.283   5.303   6.847
    1PC      C3 5389   5.321   5.245   7.051
    1PC      HA 5390   5.420   5.291   7.052
    1PC      HB 5391   5.251   5.319   7.092
    1PC     O31 5392   5.327   5.127   7.136
    1PC     P31 5393   5.207   5.084   7.232
    1PC     O32 5394   5.158   4.947   7.165
    1PC     C31 5395   5.236   4.829   7.191
    1PC     H1A 5396   5.341   4.849   7.170
    1PC     H1B 5397   5.227   4.805   7.297
    1PC     C32 5398   5.184   4.711   7.105
    1PC     H2A 5399   5.229   4.619   7.142
    1PC     H2B 5400   5.076   4.704   7.116
    1PC     N31 5401   5.214   4.715   6.958
    1PC     C33 5402   5.361   4.722   6.934
    1PC     H3A 5403   5.410   4.638   6.985
    1PC     H3B 5404   5.381   4.718   6.826
    1PC     H3C 5405   5.399   4.816   6.975
    1PC     C34 5406   5.164   4.590   6.894
    1PC     H4A 5407   5.187   4.595   6.787
    1PC     H4B 5408   5.216   4.506   6.941
    1PC     H4C 5409   5.057   4.584   6.911
    1PC     C35 5410   5.147   4.830   6.891
    1PC     H5A 5411   5.039   4.819   6.902
    1PC     H5B 5412   5.178   4.833   6.786
    1PC     H5C 5413   5.179   4.921   6.942
    1PC     O33 5414   5.265   5.052   7.363
    1PC     O34 5415   5.101   5.188   7.224
    1PC     O21 5416   5.154   5.144   6.897
    1PC     C21 5417   5.054   5.208   6.836
    1PC     O22 5418   5.041   5.328   6.829
    1OL     C12 5419   4.965   5.107   6.766
    1OL     H2R 5420   4.871   5.157   6.743
    1OL     H2S 5421   4.943   5.026   6.836
    1OL     C13 5422   5.037   5.052   6.640
    1OL     H3R 5423   5.130   5.005   6.673
    1OL     H3S 5424   5.065   5.135   6.575
    1OL     C14 5425   4.959   4.947   6.558
    1OL     H4R 5426   4.878   4.995   6.502
    1OL     H4S 5427   4.912   4.877   6.627
    1OL     C15 5428   5.044   4.867   6.458
    1OL     H5R 5429   4.980   4.791   6.412
    1OL     H5S 5430   5.123   4.815   6.513
    1OL     C16 5431   5.105   4.939   6.338
    1OL     H6R 5432   5.176   4.870   6.292
    1OL     H6S 5433   5.159   5.029   6.370
    1OL     C17 5434   5.004   4.979   6.229
    1OL     H7R 5435   4.947   5.064   6.266
    1OL     H7S 5436   4.935   4.897   6.209
    1OL     C18 5437   5.076   5.018   6.099
    1OL     H8R 5438   5.158   5.087   6.121
    1OL     H8S 5439   5.005   5.071   6.035
    1OL     C19 5440   5.131   4.898   6.024
    1OL     H9R 5441   5.227   4.859   6.060
    1OL    C110 5442   5.072   4.840   5.921
    1OL    H10R 5443   5.118   4.755   5.872
    1OL    C111 5444   4.940   4.885   5.862
    1OL    H11R 5445   4.871   4.911   5.942
    1OL    H11S 5446   4.895   4.802   5.807
    1OL    C112 5447   4.955   5.006   5.768
    1OL    H12R 5448   5.010   5.085   5.820
    1OL    H12S 5449   4.858   5.047   5.742
    1OL    C113 5450   5.032   4.972   5.640
    1OL    H13R 5451   5.123   4.920   5.667
    1OL    H13S 5452   5.058   5.068   5.595
    1OL    C114 5453   4.954   4.892   5.534
    1OL    H14R 5454   4.898   4.965   5.474
    1OL    H14S 5455   4.882   4.826   5.582
    1OL    C115 5456   5.043   4.809   5.441
    1OL    H15R 5457   5.070   4.717   5.494
    1OL    H15S 5458   5.137   4.861   5.422
    1OL    C116 5459   4.979   4.770   5.306
    1OL    H16R 5460   4.882   4.722   5.324
    1OL    H16S 5461   5.046   4.695   5.263
    1OL    C117 5462   4.965   4.878   5.197
    1OL    H17R 5463   5.063   4.901   5.156
    1OL    H17S 5464   4.927   4.971   5.240
    1OL    C118 5465   4.872   4.835   5.081
    1OL    H18R 5466   4.860   4.917   5.011
    1OL    H18S 5467   4.773   4.809   5.118
    1OL    H18T 5468   4.913   4.749   5.028
    1PA    C116 5469   5.245   3.380   5.003
    1PA    H16R 5470   5.159   3.391   5.070
    1PA    H16S 5471   5.243   3.280   4.960
    1PA    H16T 5472   5.234   3.450   4.920
    1PA    C115 5473   5.376   3.405   5.080
    1PA    H15R 5474   5.457   3.370   5.015
    1PA    H15S 5475   5.393   3.512   5.094
    1PA    C114 5476   5.382   3.331   5.216
    1PA    H14R 5477   5.279   3.311   5.248
    1PA    H14S 5478   5.431   3.236   5.197
    1PA    C113 5479   5.454   3.401   5.334
    1PA    H13R 5480   5.544   3.451   5.297
    1PA    H13S 5481   5.389   3.480   5.373
    1PA    C112 5482   5.489   3.307   5.452
    1PA    H12R 5483   5.399   3.253   5.483
    1PA    H12S 5484   5.561   3.233   5.419
    1PA    C111 5485   5.545   3.385   5.574
    1PA    H11R 5486   5.631   3.444   5.542
    1PA    H11S 5487   5.468   3.455   5.607
    1PA    C110 5488   5.588   3.298   5.695
    1PA    H10R 5489   5.510   3.227   5.722
    1PA    H10S 5490   5.674   3.238   5.663
    1PA     C19 5491   5.631   3.380   5.819
    1PA     H9R 5492   5.687   3.314   5.886
    1PA     H9S 5493   5.702   3.456   5.785
    1PA     C18 5494   5.522   3.452   5.902
    1PA     H8R 5495   5.565   3.547   5.936
    1PA     H8S 5496   5.437   3.478   5.839
    1PA     C17 5497   5.476   3.375   6.029
    1PA     H7R 5498   5.506   3.271   6.015
    1PA     H7S 5499   5.530   3.412   6.116
    1PA     C16 5500   5.324   3.370   6.057
    1PA     H6R 5501   5.274   3.353   5.962
    1PA     H6S 5502   5.307   3.283   6.120
    1PA     C15 5503   5.252   3.490   6.122
    1PA     H5R 5504   5.272   3.580   6.063
    1PA     H5S 5505   5.144   3.473   6.112
    1PA     C14 5506   5.282   3.516   6.270
    1PA     H4R 5507   5.390   3.522   6.286
    1PA     H4S 5508   5.238   3.611   6.299
    1PA     C13 5509   5.222   3.405   6.358
    1PA     H3R 5510   5.115   3.396   6.335
    1PA     H3S 5511   5.268   3.309   6.334
    1PA     C12 5512   5.237   3.431   6.509
    1PA     H2R 5513   5.342   3.441   6.535
    1PA     H2S 5514   5.185   3.523   6.538
    1PC     C11 5515   5.177   3.315   6.584
    1PC     O12 5516   5.060   3.287   6.580
    1PC     O11 5517   5.269   3.239   6.644
    1PC      C1 5518   5.223   3.111   6.698
    1PC      HR 5519   5.138   3.129   6.765
    1PC      HS 5520   5.188   3.047   6.617
    1PC      C2 5521   5.340   3.047   6.777
    1PC      HX 5522   5.318   2.943   6.800
    1PC      C3 5523   5.353   3.131   6.907
    1PC      HA 5524   5.397   3.229   6.882
    1PC      HB 5525   5.253   3.149   6.948
    1PC     O31 5526   5.431   3.070   7.013
    1PC     P31 5527   5.457   3.152   7.150
    1PC     O32 5528   5.577   3.248   7.108
    1PC     C31 5529   5.696   3.256   7.188
    1PC     H1A 5530   5.752   3.346   7.159
    1PC     H1B 5531   5.667   3.266   7.292
    1PC     C32 5532   5.783   3.130   7.167
    1PC     H2A 5533   5.866   3.133   7.239
    1PC     H2B 5534   5.723   3.042   7.189
    1PC     N31 5535   5.845   3.106   7.032
    1PC     C33 5536   5.939   2.990   7.045
    1PC     H3A 5537   6.012   3.013   7.122
    1PC     H3B 5538   5.881   2.903   7.075
    1PC     H3C 5539   5.987   2.972   6.949
    1PC     C34 5540   5.742   3.071   6.930
    1PC     H4A 5541   5.792   3.048   6.835
    1PC     H4B 5542   5.686   2.984   6.965
    1PC     H4C 5543   5.674   3.155   6.919
    1PC     C35 5544   5.923   3.225   6.987
    1PC     H5A 5545   5.975   3.201   6.895
    1PC     H5B 5546   5.994   3.253   7.065
    1PC     H5C 5547   5.852   3.307   6.970
    1PC     O33 5548   5.343   3.241   7.182
    1PC     O34 5549   5.505   3.062   7.256
    1PC     O21 5550   5.464   3.056   6.697
    1PC     C21 5551   5.463   3.011   6.569
    1PC     O22 5552   5.375   2.942   6.521
    1OL     C12 5553   5.578   3.067   6.487
    1OL     H2R 5554   5.672   3.031   6.529
    1OL     H2S 5555   5.577   3.176   6.499
    1OL     C13 5556   5.569   3.032   6.336
    1OL     H3R 5557   5.468   3.051   6.299
    1OL     H3S 5558   5.588   2.925   6.324
    1OL     C14 5559   5.669   3.114   6.251
    1OL     H4R 5560   5.768   3.107   6.295
    1OL     H4S 5561   5.640   3.219   6.255
    1OL     C15 5562   5.677   3.071   6.102
    1OL     H5R 5563   5.737   3.145   6.049
    1OL     H5S 5564   5.577   3.072   6.057
    1OL     C16 5565   5.741   2.932   6.083
    1OL     H6R 5566   5.674   2.855   6.122
    1OL     H6S 5567   5.831   2.929   6.145
    1OL     C17 5568   5.784   2.900   5.938
    1OL     H7R 5569   5.860   2.822   5.946
    1OL     H7S 5570   5.833   2.987   5.894
    1OL     C18 5571   5.680   2.844   5.840
    1OL     H8R 5572   5.729   2.824   5.744
    1OL     H8S 5573   5.606   2.922   5.821
    1OL     C19 5574   5.612   2.720   5.893
    1OL     H9R 5575   5.574   2.731   5.995
    1OL    C110 5576   5.594   2.602   5.834
    1OL    H10R 5577   5.539   2.524   5.888
    1OL    C111 5578   5.639   2.560   5.697
    1OL    H11R 5579   5.710   2.478   5.711
    1OL    H11S 5580   5.693   2.641   5.647
    1OL    C112 5581   5.527   2.508   5.606
    1OL    H12R 5582   5.472   2.429   5.659
    1OL    H12S 5583   5.571   2.461   5.518
    1OL    C113 5584   5.426   2.615   5.559
    1OL    H13R 5585   5.367   2.646   5.645
    1OL    H13S 5586   5.356   2.567   5.489
    1OL    C114 5587   5.488   2.739   5.491
    1OL    H14R 5588   5.564   2.781   5.558
    1OL    H14S 5589   5.412   2.817   5.480
    1OL    C115 5590   5.548   2.705   5.354
    1OL    H15R 5591   5.471   2.653   5.296
    1OL    H15S 5592   5.628   2.633   5.367
    1OL    C116 5593   5.598   2.822   5.266
    1OL    H16R 5594   5.514   2.857   5.205
    1OL    H16S 5595   5.669   2.781   5.193
    1OL    C117 5596   5.662   2.946   5.332
    1OL    H17R 5597   5.584   3.007   5.378
    1OL    H17S 5598   5.706   3.006   5.252
    1OL    C118 5599   5.771   2.922   5.437
    1OL    H18R 5600   5.831   3.012   5.449
    1OL    H18S 5601   5.728   2.898   5.534
    1OL    H18T 5602   5.836   2.840   5.406
    1PA    C116 5603   1.076   5.312   5.208
    1PA    H16R 5604   1.181   5.285   5.214
    1PA    H16S 5605   1.067   5.410   5.161
    1PA    H16T 5606   1.025   5.238   5.146
    1PA    C115 5607   1.014   5.315   5.349
    1PA    H15R 5608   0.907   5.335   5.342
    1PA    H15S 5609   1.025   5.215   5.393
    1PA    C114 5610   1.080   5.421   5.439
    1PA    H14R 5611   1.168   5.462   5.389
    1PA    H14S 5612   1.012   5.504   5.455
    1PA    C113 5613   1.122   5.366   5.575
    1PA    H13R 5614   1.190   5.282   5.559
    1PA    H13S 5615   1.177   5.445   5.627
    1PA    C112 5616   1.006   5.323   5.665
    1PA    H12R 5617   0.937   5.407   5.677
    1PA    H12S 5618   0.950   5.241   5.619
    1PA    C111 5619   1.056   5.280   5.804
    1PA    H11R 5620   1.133   5.349   5.839
    1PA    H11S 5621   0.972   5.287   5.874
    1PA    C110 5622   1.111   5.136   5.808
    1PA    H10R 5623   1.030   5.066   5.787
    1PA    H10S 5624   1.184   5.121   5.727
    1PA     C19 5625   1.176   5.099   5.943
    1PA     H9R 5626   1.218   4.999   5.936
    1PA     H9S 5627   1.258   5.168   5.965
    1PA     C18 5628   1.072   5.103   6.055
    1PA     H8R 5629   1.045   5.207   6.073
    1PA     H8S 5630   0.982   5.050   6.023
    1PA     C17 5631   1.120   5.042   6.188
    1PA     H7R 5632   1.033   5.009   6.244
    1PA     H7S 5633   1.182   4.955   6.169
    1PA     C16 5634   1.196   5.146   6.272
    1PA     H6R 5635   1.282   5.182   6.214
    1PA     H6S 5636   1.132   5.231   6.292
    1PA     C15 5637   1.243   5.086   6.406
    1PA     H5R 5638   1.156   5.056   6.464
    1PA     H5S 5639   1.301   4.995   6.387
    1PA     C14 5640   1.328   5.184   6.489
    1PA     H4R 5641   1.267   5.272   6.511
    1PA     H4S 5642   1.351   5.136   6.585
    1PA     C13 5643   1.458   5.227   6.419
    1PA     H3R 5644   1.509   5.137   6.382
    1PA     H3S 5645   1.435   5.289   6.333
    1PA     C12 5646   1.555   5.303   6.511
    1PA     H2R 5647   1.579   5.242   6.598
    1PA     H2S 5648   1.648   5.323   6.458
    1PC     C11 5649   1.498   5.435   6.557
    1PC     O12 5650   1.473   5.526   6.481
    1PC     O11 5651   1.480   5.442   6.690
    1PC      C1 5652   1.396   5.549   6.744
    1PC      HR 5653   1.428   5.569   6.846
    1PC      HS 5654   1.407   5.641   6.686
    1PC      C2 5655   1.247   5.502   6.748
    1PC      HX 5656   1.184   5.575   6.799
    1PC      C3 5657   1.244   5.370   6.826
    1PC      HA 5658   1.320   5.301   6.789
    1PC      HB 5659   1.268   5.398   6.929
    1PC     O31 5660   1.120   5.296   6.825
    1PC     P31 5661   1.019   5.302   6.948
    1PC     O32 5662   1.118   5.283   7.071
    1PC     C31 5663   1.100   5.175   7.164
    1PC     H1A 5664   1.011   5.194   7.223
    1PC     H1B 5665   1.087   5.081   7.110
    1PC     C32 5666   1.226   5.171   7.253
    1PC     H2A 5667   1.237   5.267   7.303
    1PC     H2B 5668   1.211   5.094   7.330
    1PC     N31 5669   1.358   5.140   7.189
    1PC     C33 5670   1.348   5.022   7.098
    1PC     H3A 5671   1.311   4.937   7.156
    1PC     H3B 5672   1.278   5.048   7.018
    1PC     H3C 5673   1.447   5.001   7.057
    1PC     C34 5674   1.412   5.255   7.112
    1PC     H4A 5675   1.344   5.269   7.028
    1PC     H4B 5676   1.412   5.342   7.177
    1PC     H4C 5677   1.513   5.231   7.079
    1PC     C35 5678   1.456   5.111   7.297
    1PC     H5A 5679   1.552   5.087   7.253
    1PC     H5B 5680   1.418   5.027   7.356
    1PC     H5C 5681   1.465   5.200   7.360
    1PC     O33 5682   0.964   5.438   6.957
    1PC     O34 5683   0.932   5.183   6.944
    1PC     O21 5684   1.203   5.485   6.611
    1PC     C21 5685   1.175   5.597   6.543
    1PC     O22 5686   1.161   5.706   6.596
    1OL     C12 5687   1.178   5.574   6.394
    1OL     H2R 5688   1.090   5.517   6.363
    1OL     H2S 5689   1.263   5.508   6.374
    1OL     C13 5690   1.190   5.704   6.311
    1OL     H3R 5691   1.212   5.790   6.375
    1OL     H3S 5692   1.094   5.726   6.264
    1OL     C14 5693   1.298   5.701   6.202
    1OL     H4R 5694   1.394   5.722   6.250
    1OL     H4S 5695   1.279   5.783   6.132
    1OL     C15 5696   1.310   5.569   6.124
    1OL     H5R 5697   1.213   5.534   6.088
    1OL     H5S 5698   1.349   5.491   6.190
    1OL     C16 5699   1.408   5.580   6.007
    1OL     H6R 5700   1.362   5.636   5.925
    1OL     H6S 5701   1.426   5.478   5.972
    1OL     C17 5702   1.539   5.649   6.050
    1OL     H7R 5703   1.564   5.616   6.151
    1OL     H7S 5704   1.521   5.757   6.052
    1OL     C18 5705   1.663   5.625   5.962
    1OL     H8R 5706   1.750   5.669   6.011
    1OL     H8S 5707   1.651   5.676   5.867
    1OL     C19 5708   1.685   5.476   5.944
    1OL     H9R 5709   1.743   5.428   6.022
    1OL    C110 5710   1.639   5.405   5.842
    1OL    H10R 5711   1.661   5.299   5.838
    1OL    C111 5712   1.557   5.460   5.727
    1OL    H11R 5713   1.616   5.459   5.635
    1OL    H11S 5714   1.528   5.564   5.743
    1OL    C112 5715   1.429   5.379   5.701
    1OL    H12R 5716   1.389   5.414   5.606
    1OL    H12S 5717   1.355   5.402   5.778
    1OL    C113 5718   1.447   5.227   5.694
    1OL    H13R 5719   1.355   5.185   5.654
    1OL    H13S 5720   1.462   5.185   5.794
    1OL    C114 5721   1.562   5.184   5.602
    1OL    H14R 5722   1.657   5.190   5.656
    1OL    H14S 5723   1.567   5.255   5.519
    1OL    C115 5724   1.544   5.044   5.542
    1OL    H15R 5725   1.540   4.969   5.621
    1OL    H15S 5726   1.634   5.024   5.482
    1OL    C116 5727   1.420   5.030   5.451
    1OL    H16R 5728   1.397   5.126   5.404
    1OL    H16S 5729   1.334   5.003   5.513
    1OL    C117 5730   1.442   4.924   5.342
    1OL    H17R 5731   1.345   4.895   5.301
    1OL    H17S 5732   1.486   4.834   5.386
    1OL    C118 5733   1.531   4.976   5.228
    1OL    H18R 5734   1.483   5.060   5.178
    1OL    H18S 5735   1.548   4.897   5.154
    1OL    H18T 5736   1.628   5.009   5.265
    1PA    C116 5737   0.636   4.370   5.381
    1PA    H16R 5738   0.648   4.462   5.323
    1PA    H16S 5739   0.672   4.286   5.321
    1PA    H16T 5740   0.697   4.376   5.471
    1PA    C115 5741   0.488   4.349   5.416
    1PA    H15R 5742   0.430   4.334   5.324
    1PA    H15S 5743   0.477   4.258   5.475
    1PA    C114 5744   0.427   4.468   5.493
    1PA    H14R 5745   0.443   4.560   5.437
    1PA    H14S 5746   0.319   4.452   5.498
    1PA    C113 5747   0.483   4.482   5.636
    1PA    H13R 5748   0.487   4.383   5.682
    1PA    H13S 5749   0.586   4.519   5.633
    1PA    C112 5750   0.395   4.573   5.723
    1PA    H12R 5751   0.290   4.558   5.696
    1PA    H12S 5752   0.406   4.543   5.827
    1PA    C111 5753   0.428   4.722   5.711
    1PA    H11R 5754   0.520   4.742   5.768
    1PA    H11S 5755   0.448   4.749   5.607
    1PA    C110 5756   0.312   4.809   5.765
    1PA    H10R 5757   0.250   4.840   5.681
    1PA    H10S 5758   0.249   4.749   5.831
    1PA     C19 5759   0.361   4.932   5.842
    1PA     H9R 5760   0.442   4.980   5.786
    1PA     H9S 5761   0.279   5.005   5.848
    1PA     C18 5762   0.406   4.897   5.985
    1PA     H8R 5763   0.336   4.940   6.056
    1PA     H8S 5764   0.405   4.788   6.000
    1PA     C17 5765   0.546   4.950   6.018
    1PA     H7R 5766   0.620   4.903   5.953
    1PA     H7S 5767   0.545   5.057   5.996
    1PA     C16 5768   0.584   4.930   6.166
    1PA     H6R 5769   0.516   4.989   6.228
    1PA     H6S 5770   0.571   4.825   6.194
    1PA     C15 5771   0.729   4.973   6.192
    1PA     H5R 5772   0.798   4.906   6.140
    1PA     H5S 5773   0.743   5.071   6.146
    1PA     C14 5774   0.764   4.979   6.342
    1PA     H4R 5775   0.847   5.049   6.355
    1PA     H4S 5776   0.680   5.019   6.399
    1PA     C13 5777   0.805   4.842   6.400
    1PA     H3R 5778   0.719   4.775   6.403
    1PA     H3S 5779   0.878   4.798   6.332
    1PA     C12 5780   0.871   4.852   6.540
    1PA     H2R 5781   0.946   4.772   6.544
    1PA     H2S 5782   0.923   4.948   6.551
    1PC     C11 5783   0.778   4.832   6.658
    1PC     O12 5784   0.809   4.762   6.753
    1PC     O11 5785   0.661   4.896   6.644
    1PC      C1 5786   0.553   4.873   6.739
    1PC      HR 5787   0.585   4.805   6.819
    1PC      HS 5788   0.526   4.969   6.784
    1PC      C2 5789   0.433   4.814   6.661
    1PC      HX 5790   0.416   4.881   6.576
    1PC      C3 5791   0.301   4.801   6.742
    1PC      HA 5792   0.280   4.892   6.798
    1PC      HB 5793   0.220   4.787   6.670
    1PC     O31 5794   0.296   4.689   6.834
    1PC     P31 5795   0.353   4.700   6.983
    1PC     O32 5796   0.498   4.638   6.969
    1PC     C31 5797   0.518   4.498   6.979
    1PC     H1A 5798   0.423   4.445   6.968
    1PC     H1B 5799   0.586   4.466   6.899
    1PC     C32 5800   0.579   4.472   7.119
    1PC     H2A 5801   0.511   4.514   7.193
    1PC     H2B 5802   0.585   4.364   7.135
    1PC     N31 5803   0.716   4.529   7.147
    1PC     C33 5804   0.709   4.675   7.177
    1PC     H3A 5805   0.670   4.726   7.089
    1PC     H3B 5806   0.641   4.691   7.261
    1PC     H3C 5807   0.809   4.712   7.200
    1PC     C34 5808   0.773   4.460   7.266
    1PC     H4A 5809   0.773   4.352   7.248
    1PC     H4B 5810   0.874   4.496   7.282
    1PC     H4C 5811   0.709   4.483   7.352
    1PC     C35 5812   0.810   4.509   7.032
    1PC     H5A 5813   0.911   4.535   7.064
    1PC     H5B 5814   0.779   4.575   6.951
    1PC     H5C 5815   0.809   4.405   7.001
    1PC     O33 5816   0.367   4.842   7.018
    1PC     O34 5817   0.273   4.611   7.070
    1PC     O21 5818   0.470   4.683   6.610
    1PC     C21 5819   0.407   4.639   6.501
    1PC     O22 5820   0.329   4.704   6.434
    1OL     C12 5821   0.442   4.495   6.472
    1OL     H2R 5822   0.366   4.433   6.520
    1OL     H2S 5823   0.537   4.471   6.519
    1OL     C13 5824   0.447   4.462   6.321
    1OL     H3R 5825   0.359   4.501   6.271
    1OL     H3S 5826   0.444   4.353   6.311
    1OL     C14 5827   0.574   4.514   6.251
    1OL     H4R 5828   0.662   4.480   6.306
    1OL     H4S 5829   0.575   4.623   6.252
    1OL     C15 5830   0.582   4.462   6.106
    1OL     H5R 5831   0.501   4.505   6.048
    1OL     H5S 5832   0.567   4.354   6.108
    1OL     C16 5833   0.716   4.490   6.036
    1OL     H6R 5834   0.719   4.433   5.943
    1OL     H6S 5835   0.798   4.453   6.099
    1OL     C17 5836   0.740   4.638   6.003
    1OL     H7R 5837   0.745   4.696   6.095
    1OL     H7S 5838   0.657   4.676   5.944
    1OL     C18 5839   0.871   4.655   5.925
    1OL     H8R 5840   0.870   4.589   5.838
    1OL     H8S 5841   0.954   4.624   5.988
    1OL     C19 5842   0.894   4.798   5.881
    1OL     H9R 5843   0.935   4.864   5.958
    1OL    C110 5844   0.868   4.847   5.760
    1OL    H10R 5845   0.888   4.952   5.740
    1OL    C111 5846   0.811   4.769   5.644
    1OL    H11R 5847   0.736   4.698   5.681
    1OL    H11S 5848   0.889   4.712   5.594
    1OL    C112 5849   0.742   4.864   5.543
    1OL    H12R 5850   0.675   4.930   5.598
    1OL    H12S 5851   0.679   4.805   5.477
    1OL    C113 5852   0.839   4.950   5.459
    1OL    H13R 5853   0.897   5.016   5.525
    1OL    H13S 5854   0.781   5.015   5.394
    1OL    C114 5855   0.938   4.869   5.372
    1OL    H14R 5856   1.007   4.814   5.436
    1OL    H14S 5857   0.998   4.939   5.313
    1OL    C115 5858   0.868   4.771   5.275
    1OL    H15R 5859   0.803   4.827   5.208
    1OL    H15S 5860   0.803   4.704   5.332
    1OL    C116 5861   0.967   4.687   5.192
    1OL    H16R 5862   1.070   4.709   5.222
    1OL    H16S 5863   0.958   4.715   5.087
    1OL    C117 5864   0.943   4.535   5.205
    1OL    H17R 5865   1.010   4.483   5.135
    1OL    H17S 5866   0.841   4.511   5.175
    1OL    C118 5867   0.968   4.480   5.347
    1OL    H18R 5868   0.957   4.372   5.348
    1OL    H18S 5869   0.898   4.523   5.418
    1OL    H18T 5870   1.070   4.504   5.380
    1PA    C116 5871   0.188   0.830   4.968
    1PA    H16R 5872   0.215   0.931   4.937
    1PA    H16S 5873   0.079   0.822   4.972
    1PA    H16T 5874   0.224   0.759   4.893
    1PA    C115 5875   0.246   0.797   5.105
    1PA    H15R 5876   0.240   0.689   5.123
    1PA    H15S 5877   0.352   0.824   5.108
    1PA    C114 5878   0.170   0.870   5.216
    1PA    H14R 5879   0.077   0.816   5.238
    1PA    H14S 5880   0.233   0.863   5.305
    1PA    C113 5881   0.136   1.017   5.183
    1PA    H13R 5882   0.228   1.071   5.159
    1PA    H13S 5883   0.071   1.022   5.096
    1PA    C112 5884   0.063   1.089   5.298
    1PA    H12R 5885   0.057   1.196   5.276
    1PA    H12S 5886  -0.038   1.051   5.307
    1PA    C111 5887   0.138   1.066   5.430
    1PA    H11R 5888   0.133   0.961   5.456
    1PA    H11S 5889   0.243   1.092   5.416
    1PA    C110 5890   0.084   1.144   5.550
    1PA    H10R 5891   0.084   1.251   5.530
    1PA    H10S 5892  -0.018   1.112   5.570
    1PA     C19 5893   0.177   1.111   5.667
    1PA     H9R 5894   0.194   1.003   5.672
    1PA     H9S 5895   0.275   1.157   5.650
    1PA     C18 5896   0.123   1.157   5.802
    1PA     H8R 5897   0.201   1.141   5.877
    1PA     H8S 5898   0.104   1.265   5.796
    1PA     C17 5899  -0.008   1.086   5.841
    1PA     H7R 5900  -0.091   1.132   5.789
    1PA     H7S 5901  -0.003   0.981   5.809
    1PA     C16 5902  -0.035   1.089   5.993
    1PA     H6R 5903  -0.031   1.192   6.028
    1PA     H6S 5904  -0.137   1.053   6.011
    1PA     C15 5905   0.063   1.000   6.071
    1PA     H5R 5906   0.043   0.896   6.044
    1PA     H5S 5907   0.166   1.022   6.044
    1PA     C14 5908   0.049   1.013   6.223
    1PA     H4R 5909  -0.057   1.006   6.248
    1PA     H4S 5910   0.099   0.929   6.272
    1PA     C13 5911   0.110   1.143   6.278
    1PA     H3R 5912   0.217   1.144   6.256
    1PA     H3S 5913   0.065   1.230   6.230
    1PA     C12 5914   0.089   1.151   6.430
    1PA     H2R 5915   0.136   1.064   6.477
    1PA     H2S 5916   0.138   1.239   6.474
    1PC     C11 5917  -0.058   1.151   6.465
    1PC     O12 5918  -0.146   1.200   6.398
    1PC     O11 5919  -0.080   1.082   6.576
    1PC      C1 5920  -0.187   0.983   6.575
    1PC      HR 5921  -0.270   1.017   6.638
    1PC      HS 5922  -0.224   0.966   6.474
    1PC      C2 5923  -0.128   0.851   6.632
    1PC      HX 5924  -0.207   0.783   6.664
    1PC      C3 5925  -0.034   0.882   6.750
    1PC      HA 5926   0.061   0.919   6.709
    1PC      HB 5927  -0.078   0.961   6.813
    1PC     O31 5928  -0.009   0.767   6.833
    1PC     P31 5929   0.122   0.763   6.925
    1PC     O32 5930   0.091   0.877   7.032
    1PC     C31 5931   0.181   0.893   7.143
    1PC     H1A 5932   0.228   0.797   7.167
    1PC     H1B 5933   0.259   0.963   7.115
    1PC     C32 5934   0.104   0.942   7.267
    1PC     H2A 5935   0.174   0.947   7.350
    1PC     H2B 5936   0.065   1.043   7.248
    1PC     N31 5937  -0.013   0.861   7.317
    1PC     C33 5938  -0.056   0.918   7.448
    1PC     H3A 5939   0.025   0.904   7.521
    1PC     H3B 5940  -0.079   1.024   7.436
    1PC     H3C 5941  -0.145   0.864   7.481
    1PC     C34 5942  -0.129   0.867   7.224
    1PC     H4A 5943  -0.214   0.819   7.273
    1PC     H4B 5944  -0.149   0.971   7.199
    1PC     H4C 5945  -0.102   0.809   7.136
    1PC     C35 5946   0.022   0.718   7.337
    1PC     H5A 5947   0.053   0.677   7.241
    1PC     H5B 5948  -0.068   0.666   7.371
    1PC     H5C 5949   0.101   0.709   7.412
    1PC     O33 5950   0.126   0.637   7.002
    1PC     O34 5951   0.240   0.810   6.852
    1PC     O21 5952  -0.048   0.788   6.529
    1PC     C21 5953  -0.110   0.712   6.437
    1PC     O22 5954  -0.231   0.704   6.427
    1OL     C12 5955  -0.016   0.646   6.339
    1OL     H2R 5956  -0.008   0.714   6.254
    1OL     H2S 5957  -0.062   0.554   6.303
    1OL     C13 5958   0.123   0.614   6.398
    1OL     H3R 5959   0.115   0.527   6.464
    1OL     H3S 5960   0.160   0.697   6.459
    1OL     C14 5961   0.228   0.588   6.289
    1OL     H4R 5962   0.190   0.513   6.220
    1OL     H4S 5963   0.318   0.547   6.335
    1OL     C15 5964   0.264   0.717   6.212
    1OL     H5R 5965   0.304   0.791   6.282
    1OL     H5S 5966   0.174   0.761   6.168
    1OL     C16 5967   0.365   0.693   6.101
    1OL     H6R 5968   0.348   0.595   6.056
    1OL     H6S 5969   0.463   0.688   6.151
    1OL     C17 5970   0.373   0.802   5.991
    1OL     H7R 5971   0.474   0.806   5.951
    1OL     H7S 5972   0.357   0.900   6.037
    1OL     C18 5973   0.277   0.786   5.870
    1OL     H8R 5974   0.316   0.847   5.788
    1OL     H8S 5975   0.180   0.830   5.896
    1OL     C19 5976   0.259   0.644   5.820
    1OL     H9R 5977   0.338   0.606   5.756
    1OL    C110 5978   0.155   0.566   5.849
    1OL    H10R 5979   0.148   0.466   5.809
    1OL    C111 5980   0.039   0.609   5.938
    1OL    H11R 5981   0.078   0.664   6.024
    1OL    H11S 5982  -0.012   0.521   5.979
    1OL    C112 5983  -0.060   0.699   5.864
    1OL    H12R 5984  -0.005   0.763   5.794
    1OL    H12S 5985  -0.112   0.764   5.935
    1OL    C113 5986  -0.163   0.616   5.789
    1OL    H13R 5987  -0.231   0.575   5.864
    1OL    H13S 5988  -0.112   0.533   5.741
    1OL    C114 5989  -0.244   0.696   5.685
    1OL    H14R 5990  -0.284   0.785   5.734
    1OL    H14S 5991  -0.330   0.637   5.652
    1OL    C115 5992  -0.163   0.740   5.561
    1OL    H15R 5993  -0.081   0.805   5.594
    1OL    H15S 5994  -0.228   0.803   5.499
    1OL    C116 5995  -0.106   0.629   5.471
    1OL    H16R 5996  -0.045   0.561   5.531
    1OL    H16S 5997  -0.039   0.677   5.400
    1OL    C117 5998  -0.210   0.547   5.392
    1OL    H17R 5999  -0.264   0.480   5.459
    1OL    H17S 6000  -0.157   0.482   5.322
    1OL    C118 6001  -0.317   0.627   5.315
    1OL    H18R 6002  -0.271   0.711   5.263
    1OL    H18S 6003  -0.393   0.664   5.384
    1OL    H18T 6004  -0.365   0.563   5.241
    1PA    C116 6005   0.195   5.093   5.293
    1PA    H16R 6006   0.241   4.999   5.323
    1PA    H16S 6007   0.236   5.123   5.196
    1PA    H16T 6008   0.087   5.078   5.279
    1PA    C115 6009   0.221   5.203   5.396
    1PA    H15R 6010   0.328   5.200   5.418
    1PA    H15S 6011   0.200   5.301   5.352
    1PA    C114 6012   0.143   5.193   5.529
    1PA    H14R 6013   0.036   5.193   5.509
    1PA    H14S 6014   0.170   5.101   5.581
    1PA    C113 6015   0.178   5.315   5.615
    1PA    H13R 6016   0.287   5.322   5.615
    1PA    H13S 6017   0.138   5.405   5.568
    1PA    C112 6018   0.131   5.308   5.762
    1PA    H12R 6019   0.022   5.296   5.766
    1PA    H12S 6020   0.175   5.221   5.809
    1PA    C111 6021   0.172   5.435   5.841
    1PA    H11R 6022   0.103   5.516   5.818
    1PA    H11S 6023   0.162   5.413   5.948
    1PA    C110 6024   0.316   5.480   5.809
    1PA    H10R 6025   0.378   5.390   5.798
    1PA    H10S 6026   0.318   5.532   5.713
    1PA     C19 6027   0.383   5.567   5.916
    1PA     H9R 6028   0.380   5.512   6.010
    1PA     H9S 6029   0.488   5.580   5.890
    1PA     C18 6030   0.319   5.706   5.933
    1PA     H8R 6031   0.337   5.765   5.843
    1PA     H8S 6032   0.211   5.697   5.944
    1PA     C17 6033   0.377   5.782   6.055
    1PA     H7R 6034   0.483   5.800   6.037
    1PA     H7S 6035   0.328   5.880   6.061
    1PA     C16 6036   0.362   5.708   6.190
    1PA     H6R 6037   0.427   5.621   6.191
    1PA     H6S 6038   0.397   5.774   6.270
    1PA     C15 6039   0.217   5.665   6.220
    1PA     H5R 6040   0.153   5.753   6.225
    1PA     H5S 6041   0.180   5.602   6.139
    1PA     C14 6042   0.205   5.584   6.351
    1PA     H4R 6043   0.272   5.497   6.344
    1PA     H4S 6044   0.238   5.645   6.435
    1PA     C13 6045   0.061   5.536   6.374
    1PA     H3R 6046  -0.004   5.623   6.376
    1PA     H3S 6047   0.031   5.474   6.289
    1PA     C12 6048   0.036   5.456   6.505
    1PA     H2R 6049   0.069   5.515   6.591
    1PA     H2S 6050  -0.072   5.440   6.516
    1PC     C11 6051   0.104   5.321   6.510
    1PC     O12 6052   0.169   5.275   6.418
    1PC     O11 6053   0.081   5.255   6.626
    1PC      C1 6054   0.158   5.134   6.656
    1PC      HR 6055   0.092   5.059   6.700
    1PC      HS 6056   0.201   5.091   6.565
    1PC      C2 6057   0.268   5.165   6.760
    1PC      HX 6058   0.334   5.079   6.774
    1PC      C3 6059   0.203   5.191   6.897
    1PC      HA 6060   0.132   5.273   6.887
    1PC      HB 6061   0.151   5.101   6.932
    1PC     O31 6062   0.301   5.223   6.997
    1PC     P31 6063   0.269   5.342   7.096
    1PC     O32 6064   0.283   5.463   6.994
    1PC     C31 6065   0.412   5.500   6.944
    1PC     H1A 6066   0.492   5.451   7.002
    1PC     H1B 6067   0.420   5.468   6.840
    1PC     C32 6068   0.422   5.653   6.955
    1PC     H2A 6069   0.521   5.684   6.921
    1PC     H2B 6070   0.346   5.697   6.891
    1PC     N31 6071   0.403   5.713   7.091
    1PC     C33 6072   0.438   5.857   7.084
    1PC     H3A 6073   0.374   5.904   7.008
    1PC     H3B 6074   0.418   5.900   7.182
    1PC     H3C 6075   0.544   5.864   7.060
    1PC     C34 6076   0.261   5.704   7.138
    1PC     H4A 6077   0.243   5.601   7.170
    1PC     H4B 6078   0.245   5.772   7.221
    1PC     H4C 6079   0.195   5.728   7.055
    1PC     C35 6080   0.495   5.651   7.191
    1PC     H5A 6081   0.598   5.669   7.158
    1PC     H5B 6082   0.474   5.544   7.196
    1PC     H5C 6083   0.479   5.698   7.288
    1PC     O33 6084   0.127   5.335   7.137
    1PC     O34 6085   0.373   5.356   7.200
    1PC     O21 6086   0.347   5.275   6.710
    1PC     C21 6087   0.427   5.241   6.608
    1PC     O22 6088   0.442   5.126   6.571
    1OL     C12 6089   0.489   5.360   6.539
    1OL     H2R 6090   0.520   5.435   6.612
    1OL     H2S 6091   0.413   5.405   6.475
    1OL     C13 6092   0.609   5.313   6.456
    1OL     H3R 6093   0.590   5.213   6.416
    1OL     H3S 6094   0.696   5.307   6.520
    1OL     C14 6095   0.640   5.399   6.333
    1OL     H4R 6096   0.654   5.502   6.365
    1OL     H4S 6097   0.555   5.395   6.264
    1OL     C15 6098   0.765   5.336   6.270
    1OL     H5R 6099   0.745   5.229   6.262
    1OL     H5S 6100   0.849   5.344   6.340
    1OL     C16 6101   0.814   5.383   6.132
    1OL     H6R 6102   0.873   5.302   6.090
    1OL     H6S 6103   0.885   5.464   6.147
    1OL     C17 6104   0.709   5.425   6.029
    1OL     H7R 6105   0.760   5.472   5.944
    1OL     H7S 6106   0.641   5.500   6.071
    1OL     C18 6107   0.628   5.306   5.975
    1OL     H8R 6108   0.550   5.344   5.909
    1OL     H8S 6109   0.579   5.257   6.059
    1OL     C19 6110   0.718   5.209   5.901
    1OL     H9R 6111   0.802   5.171   5.959
    1OL    C110 6112   0.702   5.167   5.777
    1OL    H10R 6113   0.774   5.097   5.735
    1OL    C111 6114   0.591   5.207   5.683
    1OL    H11R 6115   0.496   5.217   5.736
    1OL    H11S 6116   0.578   5.127   5.610
    1OL    C112 6117   0.626   5.339   5.613
    1OL    H12R 6118   0.734   5.344   5.594
    1OL    H12S 6119   0.601   5.423   5.678
    1OL    C113 6120   0.554   5.355   5.479
    1OL    H13R 6121   0.575   5.455   5.439
    1OL    H13S 6122   0.446   5.352   5.493
    1OL    C114 6123   0.598   5.249   5.376
    1OL    H14R 6124   0.546   5.155   5.396
    1OL    H14S 6125   0.705   5.230   5.385
    1OL    C115 6126   0.566   5.294   5.233
    1OL    H15R 6127   0.468   5.342   5.233
    1OL    H15S 6128   0.560   5.206   5.169
    1OL    C116 6129   0.675   5.388   5.179
    1OL    H16R 6130   0.762   5.327   5.154
    1OL    H16S 6131   0.705   5.452   5.262
    1OL    C117 6132   0.641   5.477   5.058
    1OL    H17R 6133   0.590   5.418   4.981
    1OL    H17S 6134   0.736   5.510   5.015
    1OL    C118 6135   0.561   5.605   5.091
    1OL    H18R 6136   0.568   5.630   5.197
    1OL    H18S 6137   0.456   5.595   5.066
    1OL    H18T 6138   0.601   5.689   5.034
    1PA    C116 6139   2.750   2.505   5.009
    1PA    H16R 6140   2.666   2.438   4.990
    1PA    H16S 6141   2.711   2.604   5.035
    1PA    H16T 6142   2.805   2.468   5.096
    1PA    C115 6143   2.842   2.513   4.886
    1PA    H15R 6144   2.899   2.419   4.882
    1PA    H15S 6145   2.780   2.516   4.796
    1PA    C114 6146   2.936   2.635   4.887
    1PA    H14R 6147   2.899   2.706   4.812
    1PA    H14S 6148   2.933   2.686   4.983
    1PA    C113 6149   3.082   2.608   4.849
    1PA    H13R 6150   3.134   2.703   4.836
    1PA    H13S 6151   3.133   2.556   4.930
    1PA    C112 6152   3.093   2.527   4.718
    1PA    H12R 6153   2.998   2.525   4.665
    1PA    H12S 6154   3.165   2.576   4.652
    1PA    C111 6155   3.141   2.385   4.750
    1PA    H11R 6156   3.239   2.393   4.798
    1PA    H11S 6157   3.075   2.335   4.821
    1PA    C110 6158   3.157   2.299   4.625
    1PA    H10R 6159   3.176   2.363   4.538
    1PA    H10S 6160   3.246   2.238   4.642
    1PA     C19 6161   3.040   2.208   4.590
    1PA     H9R 6162   3.000   2.164   4.682
    1PA     H9S 6163   2.960   2.268   4.546
    1PA     C18 6164   3.082   2.095   4.494
    1PA     H8R 6165   3.107   2.006   4.553
    1PA     H8S 6166   2.995   2.064   4.436
    1PA     C17 6167   3.200   2.128   4.399
    1PA     H7R 6168   3.179   2.216   4.339
    1PA     H7S 6169   3.291   2.152   4.454
    1PA     C16 6170   3.231   2.008   4.308
    1PA     H6R 6171   3.336   2.012   4.277
    1PA     H6S 6172   3.217   1.915   4.363
    1PA     C15 6173   3.142   2.013   4.184
    1PA     H5R 6174   3.064   2.088   4.199
    1PA     H5S 6175   3.201   2.048   4.100
    1PA     C14 6176   3.072   1.880   4.151
    1PA     H4R 6177   3.146   1.800   4.149
    1PA     H4S 6178   2.999   1.854   4.228
    1PA     C13 6179   3.004   1.894   4.014
    1PA     H3R 6180   3.074   1.939   3.944
    1PA     H3S 6181   2.980   1.794   3.976
    1PA     C12 6182   2.876   1.979   4.023
    1PA     H2R 6183   2.792   1.915   4.052
    1PA     H2S 6184   2.886   2.056   4.100
    1PC     C11 6185   2.843   2.051   3.896
    1PC     O12 6186   2.926   2.106   3.825
    1PC     O11 6187   2.711   2.051   3.870
    1PC      C1 6188   2.672   2.059   3.731
    1PC      HR 6189   2.751   2.013   3.670
    1PC      HS 6190   2.582   1.998   3.720
    1PC      C2 6191   2.640   2.201   3.678
    1PC      HX 6192   2.564   2.249   3.741
    1PC      C3 6193   2.584   2.187   3.535
    1PC      HA 6194   2.481   2.153   3.537
    1PC      HB 6195   2.588   2.284   3.484
    1PC     O31 6196   2.665   2.090   3.464
    1PC     P31 6197   2.710   2.113   3.315
    1PC     O32 6198   2.788   2.251   3.319
    1PC     C31 6199   2.920   2.256   3.376
    1PC     H1A 6200   2.915   2.222   3.480
    1PC     H1B 6201   2.987   2.190   3.320
    1PC     C32 6202   2.972   2.401   3.372
    1PC     H2A 6203   2.907   2.461   3.436
    1PC     H2B 6204   3.072   2.402   3.416
    1PC     N31 6205   2.981   2.473   3.240
    1PC     C33 6206   2.849   2.512   3.187
    1PC     H3A 6207   2.858   2.552   3.086
    1PC     H3B 6208   2.782   2.425   3.183
    1PC     H3C 6209   2.804   2.589   3.250
    1PC     C34 6210   3.056   2.597   3.266
    1PC     H4A 6211   3.075   2.646   3.170
    1PC     H4B 6212   2.999   2.659   3.335
    1PC     H4C 6213   3.152   2.568   3.310
    1PC     C35 6214   3.056   2.400   3.135
    1PC     H5A 6215   3.051   2.293   3.158
    1PC     H5B 6216   3.160   2.434   3.131
    1PC     H5C 6217   3.007   2.417   3.039
    1PC     O33 6218   2.813   2.014   3.278
    1PC     O34 6219   2.592   2.124   3.229
    1PC     O21 6220   2.760   2.284   3.671
    1PC     C21 6221   2.790   2.363   3.776
    1PC     O22 6222   2.710   2.393   3.862
    1OL     C12 6223   2.934   2.412   3.772
    1OL     H2R 6224   2.939   2.497   3.704
    1OL     H2S 6225   2.996   2.333   3.728
    1OL     C13 6226   2.994   2.452   3.910
    1OL     H3R 6227   2.945   2.544   3.943
    1OL     H3S 6228   3.099   2.477   3.897
    1OL     C14 6229   2.980   2.347   4.022
    1OL     H4R 6230   3.061   2.274   4.015
    1OL     H4S 6231   2.887   2.291   4.004
    1OL     C15 6232   2.975   2.408   4.163
    1OL     H5R 6233   2.929   2.507   4.160
    1OL     H5S 6234   3.078   2.427   4.195
    1OL     C16 6235   2.905   2.323   4.272
    1OL     H6R 6236   2.896   2.384   4.362
    1OL     H6S 6237   2.975   2.243   4.297
    1OL     C17 6238   2.767   2.257   4.244
    1OL     H7R 6239   2.755   2.230   4.139
    1OL     H7S 6240   2.686   2.326   4.269
    1OL     C18 6241   2.756   2.128   4.328
    1OL     H8R 6242   2.759   2.154   4.434
    1OL     H8S 6243   2.843   2.066   4.306
    1OL     C19 6244   2.636   2.041   4.298
    1OL     H9R 6245   2.575   2.070   4.212
    1OL    C110 6246   2.604   1.934   4.369
    1OL    H10R 6247   2.517   1.875   4.342
    1OL    C111 6248   2.682   1.883   4.489
    1OL    H11R 6249   2.789   1.904   4.479
    1OL    H11S 6250   2.672   1.775   4.497
    1OL    C112 6251   2.629   1.950   4.618
    1OL    H12R 6252   2.521   1.933   4.622
    1OL    H12S 6253   2.642   2.058   4.611
    1OL    C113 6254   2.692   1.899   4.749
    1OL    H13R 6255   2.699   1.790   4.749
    1OL    H13S 6256   2.624   1.927   4.830
    1OL    C114 6257   2.830   1.960   4.779
    1OL    H14R 6258   2.824   2.067   4.758
    1OL    H14S 6259   2.904   1.918   4.710
    1OL    C115 6260   2.875   1.938   4.925
    1OL    H15R 6261   2.958   1.868   4.928
    1OL    H15S 6262   2.794   1.895   4.984
    1OL    C116 6263   2.922   2.069   4.991
    1OL    H16R 6264   2.989   2.120   4.921
    1OL    H16S 6265   2.980   2.046   5.080
    1OL    C117 6266   2.809   2.166   5.028
    1OL    H17R 6267   2.735   2.171   4.948
    1OL    H17S 6268   2.855   2.265   5.038
    1OL    C118 6269   2.742   2.131   5.162
    1OL    H18R 6270   2.686   2.038   5.154
    1OL    H18S 6271   2.673   2.211   5.190
    1OL    H18T 6272   2.816   2.122   5.241
    1PA    C116 6273   3.492   2.862   5.278
    1PA    H16R 6274   3.522   2.871   5.383
    1PA    H16S 6275   3.398   2.806   5.274
    1PA    H16T 6276   3.473   2.963   5.240
    1PA    C115 6277   3.599   2.791   5.196
    1PA    H15R 6278   3.657   2.727   5.264
    1PA    H15S 6279   3.552   2.724   5.123
    1PA    C114 6280   3.696   2.886   5.123
    1PA    H14R 6281   3.727   2.964   5.192
    1PA    H14S 6282   3.788   2.833   5.096
    1PA    C113 6283   3.642   2.952   4.995
    1PA    H13R 6284   3.564   3.021   5.027
    1PA    H13S 6285   3.722   3.014   4.954
    1PA    C112 6286   3.584   2.867   4.880
    1PA    H12R 6287   3.643   2.776   4.866
    1PA    H12S 6288   3.482   2.837   4.902
    1PA    C111 6289   3.589   2.950   4.750
    1PA    H11R 6290   3.567   3.055   4.772
    1PA    H11S 6291   3.693   2.948   4.716
    1PA    C110 6292   3.498   2.908   4.633
    1PA    H10R 6293   3.498   2.799   4.622
    1PA    H10S 6294   3.395   2.939   4.651
    1PA     C19 6295   3.552   2.971   4.503
    1PA     H9R 6296   3.541   3.080   4.508
    1PA     H9S 6297   3.659   2.950   4.498
    1PA     C18 6298   3.487   2.920   4.373
    1PA     H8R 6299   3.447   2.819   4.388
    1PA     H8S 6300   3.402   2.983   4.345
    1PA     C17 6301   3.591   2.914   4.258
    1PA     H7R 6302   3.682   2.868   4.296
    1PA     H7S 6303   3.554   2.848   4.180
    1PA     C16 6304   3.626   3.053   4.200
    1PA     H6R 6305   3.646   3.123   4.281
    1PA     H6S 6306   3.718   3.045   4.141
    1PA     C15 6307   3.514   3.110   4.110
    1PA     H5R 6308   3.420   3.108   4.165
    1PA     H5S 6309   3.536   3.215   4.087
    1PA     C14 6310   3.500   3.032   3.978
    1PA     H4R 6311   3.581   3.058   3.910
    1PA     H4S 6312   3.505   2.924   3.996
    1PA     C13 6313   3.365   3.062   3.912
    1PA     H3R 6314   3.287   3.048   3.987
    1PA     H3S 6315   3.361   3.166   3.879
    1PA     C12 6316   3.336   2.968   3.794
    1PA     H2R 6317   3.407   2.987   3.713
    1PA     H2S 6318   3.347   2.863   3.824
    1PC     C11 6319   3.196   2.989   3.746
    1PC     O12 6320   3.101   3.002   3.821
    1PC     O11 6321   3.187   2.993   3.613
    1PC      C1 6322   3.056   3.028   3.556
    1PC      HR 6323   3.005   2.935   3.530
    1PC      HS 6324   2.996   3.084   3.627
    1PC      C2 6325   3.078   3.116   3.431
    1PC      HX 6326   2.985   3.133   3.376
    1PC      C3 6327   3.176   3.041   3.341
    1PC      HA 6328   3.276   3.053   3.385
    1PC      HB 6329   3.149   2.935   3.345
    1PC     O31 6330   3.182   3.080   3.202
    1PC     P31 6331   3.263   3.211   3.155
    1PC     O32 6332   3.407   3.187   3.222
    1PC     C31 6333   3.497   3.088   3.171
    1PC     H1A 6334   3.465   3.054   3.072
    1PC     H1B 6335   3.598   3.131   3.162
    1PC     C32 6336   3.496   2.967   3.266
    1PC     H2A 6337   3.392   2.938   3.281
    1PC     H2B 6338   3.549   2.885   3.217
    1PC     N31 6339   3.556   2.978   3.402
    1PC     C33 6340   3.701   2.996   3.386
    1PC     H3A 6341   3.738   2.913   3.326
    1PC     H3B 6342   3.716   3.090   3.332
    1PC     H3C 6343   3.748   2.999   3.485
    1PC     C34 6344   3.503   3.092   3.483
    1PC     H4A 6345   3.506   3.183   3.423
    1PC     H4B 6346   3.400   3.073   3.514
    1PC     H4C 6347   3.565   3.107   3.572
    1PC     C35 6348   3.533   2.850   3.476
    1PC     H5A 6349   3.426   2.839   3.493
    1PC     H5B 6350   3.586   2.855   3.571
    1PC     H5C 6351   3.570   2.768   3.415
    1PC     O33 6352   3.284   3.203   3.008
    1PC     O34 6353   3.202   3.331   3.213
    1PC     O21 6354   3.133   3.242   3.476
    1PC     C21 6355   3.045   3.334   3.519
    1PC     O22 6356   2.925   3.313   3.525
    1OL     C12 6357   3.110   3.461   3.569
    1OL     H2R 6358   3.034   3.539   3.580
    1OL     H2S 6359   3.180   3.494   3.492
    1OL     C13 6360   3.186   3.440   3.702
    1OL     H3R 6361   3.265   3.516   3.706
    1OL     H3S 6362   3.236   3.343   3.701
    1OL     C14 6363   3.102   3.454   3.831
    1OL     H4R 6364   3.049   3.549   3.830
    1OL     H4S 6365   3.172   3.459   3.914
    1OL     C15 6366   3.002   3.339   3.857
    1OL     H5R 6367   3.056   3.244   3.853
    1OL     H5S 6368   2.927   3.338   3.778
    1OL     C16 6369   2.928   3.349   3.992
    1OL     H6R 6370   2.864   3.261   4.002
    1OL     H6S 6371   2.862   3.436   3.990
    1OL     C17 6372   3.018   3.359   4.118
    1OL     H7R 6373   2.954   3.354   4.206
    1OL     H7S 6374   3.066   3.457   4.119
    1OL     C18 6375   3.126   3.250   4.129
    1OL     H8R 6376   3.184   3.269   4.220
    1OL     H8S 6377   3.195   3.260   4.045
    1OL     C19 6378   3.067   3.111   4.130
    1OL     H9R 6379   3.021   3.080   4.036
    1OL    C110 6380   3.068   3.026   4.232
    1OL    H10R 6381   3.023   2.928   4.220
    1OL    C111 6382   3.130   3.052   4.367
    1OL    H11R 6383   3.222   3.111   4.358
    1OL    H11S 6384   3.158   2.957   4.413
    1OL    C112 6385   3.031   3.127   4.459
    1OL    H12R 6386   2.936   3.073   4.460
    1OL    H12S 6387   3.011   3.227   4.420
    1OL    C113 6388   3.086   3.137   4.602
    1OL    H13R 6389   3.178   3.195   4.602
    1OL    H13S 6390   3.113   3.036   4.634
    1OL    C114 6391   2.987   3.198   4.703
    1OL    H14R 6392   2.884   3.184   4.669
    1OL    H14S 6393   3.005   3.306   4.710
    1OL    C115 6394   3.005   3.131   4.840
    1OL    H15R 6395   3.106   3.091   4.846
    1OL    H15S 6396   2.938   3.045   4.849
    1OL    C116 6397   2.983   3.220   4.963
    1OL    H16R 6398   2.893   3.281   4.952
    1OL    H16S 6399   3.069   3.287   4.969
    1OL    C117 6400   2.975   3.137   5.091
    1OL    H17R 6401   3.026   3.041   5.077
    1OL    H17S 6402   2.870   3.110   5.108
    1OL    C118 6403   3.035   3.209   5.213
    1OL    H18R 6404   3.141   3.229   5.198
    1OL    H18S 6405   3.026   3.147   5.303
    1OL    H18T 6406   2.984   3.304   5.231
    1PA    C116 6407   3.301   1.594   5.086
    1PA    H16R 6408   3.204   1.589   5.136
    1PA    H16S 6409   3.327   1.699   5.071
    1PA    H16T 6410   3.377   1.551   5.152
    1PA    C115 6411   3.296   1.523   4.950
    1PA    H15R 6412   3.396   1.529   4.906
    1PA    H15S 6413   3.275   1.416   4.961
    1PA    C114 6414   3.194   1.587   4.855
    1PA    H14R 6415   3.178   1.691   4.886
    1PA    H14S 6416   3.238   1.591   4.755
    1PA    C113 6417   3.056   1.520   4.844
    1PA    H13R 6418   3.067   1.420   4.801
    1PA    H13S 6419   3.013   1.509   4.943
    1PA    C112 6420   2.960   1.605   4.758
    1PA    H12R 6421   2.860   1.561   4.762
    1PA    H12S 6422   2.952   1.703   4.806
    1PA    C111 6423   3.002   1.627   4.611
    1PA    H11R 6424   2.952   1.717   4.574
    1PA    H11S 6425   3.109   1.644   4.602
    1PA    C110 6426   2.960   1.509   4.523
    1PA    H10R 6427   3.001   1.416   4.565
    1PA    H10S 6428   2.852   1.501   4.526
    1PA     C19 6429   3.006   1.521   4.377
    1PA     H9R 6430   2.982   1.621   4.338
    1PA     H9S 6431   3.114   1.508   4.371
    1PA     C18 6432   2.934   1.414   4.294
    1PA     H8R 6433   2.930   1.321   4.351
    1PA     H8S 6434   2.831   1.447   4.280
    1PA     C17 6435   2.996   1.382   4.157
    1PA     H7R 6436   3.101   1.356   4.171
    1PA     H7S 6437   2.947   1.292   4.119
    1PA     C16 6438   2.982   1.492   4.051
    1PA     H6R 6439   2.877   1.519   4.040
    1PA     H6S 6440   3.037   1.581   4.081
    1PA     C15 6441   3.038   1.439   3.917
    1PA     H5R 6442   3.145   1.422   3.928
    1PA     H5S 6443   2.992   1.343   3.894
    1PA     C14 6444   3.016   1.531   3.796
    1PA     H4R 6445   3.060   1.629   3.816
    1PA     H4S 6446   3.071   1.489   3.711
    1PA     C13 6447   2.868   1.547   3.755
    1PA     H3R 6448   2.824   1.448   3.742
    1PA     H3S 6449   2.813   1.597   3.834
    1PA     C12 6450   2.852   1.626   3.623
    1PA     H2R 6451   2.908   1.577   3.543
    1PA     H2S 6452   2.747   1.631   3.595
    1PC     C11 6453   2.901   1.767   3.638
    1PC     O12 6454   2.898   1.825   3.744
    1PC     O11 6455   2.937   1.823   3.522
    1PC      C1 6456   3.024   1.939   3.530
    1PC      HR 6457   3.007   1.999   3.440
    1PC      HS 6458   3.001   2.002   3.617
    1PC      C2 6459   3.172   1.897   3.532
    1PC      HX 6460   3.234   1.987   3.528
    1PC      C3 6461   3.204   1.809   3.408
    1PC      HA 6462   3.118   1.744   3.389
    1PC      HB 6463   3.220   1.870   3.319
    1PC     O31 6464   3.321   1.726   3.428
    1PC     P31 6465   3.304   1.568   3.411
    1PC     O32 6466   3.245   1.564   3.264
    1PC     C31 6467   3.330   1.565   3.149
    1PC     H1A 6468   3.274   1.611   3.066
    1PC     H1B 6469   3.419   1.625   3.169
    1PC     C32 6470   3.367   1.420   3.115
    1PC     H2A 6471   3.413   1.417   3.016
    1PC     H2B 6472   3.441   1.386   3.187
    1PC     N31 6473   3.257   1.316   3.117
    1PC     C33 6474   3.246   1.256   3.253
    1PC     H3A 6475   3.180   1.169   3.250
    1PC     H3B 6476   3.346   1.225   3.286
    1PC     H3C 6477   3.209   1.332   3.322
    1PC     C34 6478   3.124   1.371   3.077
    1PC     H4A 6479   3.052   1.288   3.072
    1PC     H4B 6480   3.094   1.443   3.154
    1PC     H4C 6481   3.133   1.420   2.981
    1PC     C35 6482   3.292   1.206   3.021
    1PC     H5A 6483   3.289   1.246   2.920
    1PC     H5B 6484   3.219   1.126   3.033
    1PC     H5C 6485   3.392   1.170   3.045
    1PC     O33 6486   3.435   1.501   3.407
    1PC     O34 6487   3.195   1.517   3.497
    1PC     O21 6488   3.205   1.822   3.650
    1PC     C21 6489   3.287   1.883   3.737
    1PC     O22 6490   3.292   2.003   3.754
    1OL     C12 6491   3.373   1.787   3.813
    1OL     H2R 6492   3.475   1.826   3.817
    1OL     H2S 6493   3.374   1.691   3.763
    1OL     C13 6494   3.314   1.777   3.954
    1OL     H3R 6495   3.218   1.725   3.946
    1OL     H3S 6496   3.295   1.878   3.991
    1OL     C14 6497   3.400   1.705   4.056
    1OL     H4R 6498   3.338   1.679   4.142
    1OL     H4S 6499   3.479   1.771   4.092
    1OL     C15 6500   3.463   1.579   3.996
    1OL     H5R 6501   3.550   1.611   3.937
    1OL     H5S 6502   3.394   1.527   3.930
    1OL     C16 6503   3.511   1.484   4.104
    1OL     H6R 6504   3.574   1.540   4.173
    1OL     H6S 6505   3.573   1.407   4.059
    1OL     C17 6506   3.392   1.416   4.176
    1OL     H7R 6507   3.399   1.308   4.161
    1OL     H7S 6508   3.298   1.445   4.129
    1OL     C18 6509   3.381   1.445   4.327
    1OL     H8R 6510   3.319   1.368   4.373
    1OL     H8S 6511   3.332   1.542   4.342
    1OL     C19 6512   3.517   1.446   4.392
    1OL     H9R 6513   3.597   1.403   4.331
    1OL    C110 6514   3.549   1.498   4.509
    1OL    H10R 6515   3.653   1.496   4.541
    1OL    C111 6516   3.456   1.567   4.603
    1OL    H11R 6517   3.402   1.493   4.662
    1OL    H11S 6518   3.383   1.624   4.544
    1OL    C112 6519   3.540   1.656   4.695
    1OL    H12R 6520   3.625   1.695   4.638
    1OL    H12S 6521   3.582   1.595   4.775
    1OL    C113 6522   3.467   1.776   4.756
    1OL    H13R 6523   3.541   1.844   4.799
    1OL    H13S 6524   3.403   1.744   4.840
    1OL    C114 6525   3.382   1.851   4.652
    1OL    H14R 6526   3.292   1.794   4.627
    1OL    H14S 6527   3.439   1.863   4.560
    1OL    C115 6528   3.341   1.988   4.703
    1OL    H15R 6529   3.300   2.043   4.618
    1OL    H15S 6530   3.430   2.043   4.732
    1OL    C116 6531   3.234   1.983   4.814
    1OL    H16R 6532   3.232   1.884   4.860
    1OL    H16S 6533   3.135   2.000   4.772
    1OL    C117 6534   3.261   2.084   4.926
    1OL    H17R 6535   3.186   2.074   5.004
    1OL    H17S 6536   3.257   2.186   4.887
    1OL    C118 6537   3.397   2.058   4.988
    1OL    H18R 6538   3.406   2.114   5.081
    1OL    H18S 6539   3.478   2.089   4.921
    1OL    H18T 6540   3.411   1.951   5.008
    1PA    C116 6541   3.661   2.169   5.132
    1PA    H16R 6542   3.570   2.218   5.170
    1PA    H16S 6543   3.727   2.152   5.216
    1PA    H16T 6544   3.633   2.074   5.086
    1PA    C115 6545   3.728   2.260   5.029
    1PA    H15R 6546   3.688   2.359   5.049
    1PA    H15S 6547   3.835   2.262   5.047
    1PA    C114 6548   3.703   2.230   4.880
    1PA    H14R 6549   3.597   2.245   4.857
    1PA    H14S 6550   3.757   2.306   4.822
    1PA    C113 6551   3.747   2.091   4.832
    1PA    H13R 6552   3.852   2.075   4.857
    1PA    H13S 6553   3.688   2.014   4.882
    1PA    C112 6554   3.728   2.080   4.679
    1PA    H12R 6555   3.627   2.112   4.653
    1PA    H12S 6556   3.796   2.151   4.632
    1PA    C111 6557   3.750   1.938   4.623
    1PA    H11R 6558   3.781   1.872   4.704
    1PA    H11S 6559   3.654   1.901   4.585
    1PA    C110 6560   3.853   1.930   4.510
    1PA    H10R 6561   3.949   1.965   4.549
    1PA    H10S 6562   3.867   1.826   4.480
    1PA     C19 6563   3.819   2.016   4.386
    1PA     H9R 6564   3.771   2.108   4.416
    1PA     H9S 6565   3.914   2.044   4.341
    1PA     C18 6566   3.733   1.949   4.276
    1PA     H8R 6567   3.769   1.848   4.257
    1PA     H8S 6568   3.629   1.942   4.308
    1PA     C17 6569   3.745   2.033   4.147
    1PA     H7R 6570   3.698   2.130   4.163
    1PA     H7S 6571   3.851   2.052   4.131
    1PA     C16 6572   3.689   1.972   4.016
    1PA     H6R 6573   3.668   1.866   4.033
    1PA     H6S 6574   3.594   2.020   3.991
    1PA     C15 6575   3.791   1.988   3.901
    1PA     H5R 6576   3.817   2.094   3.891
    1PA     H5S 6577   3.883   1.937   3.929
    1PA     C14 6578   3.749   1.936   3.761
    1PA     H4R 6579   3.838   1.919   3.701
    1PA     H4S 6580   3.697   1.840   3.771
    1PA     C13 6581   3.658   2.035   3.688
    1PA     H3R 6582   3.572   2.054   3.753
    1PA     H3S 6583   3.712   2.129   3.677
    1PA     C12 6584   3.609   1.990   3.548
    1PA     H2R 6585   3.692   1.985   3.478
    1PA     H2S 6586   3.564   1.891   3.554
    1PC     C11 6587   3.504   2.087   3.499
    1PC     O12 6588   3.444   2.159   3.574
    1PC     O11 6589   3.485   2.088   3.366
    1PC      C1 6590   3.354   2.128   3.311
    1PC      HR 6591   3.356   2.098   3.206
    1PC      HS 6592   3.275   2.070   3.359
    1PC      C2 6593   3.308   2.277   3.312
    1PC      HX 6594   3.208   2.275   3.267
    1PC      C3 6595   3.401   2.362   3.225
    1PC      HA 6596   3.414   2.314   3.127
    1PC      HB 6597   3.361   2.462   3.208
    1PC     O31 6598   3.529   2.372   3.289
    1PC     P31 6599   3.648   2.436   3.211
    1PC     O32 6600   3.766   2.418   3.317
    1PC     C31 6601   3.805   2.286   3.364
    1PC     H1A 6602   3.846   2.296   3.464
    1PC     H1B 6603   3.716   2.222   3.370
    1PC     C32 6604   3.910   2.220   3.272
    1PC     H2A 6605   3.952   2.133   3.324
    1PC     H2B 6606   3.861   2.185   3.181
    1PC     N31 6607   4.027   2.303   3.228
    1PC     C33 6608   4.141   2.215   3.189
    1PC     H3A 6609   4.224   2.280   3.161
    1PC     H3B 6610   4.169   2.158   3.277
    1PC     H3C 6611   4.110   2.151   3.106
    1PC     C34 6612   3.987   2.383   3.109
    1PC     H4A 6613   4.075   2.434   3.070
    1PC     H4B 6614   3.943   2.317   3.035
    1PC     H4C 6615   3.911   2.455   3.141
    1PC     C35 6616   4.079   2.392   3.336
    1PC     H5A 6617   4.000   2.463   3.362
    1PC     H5B 6618   4.169   2.441   3.300
    1PC     H5C 6619   4.105   2.329   3.422
    1PC     O33 6620   3.674   2.350   3.094
    1PC     O34 6621   3.611   2.580   3.195
    1PC     O21 6622   3.293   2.328   3.448
    1PC     C21 6623   3.332   2.451   3.489
    1PC     O22 6624   3.316   2.553   3.424
    1OL     C12 6625   3.393   2.455   3.626
    1OL     H2R 6626   3.369   2.364   3.681
    1OL     H2S 6627   3.351   2.539   3.682
    1OL     C13 6628   3.545   2.472   3.610
    1OL     H3R 6629   3.565   2.557   3.543
    1OL     H3S 6630   3.586   2.383   3.560
    1OL     C14 6631   3.621   2.495   3.741
    1OL     H4R 6632   3.591   2.590   3.786
    1OL     H4S 6633   3.727   2.503   3.716
    1OL     C15 6634   3.600   2.381   3.842
    1OL     H5R 6635   3.614   2.285   3.792
    1OL     H5S 6636   3.496   2.383   3.878
    1OL     C16 6637   3.694   2.388   3.963
    1OL     H6R 6638   3.669   2.305   4.028
    1OL     H6S 6639   3.676   2.480   4.019
    1OL     C17 6640   3.843   2.379   3.924
    1OL     H7R 6641   3.876   2.473   3.878
    1OL     H7S 6642   3.855   2.301   3.849
    1OL     C18 6643   3.932   2.347   4.044
    1OL     H8R 6644   4.027   2.309   4.005
    1OL     H8S 6645   3.888   2.265   4.101
    1OL     C19 6646   3.959   2.468   4.130
    1OL     H9R 6647   4.006   2.552   4.079
    1OL    C110 6648   3.931   2.479   4.259
    1OL    H10R 6649   3.956   2.572   4.311
    1OL    C111 6650   3.867   2.373   4.345
    1OL    H11R 6651   3.903   2.381   4.448
    1OL    H11S 6652   3.896   2.273   4.310
    1OL    C112 6653   3.714   2.385   4.344
    1OL    H12R 6654   3.672   2.307   4.407
    1OL    H12S 6655   3.676   2.369   4.243
    1OL    C113 6656   3.667   2.523   4.394
    1OL    H13R 6657   3.706   2.601   4.328
    1OL    H13S 6658   3.709   2.542   4.493
    1OL    C114 6659   3.515   2.537   4.399
    1OL    H14R 6660   3.474   2.539   4.298
    1OL    H14S 6661   3.491   2.633   4.446
    1OL    C115 6662   3.443   2.427   4.479
    1OL    H15R 6663   3.448   2.332   4.425
    1OL    H15S 6664   3.338   2.457   4.482
    1OL    C116 6665   3.495   2.407   4.623
    1OL    H16R 6666   3.599   2.376   4.622
    1OL    H16S 6667   3.439   2.326   4.670
    1OL    C117 6668   3.480   2.534   4.709
    1OL    H17R 6669   3.380   2.577   4.695
    1OL    H17S 6670   3.553   2.608   4.676
    1OL    C118 6671   3.502   2.509   4.859
    1OL    H18R 6672   3.607   2.487   4.878
    1OL    H18S 6673   3.441   2.425   4.894
    1OL    H18T 6674   3.474   2.598   4.917
    1PA    C116 6675   2.407   2.881   5.095
    1PA    H16R 6676   2.478   2.961   5.118
    1PA    H16S 6677   2.374   2.836   5.189
    1PA    H16T 6678   2.321   2.924   5.044
    1PA    C115 6679   2.473   2.774   5.009
    1PA    H15R 6680   2.558   2.732   5.064
    1PA    H15S 6681   2.404   2.691   4.991
    1PA    C114 6682   2.519   2.834   4.875
    1PA    H14R 6683   2.456   2.796   4.794
    1PA    H14S 6684   2.507   2.942   4.881
    1PA    C113 6685   2.666   2.807   4.842
    1PA    H13R 6686   2.721   2.792   4.936
    1PA    H13S 6687   2.674   2.716   4.783
    1PA    C112 6688   2.732   2.926   4.772
    1PA    H12R 6689   2.726   3.011   4.839
    1PA    H12S 6690   2.837   2.902   4.756
    1PA    C111 6691   2.671   2.967   4.637
    1PA    H11R 6692   2.564   2.945   4.636
    1PA    H11S 6693   2.683   3.075   4.626
    1PA    C110 6694   2.740   2.899   4.518
    1PA    H10R 6695   2.729   2.964   4.431
    1PA    H10S 6696   2.847   2.887   4.537
    1PA     C19 6697   2.679   2.762   4.484
    1PA     H9R 6698   2.690   2.692   4.567
    1PA     H9S 6699   2.572   2.777   4.468
    1PA     C18 6700   2.744   2.706   4.358
    1PA     H8R 6701   2.794   2.788   4.305
    1PA     H8S 6702   2.821   2.633   4.383
    1PA     C17 6703   2.638   2.644   4.267
    1PA     H7R 6704   2.602   2.550   4.311
    1PA     H7S 6705   2.552   2.711   4.263
    1PA     C16 6706   2.682   2.618   4.123
    1PA     H6R 6707   2.736   2.524   4.115
    1PA     H6S 6708   2.587   2.601   4.071
    1PA     C15 6709   2.763   2.734   4.057
    1PA     H5R 6710   2.725   2.830   4.092
    1PA     H5S 6711   2.867   2.726   4.089
    1PA     C14 6712   2.758   2.734   3.903
    1PA     H4R 6713   2.777   2.633   3.865
    1PA     H4S 6714   2.657   2.761   3.871
    1PA     C13 6715   2.850   2.833   3.832
    1PA     H3R 6716   2.943   2.837   3.890
    1PA     H3S 6717   2.876   2.795   3.733
    1PA     C12 6718   2.786   2.974   3.824
    1PA     H2R 6719   2.705   2.976   3.896
    1PA     H2S 6720   2.859   3.049   3.854
    1PC     C11 6721   2.727   3.017   3.691
    1PC     O12 6722   2.646   3.106   3.682
    1PC     O11 6723   2.771   2.951   3.582
    1PC      C1 6724   2.736   3.000   3.450
    1PC      HR 6725   2.628   3.015   3.442
    1PC      HS 6726   2.785   3.096   3.431
    1PC      C2 6727   2.778   2.894   3.346
    1PC      HX 6728   2.879   2.859   3.368
    1PC      C3 6729   2.779   2.946   3.200
    1PC      HA 6730   2.850   3.029   3.192
    1PC      HB 6731   2.809   2.866   3.131
    1PC     O31 6732   2.648   2.990   3.164
    1PC     P31 6733   2.626   3.106   3.057
    1PC     O32 6734   2.488   3.168   3.103
    1PC     C31 6735   2.375   3.084   3.128
    1PC     H1A 6736   2.284   3.140   3.107
    1PC     H1B 6737   2.379   2.996   3.063
    1PC     C32 6738   2.381   3.043   3.277
    1PC     H2A 6739   2.311   2.961   3.295
    1PC     H2B 6740   2.481   3.007   3.300
    1PC     N31 6741   2.349   3.150   3.379
    1PC     C33 6742   2.420   3.278   3.350
    1PC     H3A 6743   2.381   3.318   3.256
    1PC     H3B 6744   2.404   3.349   3.432
    1PC     H3C 6745   2.527   3.258   3.337
    1PC     C34 6746   2.201   3.169   3.380
    1PC     H4A 6747   2.174   3.225   3.469
    1PC     H4B 6748   2.173   3.222   3.290
    1PC     H4C 6749   2.154   3.070   3.385
    1PC     C35 6750   2.394   3.109   3.515
    1PC     H5A 6751   2.376   3.002   3.528
    1PC     H5B 6752   2.338   3.165   3.589
    1PC     H5C 6753   2.500   3.133   3.525
    1PC     O33 6754   2.729   3.209   3.080
    1PC     O34 6755   2.609   3.051   2.921
    1PC     O21 6756   2.681   2.786   3.357
    1PC     C21 6757   2.711   2.683   3.438
    1PC     O22 6758   2.824   2.656   3.472
    1OL     C12 6759   2.589   2.609   3.484
    1OL     H2R 6760   2.610   2.501   3.482
    1OL     H2S 6761   2.504   2.629   3.418
    1OL     C13 6762   2.561   2.656   3.627
    1OL     H3R 6763   2.535   2.762   3.624
    1OL     H3S 6764   2.655   2.647   3.682
    1OL     C14 6765   2.454   2.576   3.703
    1OL     H4R 6766   2.484   2.471   3.703
    1OL     H4S 6767   2.357   2.583   3.655
    1OL     C15 6768   2.440   2.623   3.848
    1OL     H5R 6769   2.539   2.605   3.890
    1OL     H5S 6770   2.374   2.557   3.905
    1OL     C16 6771   2.394   2.769   3.868
    1OL     H6R 6772   2.291   2.779   3.834
    1OL     H6S 6773   2.454   2.837   3.808
    1OL     C17 6774   2.404   2.814   4.016
    1OL     H7R 6775   2.509   2.824   4.042
    1OL     H7S 6776   2.362   2.736   4.080
    1OL     C18 6777   2.333   2.946   4.051
    1OL     H8R 6778   2.361   2.974   4.152
    1OL     H8S 6779   2.226   2.930   4.052
    1OL     C19 6780   2.364   3.061   3.955
    1OL     H9R 6781   2.288   3.078   3.880
    1OL    C110 6782   2.470   3.142   3.959
    1OL    H10R 6783   2.476   3.221   3.884
    1OL    C111 6784   2.585   3.138   4.057
    1OL    H11R 6785   2.678   3.147   4.001
    1OL    H11S 6786   2.589   3.043   4.111
    1OL    C112 6787   2.583   3.256   4.156
    1OL    H12R 6788   2.583   3.350   4.099
    1OL    H12S 6789   2.674   3.255   4.215
    1OL    C113 6790   2.461   3.254   4.249
    1OL    H13R 6791   2.370   3.245   4.189
    1OL    H13S 6792   2.456   3.349   4.302
    1OL    C114 6793   2.466   3.140   4.352
    1OL    H14R 6794   2.535   3.169   4.431
    1OL    H14S 6795   2.505   3.048   4.308
    1OL    C115 6796   2.327   3.111   4.410
    1OL    H15R 6797   2.263   3.062   4.336
    1OL    H15S 6798   2.279   3.205   4.438
    1OL    C116 6799   2.338   3.027   4.537
    1OL    H16R 6800   2.409   3.079   4.602
    1OL    H16S 6801   2.378   2.928   4.514
    1OL    C117 6802   2.206   3.013   4.613
    1OL    H17R 6803   2.140   2.941   4.564
    1OL    H17S 6804   2.154   3.109   4.614
    1OL    C118 6805   2.234   2.971   4.758
    1OL    H18R 6806   2.170   3.026   4.828
    1OL    H18S 6807   2.337   2.996   4.785
    1OL    H18T 6808   2.219   2.864   4.773
    1PA    C116 6809   2.515   1.632   4.945
    1PA    H16R 6810   2.600   1.576   4.906
    1PA    H16S 6811   2.495   1.598   5.047
    1PA    H16T 6812   2.544   1.738   4.950
    1PA    C115 6813   2.390   1.615   4.858
    1PA    H15R 6814   2.358   1.510   4.859
    1PA    H15S 6815   2.310   1.673   4.902
    1PA    C114 6816   2.409   1.661   4.712
    1PA    H14R 6817   2.316   1.710   4.680
    1PA    H14S 6818   2.487   1.738   4.708
    1PA    C113 6819   2.441   1.551   4.610
    1PA    H13R 6820   2.364   1.473   4.617
    1PA    H13S 6821   2.435   1.594   4.510
    1PA    C112 6822   2.577   1.481   4.626
    1PA    H12R 6823   2.656   1.553   4.606
    1PA    H12S 6824   2.589   1.446   4.729
    1PA    C111 6825   2.590   1.360   4.532
    1PA    H11R 6826   2.689   1.317   4.545
    1PA    H11S 6827   2.518   1.284   4.562
    1PA    C110 6828   2.569   1.393   4.383
    1PA    H10R 6829   2.466   1.426   4.366
    1PA    H10S 6830   2.635   1.476   4.355
    1PA     C19 6831   2.597   1.270   4.294
    1PA     H9R 6832   2.688   1.222   4.331
    1PA     H9S 6833   2.515   1.199   4.304
    1PA     C18 6834   2.621   1.301   4.146
    1PA     H8R 6835   2.716   1.352   4.134
    1PA     H8S 6836   2.630   1.207   4.091
    1PA     C17 6837   2.513   1.386   4.079
    1PA     H7R 6838   2.420   1.329   4.073
    1PA     H7S 6839   2.493   1.477   4.137
    1PA     C16 6840   2.562   1.426   3.939
    1PA     H6R 6841   2.653   1.485   3.949
    1PA     H6S 6842   2.587   1.336   3.882
    1PA     C15 6843   2.460   1.508   3.861
    1PA     H5R 6844   2.437   1.600   3.915
    1PA     H5S 6845   2.504   1.537   3.765
    1PA     C14 6846   2.330   1.429   3.837
    1PA     H4R 6847   2.354   1.329   3.799
    1PA     H4S 6848   2.275   1.418   3.930
    1PA     C13 6849   2.244   1.503   3.735
    1PA     H3R 6850   2.227   1.605   3.770
    1PA     H3S 6851   2.296   1.508   3.639
    1PA     C12 6852   2.108   1.436   3.713
    1PA     H2R 6853   2.119   1.333   3.677
    1PA     H2S 6854   2.052   1.435   3.806
    1PC     C11 6855   2.036   1.519   3.612
    1PC     O12 6856   1.989   1.627   3.641
    1PC     O11 6857   2.044   1.466   3.489
    1PC      C1 6858   1.973   1.535   3.382
    1PC      HR 6859   1.904   1.464   3.337
    1PC      HS 6860   1.916   1.620   3.421
    1PC      C2 6861   2.069   1.589   3.275
    1PC      HX 6862   2.012   1.656   3.209
    1PC      C3 6863   2.122   1.475   3.186
    1PC      HA 6864   2.191   1.410   3.240
    1PC      HB 6865   2.036   1.415   3.155
    1PC     O31 6866   2.184   1.529   3.065
    1PC     P31 6867   2.342   1.533   3.043
    1PC     O32 6868   2.396   1.618   3.166
    1PC     C31 6869   2.537   1.643   3.181
    1PC     H1A 6870   2.582   1.655   3.083
    1PC     H1B 6871   2.549   1.737   3.236
    1PC     C32 6872   2.603   1.527   3.259
    1PC     H2A 6873   2.600   1.438   3.197
    1PC     H2B 6874   2.707   1.554   3.277
    1PC     N31 6875   2.544   1.488   3.393
    1PC     C33 6876   2.503   1.608   3.471
    1PC     H3A 6877   2.584   1.680   3.472
    1PC     H3B 6878   2.416   1.649   3.420
    1PC     H3C 6879   2.476   1.577   3.572
    1PC     C34 6880   2.424   1.402   3.375
    1PC     H4A 6881   2.347   1.465   3.329
    1PC     H4B 6882   2.449   1.320   3.308
    1PC     H4C 6883   2.390   1.366   3.472
    1PC     C35 6884   2.644   1.410   3.471
    1PC     H5A 6885   2.663   1.316   3.419
    1PC     H5B 6886   2.605   1.391   3.571
    1PC     H5C 6887   2.737   1.467   3.477
    1PC     O33 6888   2.395   1.395   3.055
    1PC     O34 6889   2.368   1.609   2.919
    1PC     O21 6890   2.177   1.663   3.339
    1PC     C21 6891   2.150   1.791   3.374
    1PC     O22 6892   2.042   1.844   3.360
    1OL     C12 6893   2.270   1.865   3.428
    1OL     H2R 6894   2.262   1.970   3.398
    1OL     H2S 6895   2.359   1.828   3.377
    1OL     C13 6896   2.289   1.855   3.581
    1OL     H3R 6897   2.380   1.909   3.607
    1OL     H3S 6898   2.306   1.750   3.606
    1OL     C14 6899   2.174   1.907   3.670
    1OL     H4R 6900   2.083   1.849   3.652
    1OL     H4S 6901   2.152   2.011   3.646
    1OL     C15 6902   2.213   1.898   3.819
    1OL     H5R 6903   2.284   1.978   3.842
    1OL     H5S 6904   2.266   1.803   3.837
    1OL     C16 6905   2.094   1.905   3.917
    1OL     H6R 6906   2.028   1.820   3.900
    1OL     H6S 6907   2.035   1.995   3.896
    1OL     C17 6908   2.138   1.908   4.065
    1OL     H7R 6909   2.048   1.911   4.128
    1OL     H7S 6910   2.193   2.000   4.084
    1OL     C18 6911   2.227   1.790   4.112
    1OL     H8R 6912   2.252   1.807   4.217
    1OL     H8S 6913   2.321   1.792   4.057
    1OL     C19 6914   2.160   1.656   4.093
    1OL     H9R 6915   2.138   1.629   3.990
    1OL    C110 6916   2.125   1.571   4.190
    1OL    H10R 6917   2.077   1.478   4.163
    1OL    C111 6918   2.145   1.594   4.338
    1OL    H11R 6919   2.070   1.666   4.373
    1OL    H11S 6920   2.243   1.637   4.358
    1OL    C112 6921   2.130   1.463   4.419
    1OL    H12R 6922   2.222   1.405   4.408
    1OL    H12S 6923   2.049   1.403   4.378
    1OL    C113 6924   2.101   1.490   4.568
    1OL    H13R 6925   2.002   1.534   4.578
    1OL    H13S 6926   2.171   1.565   4.605
    1OL    C114 6927   2.110   1.364   4.657
    1OL    H14R 6928   2.211   1.323   4.653
    1OL    H14S 6929   2.042   1.288   4.620
    1OL    C115 6930   2.073   1.398   4.803
    1OL    H15R 6931   1.968   1.426   4.808
    1OL    H15S 6932   2.131   1.485   4.835
    1OL    C116 6933   2.097   1.283   4.902
    1OL    H16R 6934   2.205   1.269   4.916
    1OL    H16S 6935   2.057   1.190   4.861
    1OL    C117 6936   2.031   1.308   5.039
    1OL    H17R 6937   2.056   1.226   5.107
    1OL    H17S 6938   1.922   1.308   5.027
    1OL    C118 6939   2.072   1.441   5.105
    1OL    H18R 6940   2.181   1.446   5.118
    1OL    H18S 6941   2.025   1.451   5.203
    1OL    H18T 6942   2.041   1.527   5.045
    1PA    C116 6943   2.420   2.295   5.262
    1PA    H16R 6944   2.461   2.203   5.303
    1PA    H16S 6945   2.326   2.317   5.313
    1PA    H16T 6946   2.490   2.376   5.282
    1PA    C115 6947   2.398   2.280   5.110
    1PA    H15R 6948   2.494   2.264   5.061
    1PA    H15S 6949   2.336   2.193   5.091
    1PA    C114 6950   2.330   2.404   5.050
    1PA    H14R 6951   2.227   2.409   5.086
    1PA    H14S 6952   2.381   2.494   5.087
    1PA    C113 6953   2.333   2.403   4.897
    1PA    H13R 6954   2.435   2.423   4.862
    1PA    H13S 6955   2.304   2.304   4.860
    1PA    C112 6956   2.237   2.507   4.837
    1PA    H12R 6957   2.135   2.484   4.869
    1PA    H12S 6958   2.260   2.608   4.873
    1PA    C111 6959   2.242   2.509   4.683
    1PA    H11R 6960   2.340   2.540   4.649
    1PA    H11S 6961   2.224   2.407   4.647
    1PA    C110 6962   2.134   2.602   4.626
    1PA    H10R 6963   2.039   2.582   4.675
    1PA    H10S 6964   2.161   2.706   4.646
    1PA     C19 6965   2.118   2.582   4.475
    1PA     H9R 6966   2.209   2.615   4.423
    1PA     H9S 6967   2.106   2.476   4.455
    1PA     C18 6968   1.996   2.657   4.420
    1PA     H8R 6969   1.907   2.628   4.475
    1PA     H8S 6970   2.010   2.765   4.433
    1PA     C17 6971   1.977   2.624   4.271
    1PA     H7R 6972   2.066   2.659   4.217
    1PA     H7S 6973   1.972   2.516   4.259
    1PA     C16 6974   1.850   2.686   4.211
    1PA     H6R 6975   1.762   2.633   4.249
    1PA     H6S 6976   1.842   2.791   4.242
    1PA     C15 6977   1.854   2.680   4.058
    1PA     H5R 6978   1.893   2.583   4.026
    1PA     H5S 6979   1.753   2.689   4.018
    1PA     C14 6980   1.940   2.795   4.003
    1PA     H4R 6981   1.876   2.883   3.994
    1PA     H4S 6982   2.019   2.821   4.074
    1PA     C13 6983   2.006   2.763   3.869
    1PA     H3R 6984   2.097   2.706   3.886
    1PA     H3S 6985   1.940   2.701   3.808
    1PA     C12 6986   2.037   2.896   3.796
    1PA     H2R 6987   1.942   2.946   3.776
    1PA     H2S 6988   2.094   2.961   3.863
    1PC     C11 6989   2.113   2.884   3.667
    1PC     O12 6990   2.158   2.982   3.610
    1PC     O11 6991   2.128   2.759   3.618
    1PC      C1 6992   2.213   2.740   3.500
    1PC      HR 6993   2.208   2.828   3.436
    1PC      HS 6994   2.318   2.731   3.531
    1PC      C2 6995   2.167   2.617   3.417
    1PC      HX 6996   2.252   2.573   3.365
    1PC      C3 6997   2.071   2.673   3.309
    1PC      HA 6998   2.013   2.754   3.352
    1PC      HB 6999   2.132   2.716   3.229
    1PC     O31 7000   1.978   2.577   3.255
    1PC     P31 7001   1.961   2.554   3.097
    1PC     O32 7002   1.956   2.396   3.092
    1PC     C31 7003   1.858   2.332   3.175
    1PC     H1A 7004   1.776   2.400   3.198
    1PC     H1B 7005   1.816   2.245   3.123
    1PC     C32 7006   1.927   2.288   3.304
    1PC     H2A 7007   1.961   2.377   3.357
    1PC     H2B 7008   1.854   2.237   3.367
    1PC     N31 7009   2.046   2.198   3.293
    1PC     C33 7010   2.024   2.088   3.195
    1PC     H3A 7011   2.020   2.133   3.095
    1PC     H3B 7012   2.109   2.020   3.200
    1PC     H3C 7013   1.932   2.035   3.220
    1PC     C34 7014   2.171   2.270   3.252
    1PC     H4A 7015   2.256   2.203   3.258
    1PC     H4B 7016   2.159   2.303   3.148
    1PC     H4C 7017   2.186   2.358   3.315
    1PC     C35 7018   2.063   2.141   3.429
    1PC     H5A 7019   2.008   2.047   3.434
    1PC     H5B 7020   2.021   2.211   3.501
    1PC     H5C 7021   2.170   2.126   3.447
    1PC     O33 7022   1.827   2.598   3.053
    1PC     O34 7023   2.080   2.601   3.025
    1PC     O21 7024   2.105   2.516   3.506
    1PC     C21 7025   2.183   2.420   3.560
    1PC     O22 7026   2.291   2.389   3.515
    1OL     C12 7027   2.124   2.350   3.682
    1OL     H2R 7028   2.121   2.243   3.663
    1OL     H2S 7029   2.023   2.385   3.701
    1OL     C13 7030   2.214   2.373   3.805
    1OL     H3R 7031   2.205   2.479   3.832
    1OL     H3S 7032   2.317   2.354   3.776
    1OL     C14 7033   2.188   2.287   3.930
    1OL     H4R 7034   2.280   2.288   3.990
    1OL     H4S 7035   2.170   2.184   3.901
    1OL     C15 7036   2.073   2.339   4.017
    1OL     H5R 7037   1.981   2.338   3.958
    1OL     H5S 7038   2.093   2.444   4.043
    1OL     C16 7039   2.050   2.259   4.147
    1OL     H6R 7040   2.026   2.156   4.122
    1OL     H6S 7041   1.962   2.300   4.198
    1OL     C17 7042   2.169   2.261   4.246
    1OL     H7R 7043   2.198   2.365   4.264
    1OL     H7S 7044   2.255   2.211   4.202
    1OL     C18 7045   2.135   2.194   4.380
    1OL     H8R 7046   2.109   2.089   4.363
    1OL     H8S 7047   2.048   2.244   4.423
    1OL     C19 7048   2.251   2.205   4.478
    1OL     H9R 7049   2.318   2.289   4.460
    1OL    C110 7050   2.277   2.123   4.579
    1OL    H10R 7051   2.364   2.143   4.642
    1OL    C111 7052   2.197   2.002   4.621
    1OL    H11R 7053   2.263   1.915   4.626
    1OL    H11S 7054   2.119   1.978   4.548
    1OL    C112 7055   2.131   2.022   4.759
    1OL    H12R 7056   2.206   2.049   4.833
    1OL    H12S 7057   2.086   1.927   4.791
    1OL    C113 7058   2.022   2.130   4.753
    1OL    H13R 7059   1.950   2.102   4.675
    1OL    H13S 7060   2.067   2.224   4.722
    1OL    C114 7061   1.945   2.154   4.884
    1OL    H14R 7062   2.013   2.192   4.961
    1OL    H14S 7063   1.901   2.062   4.920
    1OL    C115 7064   1.835   2.257   4.854
    1OL    H15R 7065   1.764   2.212   4.785
    1OL    H15S 7066   1.882   2.341   4.803
    1OL    C116 7067   1.759   2.311   4.976
    1OL    H16R 7068   1.828   2.372   5.036
    1OL    H16S 7069   1.725   2.228   5.039
    1OL    C117 7070   1.638   2.396   4.933
    1OL    H17R 7071   1.602   2.453   5.019
    1OL    H17S 7072   1.558   2.329   4.902
    1OL    C118 7073   1.668   2.492   4.817
    1OL    H18R 7074   1.691   2.438   4.725
    1OL    H18S 7075   1.752   2.557   4.842
    1OL    H18T 7076   1.580   2.554   4.797
    1PA    C116 7077   2.846   4.022   5.456
    1PA    H16R 7078   2.872   3.998   5.559
    1PA    H16S 7079   2.755   3.968   5.430
    1PA    H16T 7080   2.824   4.129   5.450
    1PA    C115 7081   2.962   3.986   5.361
    1PA    H15R 7082   3.010   4.077   5.325
    1PA    H15S 7083   3.037   3.931   5.417
    1PA    C114 7084   2.920   3.902   5.239
    1PA    H14R 7085   3.010   3.876   5.183
    1PA    H14S 7086   2.878   3.808   5.275
    1PA    C113 7087   2.820   3.972   5.147
    1PA    H13R 7088   2.784   4.063   5.197
    1PA    H13S 7089   2.869   4.007   5.056
    1PA    C112 7090   2.700   3.882   5.111
    1PA    H12R 7091   2.669   3.831   5.202
    1PA    H12S 7092   2.613   3.941   5.082
    1PA    C111 7093   2.729   3.783   4.998
    1PA    H11R 7094   2.799   3.831   4.929
    1PA    H11S 7095   2.779   3.694   5.039
    1PA    C110 7096   2.605   3.742   4.917
    1PA    H10R 7097   2.528   3.702   4.983
    1PA    H10S 7098   2.562   3.832   4.870
    1PA     C19 7099   2.637   3.638   4.808
    1PA     H9R 7100   2.667   3.545   4.858
    1PA     H9S 7101   2.546   3.616   4.752
    1PA     C18 7102   2.749   3.680   4.712
    1PA     H8R 7103   2.841   3.694   4.769
    1PA     H8S 7104   2.768   3.598   4.642
    1PA     C17 7105   2.722   3.809   4.631
    1PA     H7R 7106   2.709   3.894   4.697
    1PA     H7S 7107   2.811   3.829   4.571
    1PA     C16 7108   2.599   3.794   4.539
    1PA     H6R 7109   2.603   3.695   4.491
    1PA     H6S 7110   2.509   3.796   4.600
    1PA     C15 7111   2.589   3.900   4.428
    1PA     H5R 7112   2.500   3.878   4.368
    1PA     H5S 7113   2.572   3.998   4.474
    1PA     C14 7114   2.713   3.905   4.336
    1PA     H4R 7115   2.792   3.963   4.386
    1PA     H4S 7116   2.751   3.804   4.322
    1PA     C13 7117   2.685   3.967   4.198
    1PA     H3R 7118   2.606   3.909   4.148
    1PA     H3S 7119   2.647   4.068   4.209
    1PA     C12 7120   2.811   3.968   4.108
    1PA     H2R 7121   2.891   4.023   4.158
    1PA     H2S 7122   2.846   3.866   4.092
    1PC     C11 7123   2.787   4.032   3.973
    1PC     O12 7124   2.688   4.097   3.945
    1PC     O11 7125   2.888   4.010   3.886
    1PC      C1 7126   2.884   4.084   3.760
    1PC      HR 7127   2.785   4.074   3.714
    1PC      HS 7128   2.901   4.189   3.783
    1PC      C2 7129   2.991   4.038   3.657
    1PC      HX 7130   2.972   4.088   3.562
    1PC      C3 7131   2.982   3.885   3.633
    1PC      HA 7132   3.006   3.835   3.728
    1PC      HB 7133   2.881   3.858   3.603
    1PC     O31 7134   3.077   3.838   3.533
    1PC     P31 7135   3.052   3.855   3.375
    1PC     O32 7136   2.921   3.765   3.351
    1PC     C31 7137   2.929   3.645   3.272
    1PC     H1A 7138   3.012   3.584   3.307
    1PC     H1B 7139   2.836   3.588   3.284
    1PC     C32 7140   2.950   3.683   3.124
    1PC     H2A 7141   3.041   3.744   3.118
    1PC     H2B 7142   2.968   3.593   3.066
    1PC     N31 7143   2.845   3.762   3.050
    1PC     C33 7144   2.824   3.898   3.109
    1PC     H3A 7145   2.753   3.954   3.047
    1PC     H3B 7146   2.787   3.887   3.211
    1PC     H3C 7147   2.920   3.949   3.113
    1PC     C34 7148   2.893   3.781   2.910
    1PC     H4A 7149   2.814   3.828   2.852
    1PC     H4B 7150   2.982   3.844   2.913
    1PC     H4C 7151   2.918   3.683   2.870
    1PC     C35 7152   2.717   3.686   3.047
    1PC     H5A 7153   2.647   3.739   2.982
    1PC     H5B 7154   2.678   3.680   3.149
    1PC     H5C 7155   2.737   3.587   3.008
    1PC     O33 7156   3.012   3.994   3.342
    1PC     O34 7157   3.163   3.791   3.301
    1PC     O21 7158   3.124   4.071   3.704
    1PC     C21 7159   3.172   4.194   3.675
    1PC     O22 7160   3.107   4.281   3.621
    1OL     C12 7161   3.313   4.220   3.722
    1OL     H2R 7162   3.323   4.327   3.743
    1OL     H2S 7163   3.382   4.196   3.641
    1OL     C13 7164   3.355   4.140   3.847
    1OL     H3R 7165   3.458   4.165   3.871
    1OL     H3S 7166   3.353   4.033   3.823
    1OL     C14 7167   3.269   4.164   3.973
    1OL     H4R 7168   3.165   4.136   3.954
    1OL     H4S 7169   3.270   4.270   4.000
    1OL     C15 7170   3.324   4.079   4.089
    1OL     H5R 7171   3.426   4.112   4.112
    1OL     H5S 7172   3.330   3.975   4.057
    1OL     C16 7173   3.241   4.085   4.218
    1OL     H6R 7174   3.138   4.053   4.197
    1OL     H6S 7175   3.237   4.188   4.255
    1OL     C17 7176   3.303   3.992   4.325
    1OL     H7R 7177   3.404   4.026   4.348
    1OL     H7S 7178   3.312   3.892   4.283
    1OL     C18 7179   3.222   3.984   4.455
    1OL     H8R 7180   3.270   3.909   4.520
    1OL     H8S 7181   3.122   3.948   4.433
    1OL     C19 7182   3.218   4.117   4.528
    1OL     H9R 7183   3.300   4.185   4.506
    1OL    C110 7184   3.123   4.154   4.614
    1OL    H10R 7185   3.130   4.251   4.661
    1OL    C111 7186   3.005   4.068   4.656
    1OL    H11R 7187   3.020   3.964   4.628
    1OL    H11S 7188   2.915   4.103   4.604
    1OL    C112 7189   2.980   4.077   4.807
    1OL    H12R 7190   2.902   4.005   4.834
    1OL    H12S 7191   2.941   4.176   4.831
    1OL    C113 7192   3.105   4.052   4.893
    1OL    H13R 7193   3.079   4.060   4.999
    1OL    H13S 7194   3.178   4.130   4.872
    1OL    C114 7195   3.175   3.917   4.870
    1OL    H14R 7196   3.276   3.925   4.909
    1OL    H14S 7197   3.182   3.896   4.763
    1OL    C115 7198   3.107   3.801   4.943
    1OL    H15R 7199   3.003   3.827   4.965
    1OL    H15S 7200   3.158   3.787   5.039
    1OL    C116 7201   3.109   3.671   4.862
    1OL    H16R 7202   3.208   3.649   4.823
    1OL    H16S 7203   3.043   3.681   4.776
    1OL    C117 7204   3.063   3.556   4.951
    1OL    H17R 7205   3.022   3.476   4.888
    1OL    H17S 7206   2.983   3.588   5.019
    1OL    C118 7207   3.182   3.504   5.033
    1OL    H18R 7208   3.250   3.447   4.968
    1OL    H18S 7209   3.148   3.439   5.114
    1OL    H18T 7210   3.240   3.586   5.077
    1PA    C116 7211   4.321   2.489   5.340
    1PA    H16R 7212   4.306   2.592   5.375
    1PA    H16S 7213   4.407   2.447   5.392
    1PA    H16T 7214   4.232   2.431   5.366
    1PA    C115 7215   4.344   2.488   5.188
    1PA    H15R 7216   4.356   2.385   5.154
    1PA    H15S 7217   4.257   2.530   5.138
    1PA    C114 7218   4.470   2.569   5.153
    1PA    H14R 7219   4.462   2.669   5.195
    1PA    H14S 7220   4.556   2.521   5.200
    1PA    C113 7221   4.495   2.581   5.002
    1PA    H13R 7222   4.600   2.605   4.985
    1PA    H13S 7223   4.477   2.485   4.953
    1PA    C112 7224   4.410   2.690   4.937
    1PA    H12R 7225   4.306   2.659   4.935
    1PA    H12S 7226   4.416   2.782   4.995
    1PA    C111 7227   4.459   2.718   4.794
    1PA    H11R 7228   4.561   2.757   4.796
    1PA    H11S 7229   4.461   2.624   4.738
    1PA    C110 7230   4.368   2.818   4.722
    1PA    H10R 7231   4.264   2.792   4.745
    1PA    H10S 7232   4.386   2.919   4.761
    1PA     C19 7233   4.385   2.815   4.570
    1PA     H9R 7234   4.412   2.714   4.539
    1PA     H9S 7235   4.289   2.838   4.523
    1PA     C18 7236   4.491   2.910   4.512
    1PA     H8R 7237   4.457   3.013   4.522
    1PA     H8S 7238   4.585   2.900   4.565
    1PA     C17 7239   4.510   2.874   4.363
    1PA     H7R 7240   4.564   2.779   4.357
    1PA     H7S 7241   4.412   2.859   4.317
    1PA     C16 7242   4.586   2.981   4.284
    1PA     H6R 7243   4.535   3.076   4.296
    1PA     H6S 7244   4.687   2.991   4.324
    1PA     C15 7245   4.593   2.946   4.134
    1PA     H5R 7246   4.650   2.853   4.121
    1PA     H5S 7247   4.493   2.929   4.094
    1PA     C14 7248   4.661   3.061   4.058
    1PA     H4R 7249   4.602   3.151   4.071
    1PA     H4S 7250   4.759   3.077   4.104
    1PA     C13 7251   4.683   3.039   3.908
    1PA     H3R 7252   4.762   3.107   3.876
    1PA     H3S 7253   4.719   2.937   3.891
    1PA     C12 7254   4.557   3.064   3.824
    1PA     H2R 7255   4.482   2.986   3.845
    1PA     H2S 7256   4.513   3.161   3.850
    1PC     C11 7257   4.590   3.064   3.677
    1PC     O12 7258   4.692   3.109   3.631
    1PC     O11 7259   4.490   3.014   3.602
    1PC      C1 7260   4.516   3.000   3.459
    1PC      HR 7261   4.418   2.990   3.413
    1PC      HS 7262   4.565   3.089   3.420
    1PC      C2 7263   4.597   2.873   3.422
    1PC      HX 7264   4.701   2.883   3.456
    1PC      C3 7265   4.598   2.852   3.268
    1PC      HA 7266   4.655   2.931   3.220
    1PC      HB 7267   4.646   2.757   3.246
    1PC     O31 7268   4.462   2.848   3.214
    1PC     P31 7269   4.406   2.954   3.108
    1PC     O32 7270   4.380   3.084   3.197
    1PC     C31 7271   4.279   3.178   3.160
    1PC     H1A 7272   4.301   3.273   3.209
    1PC     H1B 7273   4.282   3.193   3.051
    1PC     C32 7274   4.141   3.127   3.205
    1PC     H2A 7275   4.067   3.206   3.187
    1PC     H2B 7276   4.113   3.041   3.143
    1PC     N31 7277   4.124   3.082   3.348
    1PC     C33 7278   4.160   2.937   3.363
    1PC     H3A 7279   4.096   2.879   3.296
    1PC     H3B 7280   4.263   2.922   3.331
    1PC     H3C 7281   4.147   2.906   3.466
    1PC     C34 7282   4.202   3.165   3.445
    1PC     H4A 7283   4.187   3.126   3.546
    1PC     H4B 7284   4.308   3.158   3.419
    1PC     H4C 7285   4.168   3.269   3.438
    1PC     C35 7286   3.981   3.095   3.381
    1PC     H5A 7287   3.927   3.035   3.308
    1PC     H5B 7288   3.953   3.200   3.373
    1PC     H5C 7289   3.966   3.058   3.483
    1PC     O33 7290   4.509   2.992   3.010
    1PC     O34 7291   4.273   2.909   3.062
    1PC     O21 7292   4.532   2.758   3.483
    1PC     C21 7293   4.576   2.715   3.603
    1PC     O22 7294   4.672   2.763   3.661
    1OL     C12 7295   4.489   2.610   3.665
    1OL     H2R 7296   4.553   2.533   3.708
    1OL     H2S 7297   4.427   2.562   3.588
    1OL     C13 7298   4.399   2.669   3.774
    1OL     H3R 7299   4.459   2.734   3.838
    1OL     H3S 7300   4.361   2.589   3.838
    1OL     C14 7301   4.279   2.747   3.716
    1OL     H4R 7302   4.209   2.677   3.668
    1OL     H4S 7303   4.314   2.817   3.640
    1OL     C15 7304   4.208   2.824   3.828
    1OL     H5R 7305   4.285   2.882   3.879
    1OL     H5S 7306   4.165   2.755   3.900
    1OL     C16 7307   4.099   2.921   3.776
    1OL     H6R 7308   4.022   2.863   3.725
    1OL     H6S 7309   4.144   2.988   3.702
    1OL     C17 7310   4.033   3.006   3.886
    1OL     H7R 7311   3.979   2.940   3.955
    1OL     H7S 7312   3.958   3.069   3.839
    1OL     C18 7313   4.128   3.096   3.967
    1OL     H8R 7314   4.070   3.175   4.016
    1OL     H8S 7315   4.198   3.147   3.900
    1OL     C19 7316   4.205   3.019   4.072
    1OL     H9R 7317   4.304   2.985   4.042
    1OL    C110 7318   4.164   2.994   4.196
    1OL    H10R 7319   4.228   2.939   4.263
    1OL    C111 7320   4.032   3.038   4.254
    1OL    H11R 7321   3.987   2.958   4.313
    1OL    H11S 7322   3.960   3.065   4.176
    1OL    C112 7323   4.055   3.160   4.345
    1OL    H12R 7324   3.959   3.200   4.378
    1OL    H12S 7325   4.106   3.237   4.286
    1OL    C113 7326   4.142   3.126   4.467
    1OL    H13R 7327   4.237   3.084   4.435
    1OL    H13S 7328   4.090   3.050   4.526
    1OL    C114 7329   4.169   3.250   4.553
    1OL    H14R 7330   4.075   3.296   4.584
    1OL    H14S 7331   4.223   3.325   4.494
    1OL    C115 7332   4.253   3.218   4.678
    1OL    H15R 7333   4.268   3.311   4.733
    1OL    H15S 7334   4.352   3.183   4.647
    1OL    C116 7335   4.190   3.111   4.770
    1OL    H16R 7336   4.256   3.096   4.855
    1OL    H16S 7337   4.184   3.016   4.718
    1OL    C117 7338   4.049   3.148   4.821
    1OL    H17R 7339   3.976   3.138   4.740
    1OL    H17S 7340   4.048   3.252   4.854
    1OL    C118 7341   4.008   3.059   4.939
    1OL    H18R 7342   3.995   2.955   4.907
    1OL    H18S 7343   3.915   3.095   4.983
    1OL    H18T 7344   4.085   3.062   5.016
    1PA    C116 7345   4.047   3.602   5.246
    1PA    H16R 7346   4.150   3.613   5.213
    1PA    H16S 7347   4.046   3.582   5.353
    1PA    H16T 7348   3.995   3.696   5.228
    1PA    C115 7349   3.975   3.488   5.171
    1PA    H15R 7350   4.018   3.392   5.203
    1PA    H15S 7351   3.871   3.489   5.204
    1PA    C114 7352   3.981   3.494   5.017
    1PA    H14R 7353   4.085   3.494   4.983
    1PA    H14S 7354   3.934   3.403   4.978
    1PA    C113 7355   3.911   3.616   4.954
    1PA    H13R 7356   3.805   3.613   4.980
    1PA    H13S 7357   3.954   3.706   4.998
    1PA    C112 7358   3.926   3.629   4.802
    1PA    H12R 7359   3.864   3.713   4.768
    1PA    H12S 7360   4.029   3.656   4.779
    1PA    C111 7361   3.889   3.502   4.722
    1PA    H11R 7362   3.965   3.426   4.743
    1PA    H11S 7363   3.794   3.463   4.757
    1PA    C110 7364   3.881   3.521   4.569
    1PA    H10R 7365   3.892   3.422   4.523
    1PA    H10S 7366   3.782   3.555   4.541
    1PA     C19 7367   3.986   3.617   4.509
    1PA     H9R 7368   3.971   3.718   4.550
    1PA     H9S 7369   4.086   3.586   4.540
    1PA     C18 7370   3.982   3.627   4.355
    1PA     H8R 7371   3.883   3.656   4.322
    1PA     H8S 7372   4.052   3.705   4.323
    1PA     C17 7373   4.022   3.493   4.291
    1PA     H7R 7374   4.115   3.460   4.337
    1PA     H7S 7375   3.946   3.419   4.313
    1PA     C16 7376   4.045   3.496   4.139
    1PA     H6R 7377   4.116   3.575   4.113
    1PA     H6S 7378   4.093   3.401   4.112
    1PA     C15 7379   3.917   3.512   4.054
    1PA     H5R 7380   3.829   3.486   4.113
    1PA     H5S 7381   3.907   3.616   4.023
    1PA     C14 7382   3.922   3.420   3.931
    1PA     H4R 7383   4.020   3.429   3.883
    1PA     H4S 7384   3.912   3.316   3.964
    1PA     C13 7385   3.814   3.448   3.826
    1PA     H3R 7386   3.715   3.442   3.872
    1PA     H3S 7387   3.827   3.550   3.788
    1PA     C12 7388   3.824   3.348   3.709
    1PA     H2R 7389   3.923   3.354   3.663
    1PA     H2S 7390   3.809   3.247   3.746
    1PC     C11 7391   3.719   3.376   3.604
    1PC     O12 7392   3.607   3.329   3.611
    1PC     O11 7393   3.766   3.446   3.500
    1PC      C1 7394   3.668   3.506   3.408
    1PC      HR 7395   3.721   3.541   3.319
    1PC      HS 7396   3.594   3.431   3.377
    1PC      C2 7397   3.596   3.626   3.475
    1PC      HX 7398   3.524   3.588   3.547
    1PC      C3 7399   3.521   3.712   3.370
    1PC      HA 7400   3.445   3.652   3.319
    1PC      HB 7401   3.468   3.793   3.421
    1PC     O31 7402   3.613   3.766   3.271
    1PC     P31 7403   3.625   3.926   3.252
    1PC     O32 7404   3.775   3.947   3.204
    1PC     C31 7405   3.838   3.862   3.108
    1PC     H1A 7406   3.762   3.825   3.039
    1PC     H1B 7407   3.913   3.919   3.053
    1PC     C32 7408   3.903   3.747   3.187
    1PC     H2A 7409   3.824   3.694   3.239
    1PC     H2B 7410   3.952   3.679   3.117
    1PC     N31 7411   4.006   3.781   3.293
    1PC     C33 7412   3.956   3.876   3.397
    1PC     H3A 7413   3.859   3.842   3.432
    1PC     H3B 7414   4.028   3.884   3.479
    1PC     H3C 7415   3.942   3.973   3.350
    1PC     C34 7416   4.042   3.654   3.362
    1PC     H4A 7417   4.121   3.677   3.435
    1PC     H4B 7418   3.953   3.618   3.412
    1PC     H4C 7419   4.077   3.584   3.286
    1PC     C35 7420   4.128   3.840   3.232
    1PC     H5A 7421   4.167   3.771   3.157
    1PC     H5B 7422   4.201   3.861   3.309
    1PC     H5C 7423   4.098   3.933   3.182
    1PC     O33 7424   3.537   3.969   3.142
    1PC     O34 7425   3.618   3.985   3.387
    1PC     O21 7426   3.698   3.709   3.539
    1PC     C21 7427   3.677   3.748   3.666
    1PC     O22 7428   3.597   3.695   3.740
    1OL     C12 7429   3.777   3.851   3.712
    1OL     H2R 7430   3.807   3.913   3.627
    1OL     H2S 7431   3.866   3.799   3.748
    1OL     C13 7432   3.722   3.943   3.823
    1OL     H3R 7433   3.680   3.883   3.903
    1OL     H3S 7434   3.642   4.004   3.781
    1OL     C14 7435   3.832   4.035   3.880
    1OL     H4R 7436   3.879   4.090   3.798
    1OL     H4S 7437   3.910   3.974   3.926
    1OL     C15 7438   3.779   4.138   3.982
    1OL     H5R 7439   3.702   4.198   3.934
    1OL     H5S 7440   3.860   4.206   4.008
    1OL     C16 7441   3.722   4.077   4.111
    1OL     H6R 7442   3.639   4.010   4.088
    1OL     H6S 7443   3.680   4.159   4.172
    1OL     C17 7444   3.828   4.003   4.195
    1OL     H7R 7445   3.915   4.068   4.207
    1OL     H7S 7446   3.861   3.913   4.143
    1OL     C18 7447   3.777   3.964   4.335
    1OL     H8R 7448   3.736   4.053   4.384
    1OL     H8S 7449   3.863   3.930   4.394
    1OL     C19 7450   3.671   3.855   4.331
    1OL     H9R 7451   3.628   3.834   4.233
    1OL    C110 7452   3.630   3.787   4.437
    1OL    H10R 7453   3.553   3.711   4.426
    1OL    C111 7454   3.683   3.809   4.577
    1OL    H11R 7455   3.786   3.844   4.575
    1OL    H11S 7456   3.682   3.714   4.633
    1OL    C112 7457   3.598   3.911   4.653
    1OL    H12R 7458   3.571   3.992   4.586
    1OL    H12S 7459   3.657   3.955   4.733
    1OL    C113 7460   3.469   3.849   4.710
    1OL    H13R 7461   3.419   3.791   4.632
    1OL    H13S 7462   3.402   3.931   4.735
    1OL    C114 7463   3.488   3.758   4.834
    1OL    H14R 7464   3.532   3.663   4.803
    1OL    H14S 7465   3.390   3.734   4.876
    1OL    C115 7466   3.575   3.815   4.948
    1OL    H15R 7467   3.679   3.804   4.919
    1OL    H15S 7468   3.561   3.754   5.037
    1OL    C116 7469   3.552   3.964   4.984
    1OL    H16R 7470   3.497   4.016   4.905
    1OL    H16S 7471   3.650   4.012   4.988
    1OL    C117 7472   3.480   3.990   5.118
    1OL    H17R 7473   3.522   3.927   5.197
    1OL    H17S 7474   3.374   3.968   5.109
    1OL    C118 7475   3.500   4.137   5.155
    1OL    H18R 7476   3.479   4.201   5.069
    1OL    H18S 7477   3.604   4.155   5.182
    1OL    H18T 7478   3.436   4.166   5.238
    1PA    C116 7479   3.756   1.448   5.265
    1PA    H16R 7480   3.648   1.446   5.249
    1PA    H16S 7481   3.790   1.551   5.263
    1PA    H16T 7482   3.778   1.404   5.362
    1PA    C115 7483   3.827   1.369   5.154
    1PA    H15R 7484   3.934   1.370   5.174
    1PA    H15S 7485   3.792   1.265   5.155
    1PA    C114 7486   3.803   1.429   5.016
    1PA    H14R 7487   3.696   1.440   4.997
    1PA    H14S 7488   3.849   1.528   5.011
    1PA    C113 7489   3.866   1.343   4.906
    1PA    H13R 7490   3.973   1.330   4.925
    1PA    H13S 7491   3.819   1.245   4.905
    1PA    C112 7492   3.848   1.412   4.770
    1PA    H12R 7493   3.742   1.433   4.752
    1PA    H12S 7494   3.900   1.508   4.771
    1PA    C111 7495   3.906   1.326   4.658
    1PA    H11R 7496   3.907   1.389   4.568
    1PA    H11S 7497   4.009   1.300   4.684
    1PA    C110 7498   3.831   1.196   4.624
    1PA    H10R 7499   3.887   1.141   4.549
    1PA    H10S 7500   3.821   1.132   4.712
    1PA     C19 7501   3.693   1.233   4.569
    1PA     H9R 7502   3.632   1.276   4.649
    1PA     H9S 7503   3.709   1.309   4.493
    1PA     C18 7504   3.615   1.118   4.506
    1PA     H8R 7505   3.611   1.038   4.581
    1PA     H8S 7506   3.512   1.152   4.490
    1PA     C17 7507   3.670   1.066   4.371
    1PA     H7R 7508   3.772   1.031   4.382
    1PA     H7S 7509   3.609   0.982   4.338
    1PA     C16 7510   3.662   1.176   4.264
    1PA     H6R 7511   3.559   1.212   4.264
    1PA     H6S 7512   3.727   1.260   4.291
    1PA     C15 7513   3.695   1.135   4.120
    1PA     H5R 7514   3.647   1.039   4.098
    1PA     H5S 7515   3.650   1.208   4.053
    1PA     C14 7516   3.846   1.128   4.090
    1PA     H4R 7517   3.897   1.212   4.136
    1PA     H4S 7518   3.888   1.036   4.131
    1PA     C13 7519   3.866   1.134   3.937
    1PA     H3R 7520   3.807   1.055   3.890
    1PA     H3S 7521   3.826   1.229   3.902
    1PA     C12 7522   4.011   1.121   3.890
    1PA     H2R 7523   4.071   1.204   3.929
    1PA     H2S 7524   4.055   1.028   3.926
    1PC     C11 7525   4.016   1.122   3.739
    1PC     O12 7526   4.031   1.023   3.670
    1PC     O11 7527   4.002   1.246   3.687
    1PC      C1 7528   3.992   1.262   3.542
    1PC      HR 7529   4.046   1.354   3.517
    1PC      HS 7530   4.040   1.178   3.490
    1PC      C2 7531   3.847   1.279   3.493
    1PC      HX 7532   3.786   1.192   3.520
    1PC      C3 7533   3.837   1.299   3.339
    1PC      HA 7534   3.853   1.204   3.287
    1PC      HB 7535   3.738   1.336   3.315
    1PC     O31 7536   3.936   1.395   3.294
    1PC     P31 7537   3.932   1.456   3.145
    1PC     O32 7538   4.088   1.463   3.113
    1PC     C31 7539   4.169   1.568   3.172
    1PC     H1A 7540   4.245   1.598   3.099
    1PC     H1B 7541   4.108   1.656   3.194
    1PC     C32 7542   4.235   1.517   3.301
    1PC     H2A 7543   4.298   1.596   3.342
    1PC     H2B 7544   4.158   1.494   3.374
    1PC     N31 7545   4.323   1.394   3.290
    1PC     C33 7546   4.388   1.380   3.157
    1PC     H3A 7547   4.443   1.472   3.134
    1PC     H3B 7548   4.455   1.294   3.159
    1PC     H3C 7549   4.309   1.365   3.083
    1PC     C34 7550   4.430   1.400   3.394
    1PC     H4A 7551   4.490   1.310   3.387
    1PC     H4B 7552   4.493   1.487   3.375
    1PC     H4C 7553   4.384   1.407   3.493
    1PC     C35 7554   4.242   1.272   3.315
    1PC     H5A 7555   4.212   1.273   3.420
    1PC     H5B 7556   4.303   1.185   3.293
    1PC     H5C 7557   4.154   1.277   3.250
    1PC     O33 7558   3.869   1.359   3.053
    1PC     O34 7559   3.886   1.596   3.148
    1PC     O21 7560   3.796   1.399   3.552
    1PC     C21 7561   3.721   1.389   3.662
    1PC     O22 7562   3.676   1.286   3.708
    1OL     C12 7563   3.716   1.522   3.732
    1OL     H2R 7564   3.612   1.544   3.758
    1OL     H2S 7565   3.749   1.600   3.663
    1OL     C13 7566   3.810   1.517   3.854
    1OL     H3R 7567   3.903   1.469   3.826
    1OL     H3S 7568   3.764   1.456   3.933
    1OL     C14 7569   3.840   1.657   3.908
    1OL     H4R 7570   3.744   1.705   3.929
    1OL     H4S 7571   3.891   1.715   3.831
    1OL     C15 7572   3.923   1.660   4.036
    1OL     H5R 7573   3.872   1.599   4.111
    1OL     H5S 7574   3.925   1.762   4.075
    1OL     C16 7575   4.069   1.613   4.015
    1OL     H6R 7576   4.121   1.687   3.954
    1OL     H6S 7577   4.072   1.518   3.962
    1OL     C17 7578   4.143   1.598   4.149
    1OL     H7R 7579   4.132   1.690   4.206
    1OL     H7S 7580   4.249   1.583   4.131
    1OL     C18 7581   4.088   1.480   4.232
    1OL     H8R 7582   3.985   1.457   4.204
    1OL     H8S 7583   4.085   1.512   4.337
    1OL     C19 7584   4.170   1.355   4.214
    1OL     H9R 7585   4.207   1.338   4.113
    1OL    C110 7586   4.198   1.269   4.310
    1OL    H10R 7587   4.257   1.180   4.288
    1OL    C111 7588   4.150   1.281   4.453
    1OL    H11R 7589   4.118   1.183   4.488
    1OL    H11S 7590   4.061   1.345   4.454
    1OL    C112 7591   4.253   1.339   4.554
    1OL    H12R 7592   4.330   1.263   4.571
    1OL    H12S 7593   4.205   1.348   4.651
    1OL    C113 7594   4.320   1.473   4.515
    1OL    H13R 7595   4.330   1.481   4.407
    1OL    H13S 7596   4.423   1.472   4.553
    1OL    C114 7597   4.251   1.599   4.570
    1OL    H14R 7598   4.156   1.614   4.518
    1OL    H14S 7599   4.313   1.686   4.545
    1OL    C115 7600   4.224   1.599   4.722
    1OL    H15R 7601   4.144   1.528   4.744
    1OL    H15S 7602   4.187   1.697   4.751
    1OL    C116 7603   4.348   1.564   4.808
    1OL    H16R 7604   4.421   1.645   4.800
    1OL    H16S 7605   4.395   1.473   4.770
    1OL    C117 7606   4.311   1.539   4.955
    1OL    H17R 7607   4.249   1.449   4.962
    1OL    H17S 7608   4.252   1.622   4.993
    1OL    C118 7609   4.437   1.521   5.043
    1OL    H18R 7610   4.502   1.607   5.034
    1OL    H18S 7611   4.492   1.432   5.012
    1OL    H18T 7612   4.408   1.509   5.148
    1PA    C116 7613   1.718   2.777   5.080
    1PA    H16R 7614   1.679   2.800   5.179
    1PA    H16S 7615   1.789   2.855   5.054
    1PA    H16T 7616   1.770   2.681   5.083
    1PA    C115 7617   1.604   2.771   4.977
    1PA    H15R 7618   1.645   2.747   4.879
    1PA    H15S 7619   1.537   2.689   5.005
    1PA    C114 7620   1.525   2.901   4.964
    1PA    H14R 7621   1.512   2.947   5.062
    1PA    H14S 7622   1.582   2.973   4.905
    1PA    C113 7623   1.388   2.874   4.900
    1PA    H13R 7624   1.400   2.828   4.802
    1PA    H13S 7625   1.332   2.804   4.962
    1PA    C112 7626   1.305   3.003   4.887
    1PA    H12R 7627   1.201   2.977   4.869
    1PA    H12S 7628   1.309   3.059   4.981
    1PA    C111 7629   1.356   3.089   4.771
    1PA    H11R 7630   1.464   3.105   4.781
    1PA    H11S 7631   1.338   3.037   4.677
    1PA    C110 7632   1.286   3.225   4.770
    1PA    H10R 7633   1.179   3.211   4.786
    1PA    H10S 7634   1.326   3.284   4.852
    1PA     C19 7635   1.305   3.300   4.637
    1PA     H9R 7636   1.269   3.237   4.556
    1PA     H9S 7637   1.244   3.391   4.637
    1PA     C18 7638   1.452   3.340   4.612
    1PA     H8R 7639   1.481   3.416   4.685
    1PA     H8S 7640   1.518   3.255   4.626
    1PA     C17 7641   1.474   3.397   4.471
    1PA     H7R 7642   1.411   3.485   4.457
    1PA     H7S 7643   1.578   3.429   4.466
    1PA     C16 7644   1.451   3.297   4.356
    1PA     H6R 7645   1.523   3.216   4.367
    1PA     H6S 7646   1.351   3.254   4.361
    1PA     C15 7647   1.469   3.365   4.220
    1PA     H5R 7648   1.381   3.426   4.200
    1PA     H5S 7649   1.556   3.432   4.224
    1PA     C14 7650   1.491   3.266   4.105
    1PA     H4R 7651   1.584   3.211   4.120
    1PA     H4S 7652   1.409   3.193   4.103
    1PA     C13 7653   1.495   3.340   3.970
    1PA     H3R 7654   1.397   3.387   3.955
    1PA     H3S 7655   1.569   3.420   3.973
    1PA     C12 7656   1.521   3.248   3.849
    1PA     H2R 7657   1.465   3.155   3.858
    1PA     H2S 7658   1.484   3.299   3.760
    1PC     C11 7659   1.667   3.217   3.827
    1PC     O12 7660   1.744   3.180   3.914
    1PC     O11 7661   1.700   3.234   3.699
    1PC      C1 7662   1.832   3.202   3.649
    1PC      HR 7663   1.880   3.295   3.619
    1PC      HS 7664   1.893   3.156   3.727
    1PC      C2 7665   1.824   3.107   3.527
    1PC      HX 7666   1.922   3.105   3.480
    1PC      C3 7667   1.720   3.157   3.423
    1PC      HA 7668   1.728   3.265   3.413
    1PC      HB 7669   1.742   3.114   3.325
    1PC     O31 7670   1.583   3.123   3.458
    1PC     P31 7671   1.464   3.164   3.360
    1PC     O32 7672   1.459   3.039   3.264
    1PC     C31 7673   1.408   2.916   3.312
    1PC     H1A 7674   1.480   2.872   3.381
    1PC     H1B 7675   1.313   2.932   3.365
    1PC     C32 7676   1.383   2.826   3.189
    1PC     H2A 7677   1.354   2.727   3.224
    1PC     H2B 7678   1.301   2.869   3.130
    1PC     N31 7679   1.497   2.807   3.092
    1PC     C33 7680   1.465   2.692   3.003
    1PC     H3A 7681   1.373   2.715   2.950
    1PC     H3B 7682   1.548   2.680   2.933
    1PC     H3C 7683   1.456   2.602   3.063
    1PC     C34 7684   1.518   2.925   3.005
    1PC     H4A 7685   1.549   3.009   3.067
    1PC     H4B 7686   1.596   2.903   2.932
    1PC     H4C 7687   1.424   2.950   2.954
    1PC     C35 7688   1.624   2.778   3.164
    1PC     H5A 7689   1.614   2.688   3.224
    1PC     H5B 7690   1.650   2.864   3.226
    1PC     H5C 7691   1.703   2.764   3.089
    1PC     O33 7692   1.333   3.166   3.428
    1PC     O34 7693   1.507   3.276   3.274
    1PC     O21 7694   1.794   2.971   3.574
    1PC     C21 7695   1.802   2.870   3.486
    1PC     O22 7696   1.822   2.884   3.368
    1OL     C12 7697   1.794   2.734   3.552
    1OL     H2R 7698   1.809   2.747   3.660
    1OL     H2S 7699   1.877   2.673   3.516
    1OL     C13 7700   1.661   2.660   3.526
    1OL     H3R 7701   1.682   2.570   3.469
    1OL     H3S 7702   1.595   2.722   3.466
    1OL     C14 7703   1.589   2.621   3.657
    1OL     H4R 7704   1.655   2.558   3.717
    1OL     H4S 7705   1.501   2.561   3.632
    1OL     C15 7706   1.546   2.744   3.738
    1OL     H5R 7707   1.481   2.807   3.676
    1OL     H5S 7708   1.633   2.804   3.766
    1OL     C16 7709   1.470   2.706   3.867
    1OL     H6R 7710   1.535   2.647   3.932
    1OL     H6S 7711   1.383   2.644   3.841
    1OL     C17 7712   1.423   2.832   3.941
    1OL     H7R 7713   1.363   2.893   3.873
    1OL     H7S 7714   1.509   2.891   3.971
    1OL     C18 7715   1.338   2.799   4.065
    1OL     H8R 7716   1.398   2.741   4.136
    1OL     H8S 7717   1.253   2.737   4.036
    1OL     C19 7718   1.287   2.928   4.127
    1OL     H9R 7719   1.220   2.985   4.064
    1OL    C110 7720   1.318   2.973   4.247
    1OL    H10R 7721   1.275   3.068   4.280
    1OL    C111 7722   1.410   2.907   4.347
    1OL    H11R 7723   1.387   2.800   4.355
    1OL    H11S 7724   1.388   2.950   4.446
    1OL    C112 7725   1.559   2.925   4.311
    1OL    H12R 7726   1.576   3.025   4.270
    1OL    H12S 7727   1.585   2.854   4.233
    1OL    C113 7728   1.651   2.904   4.433
    1OL    H13R 7729   1.754   2.892   4.400
    1OL    H13S 7730   1.622   2.813   4.485
    1OL    C114 7731   1.645   3.025   4.529
    1OL    H14R 7732   1.541   3.055   4.542
    1OL    H14S 7733   1.699   3.109   4.485
    1OL    C115 7734   1.702   2.994   4.667
    1OL    H15R 7735   1.648   2.909   4.708
    1OL    H15S 7736   1.683   3.080   4.731
    1OL    C116 7737   1.853   2.962   4.669
    1OL    H16R 7738   1.909   3.048   4.631
    1OL    H16S 7739   1.874   2.877   4.605
    1OL    C117 7740   1.899   2.929   4.812
    1OL    H17R 7741   2.003   2.896   4.810
    1OL    H17S 7742   1.842   2.843   4.848
    1OL    C118 7743   1.884   3.048   4.908
    1OL    H18R 7744   1.943   3.032   4.999
    1OL    H18S 7745   1.780   3.062   4.938
    1OL    H18T 7746   1.916   3.141   4.860
    1PA    C116 7747   1.290   1.242   5.276
    1PA    H16R 7748   1.203   1.265   5.214
    1PA    H16S 7749   1.331   1.336   5.314
    1PA    H16T 7750   1.255   1.186   5.363
    1PA    C115 7751   1.392   1.156   5.200
    1PA    H15R 7752   1.460   1.111   5.272
    1PA    H15S 7753   1.335   1.075   5.155
    1PA    C114 7754   1.474   1.220   5.086
    1PA    H14R 7755   1.554   1.152   5.057
    1PA    H14S 7756   1.410   1.227   4.997
    1PA    C113 7757   1.535   1.359   5.116
    1PA    H13R 7758   1.486   1.405   5.201
    1PA    H13S 7759   1.641   1.348   5.143
    1PA    C112 7760   1.522   1.457   4.999
    1PA    H12R 7761   1.422   1.449   4.955
    1PA    H12S 7762   1.530   1.559   5.037
    1PA    C111 7763   1.626   1.433   4.890
    1PA    H11R 7764   1.727   1.436   4.933
    1PA    H11S 7765   1.612   1.334   4.847
    1PA    C110 7766   1.613   1.541   4.782
    1PA    H10R 7767   1.511   1.545   4.744
    1PA    H10S 7768   1.635   1.639   4.825
    1PA     C19 7769   1.709   1.511   4.668
    1PA     H9R 7770   1.811   1.510   4.707
    1PA     H9S 7771   1.687   1.412   4.628
    1PA     C18 7772   1.702   1.615   4.555
    1PA     H8R 7773   1.598   1.632   4.528
    1PA     H8S 7774   1.745   1.709   4.590
    1PA     C17 7775   1.781   1.564   4.434
    1PA     H7R 7776   1.862   1.635   4.413
    1PA     H7S 7777   1.828   1.468   4.458
    1PA     C16 7778   1.697   1.546   4.308
    1PA     H6R 7779   1.599   1.505   4.332
    1PA     H6S 7780   1.681   1.644   4.262
    1PA     C15 7781   1.768   1.451   4.210
    1PA     H5R 7782   1.876   1.460   4.224
    1PA     H5S 7783   1.740   1.349   4.234
    1PA     C14 7784   1.735   1.483   4.064
    1PA     H4R 7785   1.628   1.470   4.048
    1PA     H4S 7786   1.760   1.587   4.043
    1PA     C13 7787   1.814   1.391   3.968
    1PA     H3R 7788   1.920   1.412   3.981
    1PA     H3S 7789   1.799   1.287   3.997
    1PA     C12 7790   1.773   1.411   3.820
    1PA     H2R 7791   1.780   1.517   3.794
    1PA     H2S 7792   1.842   1.356   3.756
    1PC     C11 7793   1.634   1.361   3.791
    1PC     O12 7794   1.573   1.288   3.866
    1PC     O11 7795   1.586   1.405   3.674
    1PC      C1 7796   1.449   1.374   3.637
    1PC      HR 7797   1.448   1.279   3.582
    1PC      HS 7798   1.390   1.361   3.727
    1PC      C2 7799   1.381   1.485   3.551
    1PC      HX 7800   1.274   1.482   3.575
    1PC      C3 7801   1.393   1.453   3.399
    1PC      HA 7802   1.424   1.349   3.383
    1PC      HB 7803   1.292   1.463   3.358
    1PC     O31 7804   1.478   1.541   3.323
    1PC     P31 7805   1.635   1.524   3.318
    1PC     O32 7806   1.680   1.636   3.214
    1PC     C31 7807   1.646   1.774   3.235
    1PC     H1A 7808   1.653   1.799   3.341
    1PC     H1B 7809   1.719   1.835   3.180
    1PC     C32 7810   1.504   1.800   3.180
    1PC     H2A 7811   1.431   1.755   3.247
    1PC     H2B 7812   1.485   1.908   3.178
    1PC     N31 7813   1.471   1.748   3.042
    1PC     C33 7814   1.442   1.602   3.042
    1PC     H3A 7815   1.368   1.584   3.120
    1PC     H3B 7816   1.406   1.572   2.944
    1PC     H3C 7817   1.535   1.550   3.066
    1PC     C34 7818   1.347   1.815   2.993
    1PC     H4A 7819   1.364   1.922   2.987
    1PC     H4B 7820   1.320   1.773   2.895
    1PC     H4C 7821   1.267   1.796   3.064
    1PC     C35 7822   1.582   1.771   2.946
    1PC     H5A 7823   1.601   1.878   2.940
    1PC     H5B 7824   1.553   1.730   2.849
    1PC     H5C 7825   1.670   1.718   2.983
    1PC     O33 7826   1.695   1.558   3.446
    1PC     O34 7827   1.662   1.396   3.248
    1PC     O21 7828   1.435   1.613   3.595
    1PC     C21 7829   1.399   1.731   3.542
    1PC     O22 7830   1.325   1.746   3.447
    1OL     C12 7831   1.455   1.845   3.623
    1OL     H2R 7832   1.559   1.823   3.645
    1OL     H2S 7833   1.403   1.846   3.720
    1OL     C13 7834   1.439   1.985   3.558
    1OL     H3R 7835   1.379   2.048   3.625
    1OL     H3S 7836   1.383   1.979   3.465
    1OL     C14 7837   1.572   2.057   3.531
    1OL     H4R 7838   1.550   2.154   3.485
    1OL     H4S 7839   1.629   1.999   3.458
    1OL     C15 7840   1.659   2.080   3.657
    1OL     H5R 7841   1.752   2.128   3.626
    1OL     H5S 7842   1.686   1.984   3.700
    1OL     C16 7843   1.591   2.168   3.764
    1OL     H6R 7844   1.490   2.133   3.785
    1OL     H6S 7845   1.582   2.269   3.724
    1OL     C17 7846   1.670   2.173   3.896
    1OL     H7R 7847   1.674   2.277   3.930
    1OL     H7S 7848   1.773   2.141   3.880
    1OL     C18 7849   1.607   2.090   4.010
    1OL     H8R 7850   1.503   2.120   4.023
    1OL     H8S 7851   1.661   2.113   4.102
    1OL     C19 7852   1.614   1.940   3.985
    1OL     H9R 7853   1.668   1.908   3.897
    1OL    C110 7854   1.558   1.849   4.064
    1OL    H10R 7855   1.567   1.744   4.039
    1OL    C111 7856   1.478   1.879   4.190
    1OL    H11R 7857   1.428   1.788   4.223
    1OL    H11S 7858   1.400   1.953   4.170
    1OL    C112 7859   1.568   1.925   4.305
    1OL    H12R 7860   1.596   2.029   4.290
    1OL    H12S 7861   1.660   1.866   4.306
    1OL    C113 7862   1.499   1.911   4.442
    1OL    H13R 7863   1.478   1.806   4.461
    1OL    H13S 7864   1.404   1.965   4.442
    1OL    C114 7865   1.591   1.967   4.551
    1OL    H14R 7866   1.588   2.076   4.549
    1OL    H14S 7867   1.694   1.938   4.529
    1OL    C115 7868   1.558   1.917   4.692
    1OL    H15R 7869   1.634   1.960   4.759
    1OL    H15S 7870   1.571   1.809   4.697
    1OL    C116 7871   1.416   1.951   4.741
    1OL    H16R 7872   1.344   1.889   4.689
    1OL    H16S 7873   1.393   2.055   4.718
    1OL    C117 7874   1.402   1.929   4.893
    1OL    H17R 7875   1.424   1.825   4.918
    1OL    H17S 7876   1.299   1.948   4.922
    1OL    C118 7877   1.495   2.022   4.972
    1OL    H18R 7878   1.482   2.125   4.937
    1OL    H18S 7879   1.601   1.998   4.958
    1OL    H18T 7880   1.473   2.017   5.079
    1PA    C116 7881   2.442   0.718   5.108
    1PA    H16R 7882   2.451   0.705   5.216
    1PA    H16S 7883   2.341   0.690   5.079
    1PA    H16T 7884   2.457   0.824   5.086
    1PA    C115 7885   2.546   0.632   5.034
    1PA    H15R 7886   2.646   0.658   5.069
    1PA    H15S 7887   2.528   0.527   5.059
    1PA    C114 7888   2.538   0.649   4.881
    1PA    H14R 7889   2.601   0.574   4.834
    1PA    H14S 7890   2.436   0.631   4.848
    1PA    C113 7891   2.584   0.789   4.835
    1PA    H13R 7892   2.522   0.865   4.881
    1PA    H13S 7893   2.687   0.806   4.869
    1PA    C112 7894   2.577   0.804   4.682
    1PA    H12R 7895   2.638   0.727   4.635
    1PA    H12S 7896   2.474   0.790   4.649
    1PA    C111 7897   2.627   0.943   4.639
    1PA    H11R 7898   2.571   1.019   4.694
    1PA    H11S 7899   2.732   0.954   4.666
    1PA    C110 7900   2.609   0.969   4.489
    1PA    H10R 7901   2.503   0.957   4.463
    1PA    H10S 7902   2.635   1.074   4.471
    1PA     C19 7903   2.694   0.881   4.396
    1PA     H9R 7904   2.800   0.895   4.420
    1PA     H9S 7905   2.671   0.775   4.413
    1PA     C18 7906   2.668   0.915   4.249
    1PA     H8R 7907   2.561   0.902   4.228
    1PA     H8S 7908   2.692   1.020   4.231
    1PA     C17 7909   2.747   0.830   4.148
    1PA     H7R 7910   2.732   0.725   4.173
    1PA     H7S 7911   2.704   0.846   4.049
    1PA     C16 7912   2.897   0.864   4.142
    1PA     H6R 7913   2.909   0.971   4.129
    1PA     H6S 7914   2.946   0.838   4.236
    1PA     C15 7915   2.969   0.793   4.024
    1PA     H5R 7916   2.919   0.821   3.931
    1PA     H5S 7917   3.072   0.829   4.018
    1PA     C14 7918   2.970   0.639   4.038
    1PA     H4R 7919   3.048   0.611   4.109
    1PA     H4S 7920   2.875   0.606   4.079
    1PA     C13 7921   2.994   0.566   3.904
    1PA     H3R 7922   2.925   0.605   3.829
    1PA     H3S 7923   3.095   0.588   3.870
    1PA     C12 7924   2.976   0.413   3.915
    1PA     H2R 7925   3.027   0.367   3.830
    1PA     H2S 7926   3.022   0.374   4.006
    1PC     C11 7927   2.831   0.372   3.910
    1PC     O12 7928   2.745   0.421   3.980
    1PC     O11 7929   2.809   0.275   3.820
    1PC      C1 7930   2.670   0.246   3.788
    1PC      HR 7931   2.667   0.144   3.749
    1PC      HS 7932   2.607   0.250   3.877
    1PC      C2 7933   2.617   0.343   3.679
    1PC      HX 7934   2.513   0.319   3.656
    1PC      C3 7935   2.702   0.331   3.552
    1PC      HA 7936   2.799   0.378   3.571
    1PC      HB 7937   2.718   0.226   3.528
    1PC     O31 7938   2.636   0.395   3.440
    1PC     P31 7939   2.722   0.446   3.315
    1PC     O32 7940   2.660   0.590   3.277
    1PC     C31 7941   2.550   0.594   3.184
    1PC     H1A 7942   2.582   0.550   3.089
    1PC     H1B 7943   2.468   0.534   3.224
    1PC     C32 7944   2.498   0.738   3.159
    1PC     H2A 7945   2.413   0.731   3.091
    1PC     H2B 7946   2.463   0.780   3.253
    1PC     N31 7947   2.592   0.838   3.097
    1PC     C33 7948   2.689   0.887   3.198
    1PC     H3A 7949   2.756   0.960   3.151
    1PC     H3B 7950   2.634   0.932   3.282
    1PC     H3C 7951   2.748   0.802   3.234
    1PC     C34 7952   2.666   0.779   2.982
    1PC     H4A 7953   2.735   0.704   3.020
    1PC     H4B 7954   2.596   0.736   2.911
    1PC     H4C 7955   2.725   0.858   2.934
    1PC     C35 7956   2.512   0.952   3.045
    1PC     H5A 7957   2.453   0.995   3.127
    1PC     H5B 7958   2.445   0.915   2.967
    1PC     H5C 7959   2.579   1.027   3.003
    1PC     O33 7960   2.863   0.457   3.353
    1PC     O34 7961   2.688   0.355   3.204
    1PC     O21 7962   2.632   0.480   3.725
    1PC     C21 7963   2.523   0.554   3.751
    1PC     O22 7964   2.410   0.519   3.724
    1OL     C12 7965   2.562   0.683   3.819
    1OL     H2R 7966   2.625   0.741   3.750
    1OL     H2S 7967   2.625   0.659   3.904
    1OL     C13 7968   2.443   0.771   3.865
    1OL     H3R 7969   2.390   0.808   3.777
    1OL     H3S 7970   2.484   0.859   3.916
    1OL     C14 7971   2.342   0.704   3.960
    1OL     H4R 7972   2.280   0.633   3.904
    1OL     H4S 7973   2.274   0.780   3.999
    1OL     C15 7974   2.408   0.630   4.077
    1OL     H5R 7975   2.471   0.700   4.131
    1OL     H5S 7976   2.473   0.550   4.038
    1OL     C16 7977   2.305   0.566   4.172
    1OL     H6R 7978   2.233   0.509   4.114
    1OL     H6S 7979   2.251   0.645   4.225
    1OL     C17 7980   2.372   0.472   4.273
    1OL     H7R 7981   2.424   0.393   4.219
    1OL     H7S 7982   2.296   0.424   4.335
    1OL     C18 7983   2.473   0.545   4.365
    1OL     H8R 7984   2.420   0.610   4.434
    1OL     H8S 7985   2.541   0.607   4.307
    1OL     C19 7986   2.552   0.443   4.442
    1OL     H9R 7987   2.508   0.409   4.535
    1OL    C110 7988   2.668   0.393   4.403
    1OL    H10R 7989   2.718   0.319   4.466
    1OL    C111 7990   2.748   0.423   4.279
    1OL    H11R 7991   2.709   0.508   4.223
    1OL    H11S 7992   2.747   0.336   4.213
    1OL    C112 7993   2.893   0.448   4.322
    1OL    H12R 7994   2.958   0.462   4.236
    1OL    H12S 7995   2.929   0.358   4.373
    1OL    C113 7996   2.902   0.569   4.417
    1OL    H13R 7997   2.809   0.580   4.474
    1OL    H13S 7998   2.914   0.661   4.359
    1OL    C114 7999   3.017   0.555   4.516
    1OL    H14R 8000   3.109   0.582   4.465
    1OL    H14S 8001   3.026   0.451   4.549
    1OL    C115 8002   3.001   0.644   4.640
    1OL    H15R 8003   2.984   0.747   4.609
    1OL    H15S 8004   3.097   0.640   4.691
    1OL    C116 8005   2.894   0.602   4.743
    1OL    H16R 8006   2.797   0.589   4.694
    1OL    H16S 8007   2.883   0.682   4.816
    1OL    C117 8008   2.931   0.472   4.816
    1OL    H17R 8009   3.034   0.479   4.852
    1OL    H17S 8010   2.926   0.390   4.745
    1OL    C118 8011   2.840   0.440   4.936
    1OL    H18R 8012   2.878   0.352   4.989
    1OL    H18S 8013   2.739   0.417   4.902
    1OL    H18T 8014   2.837   0.524   5.006
    1PA    C116 8015   2.115   3.898   5.283
    1PA    H16R 8016   2.207   3.920   5.337
    1PA    H16S 8017   2.031   3.935   5.343
    1PA    H16T 8018   2.118   3.950   5.188
    1PA    C115 8019   2.104   3.746   5.261
    1PA    H15R 8020   2.178   3.717   5.186
    1PA    H15S 8021   2.134   3.700   5.356
    1PA    C114 8022   1.966   3.689   5.225
    1PA    H14R 8023   1.932   3.624   5.306
    1PA    H14S 8024   1.892   3.770   5.218
    1PA    C113 8025   1.965   3.608   5.094
    1PA    H13R 8026   1.862   3.579   5.069
    1PA    H13S 8027   2.000   3.673   5.013
    1PA    C112 8028   2.056   3.484   5.093
    1PA    H12R 8029   2.158   3.520   5.081
    1PA    H12S 8030   2.049   3.431   5.188
    1PA    C111 8031   2.023   3.388   4.978
    1PA    H11R 8032   1.939   3.324   5.009
    1PA    H11S 8033   1.989   3.444   4.891
    1PA    C110 8034   2.142   3.298   4.937
    1PA    H10R 8035   2.172   3.237   5.022
    1PA    H10S 8036   2.108   3.230   4.859
    1PA     C19 8037   2.265   3.375   4.884
    1PA     H9R 8038   2.314   3.428   4.965
    1PA     H9S 8039   2.337   3.302   4.847
    1PA     C18 8040   2.233   3.475   4.771
    1PA     H8R 8041   2.163   3.551   4.806
    1PA     H8S 8042   2.325   3.526   4.743
    1PA     C17 8043   2.175   3.406   4.646
    1PA     H7R 8044   2.247   3.330   4.613
    1PA     H7S 8045   2.082   3.354   4.670
    1PA     C16 8046   2.148   3.504   4.530
    1PA     H6R 8047   2.052   3.555   4.546
    1PA     H6S 8048   2.226   3.581   4.528
    1PA     C15 8049   2.148   3.431   4.396
    1PA     H5R 8050   2.250   3.395   4.379
    1PA     H5S 8051   2.082   3.344   4.399
    1PA     C14 8052   2.110   3.519   4.277
    1PA     H4R 8053   2.002   3.532   4.273
    1PA     H4S 8054   2.156   3.618   4.289
    1PA     C13 8055   2.160   3.457   4.145
    1PA     H3R 8056   2.269   3.443   4.150
    1PA     H3S 8057   2.114   3.359   4.129
    1PA     C12 8058   2.127   3.550   4.029
    1PA     H2R 8059   2.019   3.554   4.016
    1PA     H2S 8060   2.163   3.651   4.051
    1PC     C11 8061   2.188   3.507   3.898
    1PC     O12 8062   2.222   3.394   3.868
    1PC     O11 8063   2.199   3.613   3.816
    1PC      C1 8064   2.235   3.586   3.679
    1PC      HR 8065   2.264   3.680   3.632
    1PC      HS 8066   2.319   3.517   3.674
    1PC      C2 8067   2.113   3.527   3.603
    1PC      HX 8068   2.083   3.432   3.647
    1PC      C3 8069   2.156   3.500   3.459
    1PC      HA 8070   2.214   3.586   3.424
    1PC      HB 8071   2.222   3.413   3.458
    1PC     O31 8072   2.046   3.477   3.369
    1PC     P31 8073   2.075   3.474   3.211
    1PC     O32 8074   2.064   3.629   3.171
    1PC     C31 8075   2.183   3.710   3.170
    1PC     H1A 8076   2.231   3.707   3.269
    1PC     H1B 8077   2.253   3.669   3.097
    1PC     C32 8078   2.149   3.855   3.134
    1PC     H2A 8079   2.241   3.914   3.138
    1PC     H2B 8080   2.112   3.860   3.032
    1PC     N31 8081   2.049   3.930   3.218
    1PC     C33 8082   1.911   3.888   3.182
    1PC     H3A 8083   1.895   3.907   3.075
    1PC     H3B 8084   1.901   3.781   3.202
    1PC     H3C 8085   1.839   3.945   3.241
    1PC     C34 8086   2.068   3.908   3.365
    1PC     H4A 8087   1.993   3.968   3.417
    1PC     H4B 8088   2.052   3.802   3.386
    1PC     H4C 8089   2.169   3.940   3.393
    1PC     C35 8090   2.069   4.076   3.188
    1PC     H5A 8091   2.031   4.097   3.088
    1PC     H5B 8092   2.175   4.100   3.193
    1PC     H5C 8093   2.013   4.136   3.261
    1PC     O33 8094   2.216   3.434   3.200
    1PC     O34 8095   1.972   3.394   3.142
    1PC     O21 8096   2.004   3.624   3.605
    1PC     C21 8097   1.902   3.600   3.690
    1PC     O22 8098   1.899   3.506   3.767
    1OL     C12 8099   1.797   3.709   3.685
    1OL     H2R 8100   1.734   3.690   3.598
    1OL     H2S 8101   1.847   3.805   3.669
    1OL     C13 8102   1.710   3.716   3.812
    1OL     H3R 8103   1.657   3.622   3.825
    1OL     H3S 8104   1.635   3.794   3.799
    1OL     C14 8105   1.792   3.746   3.940
    1OL     H4R 8106   1.853   3.835   3.925
    1OL     H4S 8107   1.860   3.663   3.959
    1OL     C15 8108   1.704   3.764   4.064
    1OL     H5R 8109   1.640   3.676   4.075
    1OL     H5S 8110   1.639   3.851   4.049
    1OL     C16 8111   1.787   3.783   4.192
    1OL     H6R 8112   1.860   3.863   4.179
    1OL     H6S 8113   1.844   3.693   4.212
    1OL     C17 8114   1.697   3.818   4.312
    1OL     H7R 8115   1.617   3.886   4.281
    1OL     H7S 8116   1.757   3.871   4.387
    1OL     C18 8117   1.635   3.693   4.377
    1OL     H8R 8118   1.581   3.636   4.301
    1OL     H8S 8119   1.561   3.724   4.450
    1OL     C19 8120   1.742   3.607   4.441
    1OL     H9R 8121   1.789   3.534   4.375
    1OL    C110 8122   1.779   3.613   4.568
    1OL    H10R 8123   1.855   3.545   4.605
    1OL    C111 8124   1.722   3.707   4.672
    1OL    H11R 8125   1.715   3.655   4.768
    1OL    H11S 8126   1.620   3.738   4.646
    1OL    C112 8127   1.810   3.833   4.688
    1OL    H12R 8128   1.756   3.904   4.751
    1OL    H12S 8129   1.826   3.881   4.591
    1OL    C113 8130   1.946   3.798   4.751
    1OL    H13R 8131   2.004   3.737   4.681
    1OL    H13S 8132   1.927   3.735   4.838
    1OL    C114 8133   2.032   3.919   4.793
    1OL    H14R 8134   2.070   3.969   4.703
    1OL    H14S 8135   2.119   3.880   4.846
    1OL    C115 8136   1.963   4.024   4.883
    1OL    H15R 8137   1.895   4.086   4.824
    1OL    H15S 8138   2.040   4.089   4.923
    1OL    C116 8139   1.885   3.961   5.001
    1OL    H16R 8140   1.941   3.873   5.033
    1OL    H16S 8141   1.787   3.926   4.967
    1OL    C117 8142   1.868   4.051   5.125
    1OL    H17R 8143   1.964   4.097   5.149
    1OL    H17S 8144   1.839   3.989   5.209
    1OL    C118 8145   1.762   4.161   5.109
    1OL    H18R 8146   1.663   4.117   5.097
    1OL    H18S 8147   1.785   4.224   5.023
    1OL    H18T 8148   1.762   4.224   5.199
    1PA    C116 8149   4.703   2.298   5.081
    1PA    H16R 8150   4.600   2.335   5.072
    1PA    H16S 8151   4.767   2.355   5.014
    1PA    H16T 8152   4.736   2.316   5.184
    1PA    C115 8153   4.707   2.149   5.048
    1PA    H15R 8154   4.809   2.112   5.064
    1PA    H15S 8155   4.642   2.095   5.117
    1PA    C114 8156   4.669   2.119   4.903
    1PA    H14R 8157   4.562   2.139   4.889
    1PA    H14S 8158   4.724   2.186   4.837
    1PA    C113 8159   4.701   1.973   4.866
    1PA    H13R 8160   4.809   1.961   4.861
    1PA    H13S 8161   4.665   1.906   4.944
    1PA    C112 8162   4.639   1.930   4.731
    1PA    H12R 8163   4.677   1.831   4.706
    1PA    H12S 8164   4.531   1.922   4.743
    1PA    C111 8165   4.671   2.029   4.617
    1PA    H11R 8166   4.625   2.125   4.638
    1PA    H11S 8167   4.779   2.044   4.612
    1PA    C110 8168   4.622   1.978   4.481
    1PA    H10R 8169   4.670   1.883   4.459
    1PA    H10S 8170   4.514   1.960   4.485
    1PA     C19 8171   4.654   2.079   4.369
    1PA     H9R 8172   4.593   2.168   4.382
    1PA     H9S 8173   4.759   2.109   4.377
    1PA     C18 8174   4.630   2.018   4.230
    1PA     H8R 8175   4.684   1.923   4.223
    1PA     H8S 8176   4.524   1.997   4.216
    1PA     C17 8177   4.680   2.111   4.117
    1PA     H7R 8178   4.623   2.204   4.118
    1PA     H7S 8179   4.785   2.136   4.135
    1PA     C16 8180   4.667   2.043   3.980
    1PA     H6R 8181   4.722   1.948   3.983
    1PA     H6S 8182   4.562   2.019   3.962
    1PA     C15 8183   4.720   2.130   3.865
    1PA     H5R 8184   4.672   2.228   3.868
    1PA     H5S 8185   4.827   2.146   3.878
    1PA     C14 8186   4.695   2.066   3.727
    1PA     H4R 8187   4.588   2.049   3.714
    1PA     H4S 8188   4.725   2.137   3.649
    1PA     C13 8189   4.770   1.933   3.707
    1PA     H3R 8190   4.877   1.951   3.722
    1PA     H3S 8191   4.739   1.861   3.783
    1PA     C12 8192   4.749   1.872   3.567
    1PA     H2R 8193   4.774   1.947   3.491
    1PA     H2S 8194   4.817   1.788   3.554
    1PC     C11 8195   4.608   1.823   3.545
    1PC     O12 8196   4.538   1.772   3.629
    1PC     O11 8197   4.572   1.835   3.415
    1PC      C1 8198   4.430   1.834   3.385
    1PC      HR 8199   4.419   1.797   3.282
    1PC      HS 8200   4.375   1.767   3.452
    1PC      C2 8201   4.370   1.976   3.391
    1PC      HX 8202   4.267   1.969   3.353
    1PC      C3 8203   4.452   2.072   3.301
    1PC      HA 8204   4.514   2.014   3.231
    1PC      HB 8205   4.384   2.132   3.240
    1PC     O31 8206   4.539   2.158   3.378
    1PC     P31 8207   4.527   2.318   3.375
    1PC     O32 8208   4.647   2.357   3.278
    1PC     C31 8209   4.783   2.343   3.324
    1PC     H1A 8210   4.845   2.416   3.271
    1PC     H1B 8211   4.789   2.363   3.431
    1PC     C32 8212   4.830   2.199   3.293
    1PC     H2A 8213   4.925   2.180   3.343
    1PC     H2B 8214   4.756   2.129   3.334
    1PC     N31 8215   4.848   2.161   3.148
    1PC     C33 8216   4.727   2.191   3.066
    1PC     H3A 8217   4.742   2.156   2.964
    1PC     H3B 8218   4.641   2.142   3.111
    1PC     H3C 8219   4.711   2.299   3.067
    1PC     C34 8220   4.964   2.234   3.090
    1PC     H4A 8221   4.947   2.341   3.103
    1PC     H4B 8222   5.055   2.204   3.142
    1PC     H4C 8223   4.971   2.212   2.984
    1PC     C35 8224   4.872   2.014   3.139
    1PC     H5A 8225   4.885   1.987   3.034
    1PC     H5B 8226   4.784   1.963   3.178
    1PC     H5C 8227   4.960   1.989   3.198
    1PC     O33 8228   4.399   2.353   3.309
    1PC     O34 8229   4.560   2.368   3.508
    1PC     O21 8230   4.368   2.020   3.530
    1PC     C21 8231   4.267   2.098   3.574
    1PC     O22 8232   4.171   2.127   3.506
    1OL     C12 8233   4.282   2.137   3.719
    1OL     H2R 8234   4.325   2.054   3.775
    1OL     H2S 8235   4.184   2.158   3.761
    1OL     C13 8236   4.373   2.261   3.734
    1OL     H3R 8237   4.329   2.345   3.681
    1OL     H3S 8238   4.469   2.238   3.686
    1OL     C14 8239   4.405   2.303   3.879
    1OL     H4R 8240   4.477   2.386   3.876
    1OL     H4S 8241   4.453   2.220   3.931
    1OL     C15 8242   4.282   2.347   3.960
    1OL     H5R 8243   4.223   2.258   3.983
    1OL     H5S 8244   4.220   2.413   3.898
    1OL     C16 8245   4.317   2.420   4.091
    1OL     H6R 8246   4.226   2.465   4.131
    1OL     H6S 8247   4.384   2.503   4.069
    1OL     C17 8248   4.381   2.329   4.198
    1OL     H7R 8249   4.480   2.367   4.223
    1OL     H7S 8250   4.395   2.229   4.157
    1OL     C18 8251   4.298   2.317   4.327
    1OL     H8R 8252   4.341   2.238   4.389
    1OL     H8S 8253   4.197   2.284   4.300
    1OL     C19 8254   4.288   2.448   4.402
    1OL     H9R 8255   4.253   2.533   4.343
    1OL    C110 8256   4.317   2.467   4.530
    1OL    H10R 8257   4.301   2.565   4.574
    1OL    C111 8258   4.364   2.362   4.627
    1OL    H11R 8259   4.435   2.405   4.698
    1OL    H11S 8260   4.417   2.281   4.576
    1OL    C112 8261   4.243   2.306   4.703
    1OL    H12R 8262   4.166   2.276   4.631
    1OL    H12S 8263   4.200   2.384   4.766
    1OL    C113 8264   4.281   2.185   4.790
    1OL    H13R 8265   4.354   2.217   4.864
    1OL    H13S 8266   4.328   2.110   4.727
    1OL    C114 8267   4.158   2.124   4.859
    1OL    H14R 8268   4.080   2.107   4.784
    1OL    H14S 8269   4.117   2.195   4.932
    1OL    C115 8270   4.190   1.991   4.927
    1OL    H15R 8271   4.227   1.921   4.852
    1OL    H15S 8272   4.097   1.948   4.968
    1OL    C116 8273   4.294   2.003   5.040
    1OL    H16R 8274   4.253   2.063   5.122
    1OL    H16S 8275   4.384   2.053   5.004
    1OL    C117 8276   4.333   1.864   5.093
    1OL    H17R 8277   4.373   1.806   5.010
    1OL    H17S 8278   4.244   1.813   5.130
    1OL    C118 8279   4.439   1.869   5.204
    1OL    H18R 8280   4.461   1.769   5.239
    1OL    H18S 8281   4.403   1.929   5.289
    1OL    H18T 8282   4.531   1.914   5.166
    1PA    C116 8283   3.206   0.186   5.247
    1PA    H16R 8284   3.188   0.153   5.145
    1PA    H16S 8285   3.110   0.189   5.299
    1PA    H16T 8286   3.271   0.114   5.297
    1PA    C115 8287   3.273   0.324   5.243
    1PA    H15R 8288   3.202   0.397   5.203
    1PA    H15S 8289   3.302   0.356   5.343
    1PA    C114 8290   3.395   0.319   5.152
    1PA    H14R 8291   3.471   0.255   5.196
    1PA    H14S 8292   3.364   0.272   5.058
    1PA    C113 8293   3.451   0.459   5.125
    1PA    H13R 8294   3.370   0.527   5.099
    1PA    H13S 8295   3.496   0.496   5.218
    1PA    C112 8296   3.557   0.459   5.014
    1PA    H12R 8297   3.613   0.552   5.016
    1PA    H12S 8298   3.627   0.377   5.029
    1PA    C111 8299   3.486   0.446   4.878
    1PA    H11R 8300   3.414   0.364   4.883
    1PA    H11S 8301   3.430   0.537   4.858
    1PA    C110 8302   3.581   0.417   4.761
    1PA    H10R 8303   3.658   0.494   4.758
    1PA    H10S 8304   3.632   0.322   4.778
    1PA     C19 8305   3.505   0.416   4.628
    1PA     H9R 8306   3.476   0.519   4.607
    1PA     H9S 8307   3.575   0.385   4.549
    1PA     C18 8308   3.375   0.332   4.620
    1PA     H8R 8309   3.397   0.225   4.627
    1PA     H8S 8310   3.309   0.357   4.703
    1PA     C17 8311   3.297   0.362   4.491
    1PA     H7R 8312   3.197   0.320   4.498
    1PA     H7S 8313   3.288   0.470   4.481
    1PA     C16 8314   3.365   0.306   4.365
    1PA     H6R 8315   3.473   0.313   4.378
    1PA     H6S 8316   3.341   0.200   4.356
    1PA     C15 8317   3.328   0.379   4.234
    1PA     H5R 8318   3.221   0.372   4.214
    1PA     H5S 8319   3.355   0.485   4.242
    1PA     C14 8320   3.410   0.313   4.122
    1PA     H4R 8321   3.506   0.287   4.168
    1PA     H4S 8322   3.363   0.219   4.095
    1PA     C13 8323   3.446   0.394   3.996
    1PA     H3R 8324   3.504   0.482   4.024
    1PA     H3S 8325   3.512   0.331   3.936
    1PA     C12 8326   3.326   0.437   3.912
    1PA     H2R 8327   3.241   0.372   3.934
    1PA     H2S 8328   3.297   0.539   3.938
    1PC     C11 8329   3.354   0.431   3.763
    1PC     O12 8330   3.456   0.474   3.711
    1PC     O11 8331   3.253   0.372   3.696
    1PC      C1 8332   3.239   0.400   3.553
    1PC      HR 8333   3.337   0.415   3.507
    1PC      HS 8334   3.192   0.313   3.505
    1PC      C2 8335   3.148   0.523   3.533
    1PC      HX 8336   3.047   0.499   3.568
    1PC      C3 8337   3.144   0.569   3.386
    1PC      HA 8338   3.125   0.484   3.319
    1PC      HB 8339   3.060   0.638   3.375
    1PC     O31 8340   3.266   0.638   3.346
    1PC     P31 8341   3.268   0.727   3.213
    1PC     O32 8342   3.387   0.667   3.126
    1PC     C31 8343   3.432   0.532   3.142
    1PC     H1A 8344   3.349   0.465   3.164
    1PC     H1B 8345   3.478   0.501   3.047
    1PC     C32 8346   3.538   0.528   3.255
    1PC     H2A 8347   3.489   0.543   3.351
    1PC     H2B 8348   3.582   0.428   3.253
    1PC     N31 8349   3.652   0.627   3.249
    1PC     C33 8350   3.712   0.628   3.112
    1PC     H3A 8351   3.748   0.528   3.088
    1PC     H3B 8352   3.635   0.659   3.042
    1PC     H3C 8353   3.795   0.700   3.111
    1PC     C34 8354   3.608   0.764   3.286
    1PC     H4A 8355   3.554   0.759   3.382
    1PC     H4B 8356   3.695   0.830   3.292
    1PC     H4C 8357   3.539   0.801   3.210
    1PC     C35 8358   3.760   0.591   3.346
    1PC     H5A 8359   3.833   0.672   3.348
    1PC     H5B 8360   3.807   0.498   3.313
    1PC     H5C 8361   3.714   0.578   3.444
    1PC     O33 8362   3.144   0.700   3.136
    1PC     O34 8363   3.306   0.865   3.247
    1PC     O21 8364   3.204   0.629   3.614
    1PC     C21 8365   3.131   0.738   3.643
    1PC     O22 8366   3.015   0.753   3.613
    1OL     C12 8367   3.209   0.838   3.725
    1OL     H2R 8368   3.189   0.818   3.831
    1OL     H2S 8369   3.172   0.938   3.702
    1OL     C13 8370   3.362   0.831   3.701
    1OL     H3R 8371   3.381   0.835   3.593
    1OL     H3S 8372   3.401   0.735   3.736
    1OL     C14 8373   3.439   0.945   3.770
    1OL     H4R 8374   3.400   1.040   3.732
    1OL     H4S 8375   3.543   0.940   3.739
    1OL     C15 8376   3.430   0.945   3.924
    1OL     H5R 8377   3.325   0.951   3.954
    1OL     H5S 8378   3.477   1.036   3.959
    1OL     C16 8379   3.495   0.824   3.996
    1OL     H6R 8380   3.437   0.733   3.976
    1OL     H6S 8381   3.488   0.843   4.103
    1OL     C17 8382   3.642   0.800   3.957
    1OL     H7R 8383   3.680   0.891   3.908
    1OL     H7S 8384   3.649   0.721   3.882
    1OL     C18 8385   3.738   0.771   4.075
    1OL     H8R 8386   3.717   0.840   4.157
    1OL     H8S 8387   3.839   0.792   4.041
    1OL     C19 8388   3.733   0.626   4.120
    1OL     H9R 8389   3.749   0.553   4.041
    1OL    C110 8390   3.712   0.583   4.244
    1OL    H10R 8391   3.713   0.476   4.264
    1OL    C111 8392   3.689   0.669   4.367
    1OL    H11R 8393   3.737   0.767   4.356
    1OL    H11S 8394   3.735   0.621   4.454
    1OL    C112 8395   3.538   0.687   4.391
    1OL    H12R 8396   3.491   0.589   4.399
    1OL    H12S 8397   3.496   0.736   4.304
    1OL    C113 8398   3.506   0.771   4.516
    1OL    H13R 8399   3.571   0.859   4.514
    1OL    H13S 8400   3.531   0.717   4.608
    1OL    C114 8401   3.358   0.816   4.519
    1OL    H14R 8402   3.294   0.730   4.539
    1OL    H14S 8403   3.331   0.852   4.419
    1OL    C115 8404   3.325   0.930   4.619
    1OL    H15R 8405   3.220   0.958   4.605
    1OL    H15S 8406   3.383   1.018   4.592
    1OL    C116 8407   3.348   0.900   4.768
    1OL    H16R 8408   3.331   0.991   4.825
    1OL    H16S 8409   3.451   0.869   4.786
    1OL    C117 8410   3.251   0.792   4.817
    1OL    H17R 8411   3.277   0.697   4.769
    1OL    H17S 8412   3.150   0.820   4.787
    1OL    C118 8413   3.249   0.769   4.969
    1OL    H18R 8414   3.347   0.733   5.002
    1OL    H18S 8415   3.175   0.693   4.994
    1OL    H18T 8416   3.224   0.861   5.021
    1PA    C116 8417   4.853   3.695   5.162
    1PA    H16R 8418   4.816   3.610   5.103
    1PA    H16S 8419   4.836   3.673   5.268
    1PA    H16T 8420   4.960   3.706   5.143
    1PA    C115 8421   4.782   3.824   5.125
    1PA    H15R 8422   4.675   3.811   5.136
    1PA    H15S 8423   4.813   3.903   5.193
    1PA    C114 8424   4.814   3.865   4.981
    1PA    H14R 8425   4.830   3.775   4.921
    1PA    H14S 8426   4.725   3.916   4.943
    1PA    C113 8427   4.937   3.958   4.965
    1PA    H13R 8428   4.920   4.048   5.023
    1PA    H13S 8429   5.025   3.910   5.008
    1PA    C112 8430   4.968   3.996   4.818
    1PA    H12R 8431   5.016   4.094   4.815
    1PA    H12S 8432   5.039   3.924   4.777
    1PA    C111 8433   4.841   3.995   4.732
    1PA    H11R 8434   4.804   3.892   4.727
    1PA    H11S 8435   4.764   4.054   4.781
    1PA    C110 8436   4.850   4.043   4.587
    1PA    H10R 8437   4.875   4.149   4.585
    1PA    H10S 8438   4.927   3.987   4.533
    1PA     C19 8439   4.712   4.018   4.525
    1PA     H9R 8440   4.689   3.912   4.527
    1PA     H9S 8441   4.636   4.069   4.585
    1PA     C18 8442   4.702   4.069   4.381
    1PA     H8R 8443   4.728   4.175   4.380
    1PA     H8S 8444   4.773   4.015   4.319
    1PA     C17 8445   4.560   4.055   4.325
    1PA     H7R 8446   4.527   3.951   4.333
    1PA     H7S 8447   4.492   4.117   4.384
    1PA     C16 8448   4.559   4.099   4.179
    1PA     H6R 8449   4.600   4.200   4.171
    1PA     H6S 8450   4.624   4.032   4.122
    1PA     C15 8451   4.417   4.098   4.120
    1PA     H5R 8452   4.370   4.000   4.135
    1PA     H5S 8453   4.356   4.172   4.173
    1PA     C14 8454   4.417   4.132   3.971
    1PA     H4R 8455   4.314   4.148   3.938
    1PA     H4S 8456   4.471   4.227   3.958
    1PA     C13 8457   4.481   4.023   3.883
    1PA     H3R 8458   4.582   3.999   3.918
    1PA     H3S 8459   4.422   3.932   3.892
    1PA     C12 8460   4.489   4.063   3.734
    1PA     H2R 8461   4.511   3.974   3.675
    1PA     H2S 8462   4.392   4.102   3.700
    1PC     C11 8463   4.597   4.164   3.706
    1PC     O12 8464   4.668   4.216   3.790
    1PC     O11 8465   4.608   4.190   3.574
    1PC      C1 8466   4.738   4.238   3.528
    1PC      HR 8467   4.724   4.288   3.431
    1PC      HS 8468   4.780   4.310   3.598
    1PC      C2 8469   4.833   4.117   3.508
    1PC      HX 8470   4.933   4.153   3.484
    1PC      C3 8471   4.786   4.030   3.392
    1PC      HA 8472   4.689   3.985   3.416
    1PC      HB 8473   4.776   4.092   3.302
    1PC     O31 8474   4.882   3.925   3.366
    1PC     P31 8475   4.874   3.847   3.228
    1PC     O32 8476   4.720   3.807   3.231
    1PC     C31 8477   4.647   3.788   3.110
    1PC     H1A 8478   4.587   3.878   3.093
    1PC     H1B 8479   4.715   3.773   3.026
    1PC     C32 8480   4.558   3.665   3.133
    1PC     H2A 8481   4.490   3.685   3.216
    1PC     H2B 8482   4.499   3.648   3.043
    1PC     N31 8483   4.626   3.534   3.166
    1PC     C33 8484   4.679   3.529   3.306
    1PC     H3A 8485   4.763   3.598   3.312
    1PC     H3B 8486   4.601   3.560   3.375
    1PC     H3C 8487   4.713   3.427   3.327
    1PC     C34 8488   4.526   3.425   3.152
    1PC     H4A 8489   4.576   3.329   3.164
    1PC     H4B 8490   4.448   3.440   3.227
    1PC     H4C 8491   4.484   3.432   3.051
    1PC     C35 8492   4.739   3.506   3.072
    1PC     H5A 8493   4.703   3.515   2.969
    1PC     H5B 8494   4.778   3.406   3.090
    1PC     H5C 8495   4.818   3.580   3.092
    1PC     O33 8496   4.897   3.943   3.118
    1PC     O34 8497   4.949   3.720   3.233
    1PC     O21 8498   4.832   4.037   3.629
    1PC     C21 8499   4.947   4.012   3.691
    1PC     O22 8500   5.056   4.032   3.641
    1OL     C12 8501   4.925   3.965   3.832
    1OL     H2R 8502   4.923   3.855   3.831
    1OL     H2S 8503   4.829   4.000   3.867
    1OL     C13 8504   5.036   4.017   3.925
    1OL     H3R 8505   5.039   4.126   3.920
    1OL     H3S 8506   5.133   3.981   3.890
    1OL     C14 8507   5.019   3.975   4.071
    1OL     H4R 8508   4.936   4.029   4.117
    1OL     H4S 8509   5.110   4.004   4.124
    1OL     C15 8510   4.995   3.824   4.089
    1OL     H5R 8511   5.042   3.769   4.007
    1OL     H5S 8512   4.888   3.804   4.083
    1OL     C16 8513   5.049   3.769   4.222
    1OL     H6R 8514   5.005   3.671   4.239
    1OL     H6S 8515   5.018   3.835   4.303
    1OL     C17 8516   5.203   3.754   4.220
    1OL     H7R 8517   5.250   3.853   4.213
    1OL     H7S 8518   5.232   3.698   4.131
    1OL     C18 8519   5.258   3.681   4.344
    1OL     H8R 8520   5.365   3.663   4.329
    1OL     H8S 8521   5.210   3.583   4.351
    1OL     C19 8522   5.238   3.761   4.471
    1OL     H9R 8523   5.313   3.838   4.489
    1OL    C110 8524   5.139   3.746   4.557
    1OL    H10R 8525   5.135   3.811   4.645
    1OL    C111 8526   5.026   3.646   4.546
    1OL    H11R 8527   5.063   3.549   4.512
    1OL    H11S 8528   4.953   3.682   4.474
    1OL    C112 8529   4.954   3.628   4.681
    1OL    H12R 8530   4.924   3.727   4.719
    1OL    H12S 8531   5.022   3.584   4.754
    1OL    C113 8532   4.829   3.540   4.666
    1OL    H13R 8533   4.866   3.438   4.651
    1OL    H13S 8534   4.773   3.569   4.577
    1OL    C114 8535   4.733   3.538   4.785
    1OL    H14R 8536   4.792   3.545   4.877
    1OL    H14S 8537   4.682   3.441   4.788
    1OL    C115 8538   4.625   3.648   4.781
    1OL    H15R 8539   4.557   3.631   4.698
    1OL    H15S 8540   4.672   3.745   4.766
    1OL    C116 8541   4.548   3.649   4.913
    1OL    H16R 8542   4.620   3.641   4.995
    1OL    H16S 8543   4.486   3.559   4.917
    1OL    C117 8544   4.459   3.771   4.941
    1OL    H17R 8545   4.506   3.862   4.903
    1OL    H17S 8546   4.451   3.783   5.050
    1OL    C118 8547   4.317   3.756   4.884
    1OL    H18R 8548   4.319   3.762   4.775
    1OL    H18S 8549   4.253   3.835   4.923
    1OL    H18T 8550   4.274   3.660   4.913
    1PA    C116 8551   3.691   4.361   4.918
    1PA    H16R 8552   3.673   4.254   4.909
    1PA    H16S 8553   3.690   4.388   5.023
    1PA    H16T 8554   3.790   4.384   4.877
    1PA    C115 8555   3.582   4.440   4.843
    1PA    H15R 8556   3.486   4.423   4.893
    1PA    H15S 8557   3.601   4.547   4.852
    1PA    C114 8558   3.566   4.399   4.695
    1PA    H14R 8559   3.545   4.292   4.689
    1PA    H14S 8560   3.479   4.450   4.654
    1PA    C113 8561   3.690   4.431   4.609
    1PA    H13R 8562   3.772   4.365   4.638
    1PA    H13S 8563   3.667   4.410   4.505
    1PA    C112 8564   3.738   4.578   4.621
    1PA    H12R 8565   3.771   4.597   4.724
    1PA    H12S 8566   3.825   4.591   4.557
    1PA    C111 8567   3.630   4.680   4.581
    1PA    H11R 8568   3.611   4.669   4.474
    1PA    H11S 8569   3.537   4.659   4.633
    1PA    C110 8570   3.671   4.825   4.613
    1PA    H10R 8571   3.651   4.847   4.718
    1PA    H10S 8572   3.778   4.838   4.597
    1PA     C19 8573   3.597   4.926   4.523
    1PA     H9R 8574   3.635   5.027   4.542
    1PA     H9S 8575   3.621   4.901   4.419
    1PA     C18 8576   3.445   4.924   4.544
    1PA     H8R 8577   3.408   4.821   4.553
    1PA     H8S 8578   3.421   4.974   4.639
    1PA     C17 8579   3.367   4.991   4.430
    1PA     H7R 8580   3.261   4.991   4.458
    1PA     H7S 8581   3.398   5.095   4.421
    1PA     C16 8582   3.385   4.919   4.295
    1PA     H6R 8583   3.487   4.936   4.259
    1PA     H6S 8584   3.372   4.812   4.308
    1PA     C15 8585   3.284   4.969   4.192
    1PA     H5R 8586   3.185   4.938   4.224
    1PA     H5S 8587   3.286   5.079   4.192
    1PA     C14 8588   3.305   4.921   4.048
    1PA     H4R 8589   3.303   4.812   4.044
    1PA     H4S 8590   3.223   4.958   3.986
    1PA     C13 8591   3.438   4.974   3.990
    1PA     H3R 8592   3.446   5.081   4.009
    1PA     H3S 8593   3.521   4.925   4.042
    1PA     C12 8594   3.452   4.948   3.839
    1PA     H2R 8595   3.425   4.845   3.817
    1PA     H2S 8596   3.384   5.013   3.783
    1PC     C11 8597   3.593   4.972   3.792
    1PC     O12 8598   3.671   5.046   3.848
    1PC     O11 8599   3.621   4.897   3.685
    1PC      C1 8600   3.758   4.896   3.635
    1PC      HR 8601   3.772   4.980   3.567
    1PC      HS 8602   3.828   4.907   3.718
    1PC      C2 8603   3.784   4.761   3.562
    1PC      HX 8604   3.890   4.752   3.537
    1PC      C3 8605   3.703   4.761   3.429
    1PC      HA 8606   3.602   4.796   3.451
    1PC      HB 8607   3.748   4.832   3.359
    1PC     O31 8608   3.695   4.631   3.364
    1PC     P31 8609   3.592   4.604   3.243
    1PC     O32 8610   3.459   4.551   3.317
    1PC     C31 8611   3.365   4.640   3.381
    1PC     H1A 8612   3.300   4.580   3.445
    1PC     H1B 8613   3.418   4.711   3.445
    1PC     C32 8614   3.281   4.716   3.276
    1PC     H2A 8615   3.213   4.785   3.326
    1PC     H2B 8616   3.349   4.775   3.214
    1PC     N31 8617   3.198   4.636   3.179
    1PC     C33 8618   3.122   4.731   3.092
    1PC     H3A 8619   3.194   4.790   3.036
    1PC     H3B 8620   3.060   4.674   3.024
    1PC     H3C 8621   3.061   4.797   3.154
    1PC     C34 8622   3.283   4.553   3.090
    1PC     H4A 8623   3.221   4.508   3.011
    1PC     H4B 8624   3.361   4.616   3.047
    1PC     H4C 8625   3.331   4.475   3.149
    1PC     C35 8626   3.102   4.546   3.250
    1PC     H5A 8627   3.036   4.606   3.313
    1PC     H5B 8628   3.160   4.475   3.310
    1PC     H5C 8629   3.045   4.490   3.175
    1PC     O33 8630   3.558   4.731   3.176
    1PC     O34 8631   3.643   4.495   3.157
    1PC     O21 8632   3.746   4.650   3.651
    1PC     C21 8633   3.822   4.630   3.761
    1PC     O22 8634   3.919   4.696   3.791
    1OL     C12 8635   3.770   4.522   3.853
    1OL     H2R 8636   3.854   4.476   3.904
    1OL     H2S 8637   3.719   4.445   3.794
    1OL     C13 8638   3.673   4.583   3.957
    1OL     H3R 8639   3.589   4.627   3.905
    1OL     H3S 8640   3.724   4.664   4.011
    1OL     C14 8641   3.620   4.480   4.060
    1OL     H4R 8642   3.703   4.441   4.120
    1OL     H4S 8643   3.574   4.397   4.007
    1OL     C15 8644   3.516   4.546   4.152
    1OL     H5R 8645   3.450   4.605   4.088
    1OL     H5S 8646   3.565   4.617   4.219
    1OL     C16 8647   3.432   4.447   4.236
    1OL     H6R 8648   3.493   4.407   4.317
    1OL     H6S 8649   3.399   4.363   4.175
    1OL     C17 8650   3.308   4.518   4.296
    1OL     H7R 8651   3.344   4.610   4.341
    1OL     H7S 8652   3.264   4.456   4.374
    1OL     C18 8653   3.202   4.548   4.188
    1OL     H8R 8654   3.146   4.456   4.168
    1OL     H8S 8655   3.251   4.570   4.093
    1OL     C19 8656   3.101   4.660   4.209
    1OL     H9R 8657   3.053   4.689   4.116
    1OL    C110 8658   3.063   4.728   4.318
    1OL    H10R 8659   2.988   4.805   4.304
    1OL    C111 8660   3.110   4.715   4.461
    1OL    H11R 8661   3.097   4.813   4.507
    1OL    H11S 8662   3.217   4.693   4.467
    1OL    C112 8663   3.031   4.612   4.543
    1OL    H12R 8664   3.024   4.518   4.488
    1OL    H12S 8665   2.929   4.649   4.559
    1OL    C113 8666   3.098   4.586   4.679
    1OL    H13R 8667   3.189   4.529   4.661
    1OL    H13S 8668   3.033   4.524   4.741
    1OL    C114 8669   3.134   4.715   4.757
    1OL    H14R 8670   3.044   4.767   4.789
    1OL    H14S 8671   3.190   4.783   4.692
    1OL    C115 8672   3.225   4.686   4.877
    1OL    H15R 8673   3.295   4.608   4.848
    1OL    H15S 8674   3.164   4.649   4.960
    1OL    C116 8675   3.308   4.807   4.921
    1OL    H16R 8676   3.243   4.890   4.950
    1OL    H16S 8677   3.368   4.840   4.836
    1OL    C117 8678   3.402   4.771   5.038
    1OL    H17R 8679   3.413   4.662   5.046
    1OL    H17S 8680   3.358   4.806   5.132
    1OL    C118 8681   3.542   4.832   5.020
    1OL    H18R 8682   3.603   4.814   5.108
    1OL    H18S 8683   3.533   4.940   5.005
    1OL    H18T 8684   3.591   4.788   4.933
    1PA    C116 8685   1.170   2.403   5.267
    1PA    H16R 8686   1.132   2.393   5.369
    1PA    H16S 8687   1.084   2.393   5.200
    1PA    H16T 8688   1.211   2.504   5.255
    1PA    C115 8689   1.277   2.296   5.240
    1PA    H15R 8690   1.363   2.313   5.306
    1PA    H15S 8691   1.243   2.197   5.269
    1PA    C114 8692   1.330   2.289   5.096
    1PA    H14R 8693   1.433   2.326   5.096
    1PA    H14S 8694   1.335   2.182   5.073
    1PA    C113 8695   1.252   2.356   4.982
    1PA    H13R 8696   1.227   2.459   5.007
    1PA    H13S 8697   1.318   2.360   4.895
    1PA    C112 8698   1.125   2.278   4.941
    1PA    H12R 8699   1.149   2.172   4.928
    1PA    H12S 8700   1.049   2.285   5.019
    1PA    C111 8701   1.067   2.332   4.809
    1PA    H11R 8702   1.046   2.438   4.819
    1PA    H11S 8703   1.142   2.321   4.730
    1PA    C110 8704   0.939   2.257   4.767
    1PA    H10R 8705   0.963   2.152   4.753
    1PA    H10S 8706   0.866   2.264   4.848
    1PA     C19 8707   0.878   2.315   4.639
    1PA     H9R 8708   0.842   2.416   4.658
    1PA     H9S 8709   0.957   2.324   4.564
    1PA     C18 8710   0.762   2.228   4.585
    1PA     H8R 8711   0.732   2.156   4.661
    1PA     H8S 8712   0.675   2.291   4.566
    1PA     C17 8713   0.797   2.153   4.455
    1PA     H7R 8714   0.884   2.090   4.472
    1PA     H7S 8715   0.713   2.088   4.430
    1PA     C16 8716   0.821   2.248   4.336
    1PA     H6R 8717   0.731   2.309   4.322
    1PA     H6S 8718   0.903   2.317   4.359
    1PA     C15 8719   0.851   2.180   4.201
    1PA     H5R 8720   0.762   2.127   4.167
    1PA     H5S 8721   0.870   2.259   4.128
    1PA     C14 8722   0.971   2.083   4.205
    1PA     H4R 8723   1.057   2.134   4.248
    1PA     H4S 8724   0.947   2.000   4.272
    1PA     C13 8725   1.011   2.025   4.067
    1PA     H3R 8726   1.092   1.954   4.082
    1PA     H3S 8727   0.927   1.970   4.024
    1PA     C12 8728   1.056   2.133   3.967
    1PA     H2R 8729   0.972   2.197   3.940
    1PA     H2S 8730   1.132   2.197   4.014
    1PC     C11 8731   1.116   2.074   3.842
    1PC     O12 8732   1.229   2.030   3.837
    1PC     O11 8733   1.033   2.080   3.736
    1PC      C1 8734   1.084   2.049   3.602
    1PC      HR 8735   1.108   2.142   3.550
    1PC      HS 8736   1.175   1.989   3.609
    1PC      C2 8737   0.983   1.965   3.522
    1PC      HX 8738   0.976   1.868   3.573
    1PC      C3 8739   1.027   1.936   3.376
    1PC      HA 8740   1.092   1.848   3.375
    1PC      HB 8741   0.940   1.913   3.316
    1PC     O31 8742   1.102   2.046   3.319
    1PC     P31 8743   1.117   2.064   3.161
    1PC     O32 8744   0.996   2.163   3.130
    1PC     C31 8745   1.018   2.303   3.145
    1PC     H1A 8746   1.081   2.321   3.232
    1PC     H1B 8747   1.069   2.339   3.055
    1PC     C32 8748   0.883   2.375   3.161
    1PC     H2A 8749   0.900   2.482   3.157
    1PC     H2B 8750   0.817   2.348   3.078
    1PC     N31 8751   0.803   2.352   3.286
    1PC     C33 8752   0.736   2.218   3.286
    1PC     H3A 8753   0.676   2.209   3.196
    1PC     H3B 8754   0.814   2.141   3.289
    1PC     H3C 8755   0.673   2.212   3.375
    1PC     C34 8756   0.885   2.362   3.411
    1PC     H4A 8757   0.958   2.281   3.410
    1PC     H4B 8758   0.933   2.460   3.413
    1PC     H4C 8759   0.817   2.350   3.495
    1PC     C35 8760   0.701   2.459   3.287
    1PC     H5A 8761   0.623   2.436   3.214
    1PC     H5B 8762   0.748   2.554   3.262
    1PC     H5C 8763   0.658   2.467   3.388
    1PC     O33 8764   1.242   2.138   3.132
    1PC     O34 8765   1.092   1.940   3.087
    1PC     O21 8766   0.853   2.031   3.526
    1PC     C21 8767   0.755   1.967   3.593
    1PC     O22 8768   0.756   1.849   3.620
    1OL     C12 8769   0.645   2.059   3.635
    1OL     H2R 8770   0.586   2.086   3.547
    1OL     H2S 8771   0.692   2.149   3.675
    1OL     C13 8772   0.552   1.998   3.743
    1OL     H3R 8773   0.512   1.903   3.706
    1OL     H3S 8774   0.466   2.064   3.755
    1OL     C14 8775   0.617   1.976   3.881
    1OL     H4R 8776   0.664   2.069   3.915
    1OL     H4S 8777   0.696   1.901   3.873
    1OL     C15 8778   0.511   1.930   3.982
    1OL     H5R 8779   0.475   1.832   3.949
    1OL     H5S 8780   0.425   1.997   3.977
    1OL     C16 8781   0.555   1.922   4.130
    1OL     H6R 8782   0.473   1.878   4.187
    1OL     H6S 8783   0.568   2.023   4.169
    1OL     C17 8784   0.685   1.842   4.155
    1OL     H7R 8785   0.770   1.910   4.155
    1OL     H7S 8786   0.702   1.773   4.073
    1OL     C18 8787   0.688   1.761   4.287
    1OL     H8R 8788   0.788   1.720   4.301
    1OL     H8S 8789   0.620   1.676   4.276
    1OL     C19 8790   0.645   1.840   4.407
    1OL     H9R 8791   0.589   1.931   4.386
    1OL    C110 8792   0.667   1.806   4.534
    1OL    H10R 8793   0.629   1.870   4.613
    1OL    C111 8794   0.741   1.681   4.580
    1OL    H11R 8795   0.783   1.625   4.497
    1OL    H11S 8796   0.670   1.615   4.631
    1OL    C112 8797   0.851   1.713   4.682
    1OL    H12R 8798   0.927   1.777   4.635
    1OL    H12S 8799   0.899   1.620   4.712
    1OL    C113 8800   0.793   1.783   4.806
    1OL    H13R 8801   0.712   1.722   4.847
    1OL    H13S 8802   0.750   1.879   4.776
    1OL    C114 8803   0.898   1.807   4.915
    1OL    H14R 8804   0.984   1.859   4.874
    1OL    H14S 8805   0.931   1.709   4.951
    1OL    C115 8806   0.839   1.885   5.033
    1OL    H15R 8807   0.905   1.876   5.119
    1OL    H15S 8808   0.743   1.842   5.061
    1OL    C116 8809   0.822   2.035   5.000
    1OL    H16R 8810   0.780   2.048   4.900
    1OL    H16S 8811   0.921   2.080   4.999
    1OL    C117 8812   0.734   2.108   5.102
    1OL    H17R 8813   0.776   2.206   5.123
    1OL    H17S 8814   0.732   2.051   5.194
    1OL    C118 8815   0.589   2.126   5.054
    1OL    H18R 8816   0.587   2.189   4.966
    1OL    H18S 8817   0.530   2.172   5.133
    1OL    H18T 8818   0.544   2.029   5.029
    1PA    C116 8819   4.844   2.607   5.170
    1PA    H16R 8820   4.938   2.577   5.123
    1PA    H16S 8821   4.763   2.572   5.105
    1PA    H16T 8822   4.834   2.556   5.266
    1PA    C115 8823   4.836   2.759   5.187
    1PA    H15R 8824   4.731   2.789   5.197
    1PA    H15S 8825   4.884   2.790   5.280
    1PA    C114 8826   4.899   2.832   5.067
    1PA    H14R 8827   4.894   2.939   5.084
    1PA    H14S 8828   5.005   2.806   5.058
    1PA    C113 8829   4.825   2.792   4.938
    1PA    H13R 8830   4.858   2.694   4.904
    1PA    H13S 8831   4.719   2.784   4.962
    1PA    C112 8832   4.836   2.894   4.824
    1PA    H12R 8833   4.746   2.886   4.764
    1PA    H12S 8834   4.838   2.995   4.866
    1PA    C111 8835   4.957   2.875   4.732
    1PA    H11R 8836   5.049   2.902   4.785
    1PA    H11S 8837   4.965   2.770   4.703
    1PA    C110 8838   4.941   2.961   4.606
    1PA    H10R 8839   5.019   2.935   4.535
    1PA    H10S 8840   4.845   2.937   4.558
    1PA     C19 8841   4.946   3.112   4.637
    1PA     H9R 8842   4.871   3.138   4.713
    1PA     H9S 8843   5.043   3.136   4.681
    1PA     C18 8844   4.924   3.203   4.515
    1PA     H8R 8845   4.984   3.293   4.530
    1PA     H8S 8846   4.962   3.154   4.425
    1PA     C17 8847   4.777   3.243   4.496
    1PA     H7R 8848   4.717   3.157   4.465
    1PA     H7S 8849   4.736   3.276   4.592
    1PA     C16 8850   4.764   3.358   4.394
    1PA     H6R 8851   4.668   3.408   4.407
    1PA     H6S 8852   4.842   3.432   4.413
    1PA     C15 8853   4.776   3.310   4.249
    1PA     H5R 8854   4.847   3.227   4.244
    1PA     H5S 8855   4.677   3.271   4.221
    1PA     C14 8856   4.819   3.418   4.149
    1PA     H4R 8857   4.753   3.505   4.158
    1PA     H4S 8858   4.920   3.451   4.174
    1PA     C13 8859   4.815   3.365   4.004
    1PA     H3R 8860   4.874   3.273   3.998
    1PA     H3S 8861   4.712   3.339   3.979
    1PA     C12 8862   4.869   3.465   3.900
    1PA     H2R 8863   4.821   3.562   3.915
    1PA     H2S 8864   4.976   3.478   3.914
    1PC     C11 8865   4.840   3.420   3.759
    1PC     O12 8866   4.739   3.450   3.699
    1PC     O11 8867   4.940   3.347   3.706
    1PC      C1 8868   4.933   3.316   3.563
    1PC      HR 8869   4.833   3.279   3.538
    1PC      HS 8870   4.950   3.409   3.508
    1PC      C2 8871   5.038   3.210   3.523
    1PC      HX 8872   5.134   3.238   3.567
    1PC      C3 8873   5.055   3.203   3.368
    1PC      HA 8874   5.035   3.300   3.322
    1PC      HB 8875   5.160   3.179   3.348
    1PC     O31 8876   4.970   3.101   3.306
    1PC     P31 8877   5.001   3.045   3.159
    1PC     O32 8878   5.144   2.979   3.179
    1PC     C31 8879   5.154   2.851   3.241
    1PC     H1A 8880   5.111   2.856   3.342
    1PC     H1B 8881   5.096   2.779   3.183
    1PC     C32 8882   5.302   2.809   3.244
    1PC     H2A 8883   5.309   2.705   3.278
    1PC     H2B 8884   5.342   2.815   3.143
    1PC     N31 8885   5.397   2.888   3.331
    1PC     C33 8886   5.349   2.897   3.472
    1PC     H3A 8887   5.255   2.953   3.474
    1PC     H3B 8888   5.333   2.796   3.511
    1PC     H3C 8889   5.423   2.949   3.532
    1PC     C34 8890   5.529   2.817   3.330
    1PC     H4A 8891   5.516   2.717   3.371
    1PC     H4B 8892   5.565   2.812   3.228
    1PC     H4C 8893   5.599   2.872   3.393
    1PC     C35 8894   5.419   3.026   3.278
    1PC     H5A 8895   5.323   3.076   3.274
    1PC     H5B 8896   5.460   3.019   3.177
    1PC     H5C 8897   5.487   3.078   3.345
    1PC     O33 8898   4.908   2.936   3.124
    1PC     O34 8899   5.018   3.159   3.067
    1PC     O21 8900   4.993   3.081   3.570
    1PC     C21 8901   5.054   3.018   3.671
    1PC     O22 8902   5.161   3.051   3.717
    1OL     C12 8903   4.977   2.895   3.713
    1OL     H2R 8904   4.997   2.814   3.642
    1OL     H2S 8905   4.871   2.918   3.707
    1OL     C13 8906   5.010   2.848   3.856
    1OL     H3R 8907   4.997   2.934   3.922
    1OL     H3S 8908   5.115   2.818   3.861
    1OL     C14 8909   4.921   2.731   3.904
    1OL     H4R 8910   4.939   2.645   3.840
    1OL     H4S 8911   4.816   2.758   3.889
    1OL     C15 8912   4.938   2.688   4.051
    1OL     H5R 8913   5.025   2.623   4.060
    1OL     H5S 8914   4.851   2.629   4.079
    1OL     C16 8915   4.952   2.805   4.152
    1OL     H6R 8916   4.910   2.775   4.248
    1OL     H6S 8917   4.893   2.890   4.117
    1OL     C17 8918   5.099   2.846   4.173
    1OL     H7R 8919   5.154   2.841   4.079
    1OL     H7S 8920   5.146   2.774   4.241
    1OL     C18 8921   5.115   2.988   4.230
    1OL     H8R 8922   5.067   2.992   4.328
    1OL     H8S 8923   5.062   3.059   4.165
    1OL     C19 8924   5.261   3.026   4.236
    1OL     H9R 8925   5.309   3.043   4.140
    1OL    C110 8926   5.333   3.037   4.348
    1OL    H10R 8927   5.438   3.063   4.342
    1OL    C111 8928   5.278   3.014   4.487
    1OL    H11R 8929   5.256   2.907   4.500
    1OL    H11S 8930   5.186   3.070   4.499
    1OL    C112 8931   5.376   3.059   4.595
    1OL    H12R 8932   5.389   3.167   4.590
    1OL    H12S 8933   5.474   3.013   4.578
    1OL    C113 8934   5.326   3.019   4.735
    1OL    H13R 8935   5.315   2.910   4.740
    1OL    H13S 8936   5.227   3.063   4.754
    1OL    C114 8937   5.422   3.066   4.844
    1OL    H14R 8938   5.409   3.173   4.858
    1OL    H14S 8939   5.524   3.048   4.809
    1OL    C115 8940   5.407   2.998   4.981
    1OL    H15R 8941   5.469   3.052   5.053
    1OL    H15S 8942   5.446   2.896   4.976
    1OL    C116 8943   5.261   2.995   5.030
    1OL    H16R 8944   5.204   2.930   4.963
    1OL    H16S 8945   5.216   3.094   5.026
    1OL    C117 8946   5.247   2.940   5.171
    1OL    H17R 8947   5.296   2.842   5.174
    1OL    H17S 8948   5.140   2.927   5.189
    1OL    C118 8949   5.302   3.025   5.287
    1OL    H18R 8950   5.296   2.971   5.382
    1OL    H18S 8951   5.243   3.116   5.298
    1OL    H18T 8952   5.407   3.050   5.269
    1PA    C116 8953   2.132   4.463   4.733
    1PA    H16R 8954   2.025   4.452   4.714
    1PA    H16S 8955   2.165   4.377   4.791
    1PA    H16T 8956   2.184   4.463   4.638
    1PA    C115 8957   2.158   4.594   4.810
    1PA    H15R 8958   2.126   4.678   4.747
    1PA    H15S 8959   2.099   4.597   4.901
    1PA    C114 8960   2.307   4.613   4.845
    1PA    H14R 8961   2.340   4.535   4.914
    1PA    H14S 8962   2.366   4.603   4.754
    1PA    C113 8963   2.331   4.751   4.910
    1PA    H13R 8964   2.290   4.829   4.846
    1PA    H13S 8965   2.276   4.757   5.004
    1PA    C112 8966   2.480   4.782   4.938
    1PA    H12R 8967   2.488   4.885   4.974
    1PA    H12S 8968   2.514   4.718   5.019
    1PA    C111 8969   2.572   4.764   4.816
    1PA    H11R 8970   2.673   4.799   4.841
    1PA    H11S 8971   2.581   4.658   4.792
    1PA    C110 8972   2.521   4.839   4.692
    1PA    H10R 8973   2.420   4.806   4.667
    1PA    H10S 8974   2.515   4.946   4.714
    1PA     C19 8975   2.609   4.819   4.568
    1PA     H9R 8976   2.704   4.870   4.583
    1PA     H9S 8977   2.630   4.713   4.555
    1PA     C18 8978   2.540   4.871   4.440
    1PA     H8R 8979   2.485   4.789   4.393
    1PA     H8S 8980   2.466   4.948   4.467
    1PA     C17 8981   2.641   4.933   4.342
    1PA     H7R 8982   2.726   4.866   4.330
    1PA     H7S 8983   2.678   5.024   4.388
    1PA     C16 8984   2.585   4.970   4.204
    1PA     H6R 8985   2.495   5.031   4.215
    1PA     H6S 8986   2.660   5.034   4.157
    1PA     C15 8987   2.558   4.852   4.107
    1PA     H5R 8988   2.579   4.889   4.006
    1PA     H5S 8989   2.630   4.772   4.126
    1PA     C14 8990   2.414   4.798   4.110
    1PA     H4R 8991   2.401   4.731   4.196
    1PA     H4S 8992   2.346   4.882   4.125
    1PA     C13 8993   2.372   4.725   3.980
    1PA     H3R 8994   2.265   4.705   3.985
    1PA     H3S 8995   2.389   4.792   3.895
    1PA     C12 8996   2.447   4.593   3.955
    1PA     H2R 8997   2.554   4.613   3.949
    1PA     H2S 8998   2.431   4.524   4.038
    1PC     C11 8999   2.404   4.525   3.827
    1PC     O12 9000   2.318   4.566   3.751
    1PC     O11 9001   2.473   4.411   3.806
    1PC      C1 9002   2.452   4.335   3.683
    1PC      HR 9003   2.505   4.240   3.692
    1PC      HS 9004   2.345   4.315   3.670
    1PC      C2 9005   2.506   4.412   3.560
    1PC      HX 9006   2.452   4.507   3.551
    1PC      C3 9007   2.490   4.335   3.428
    1PC      HA 9008   2.549   4.243   3.429
    1PC      HB 9009   2.385   4.311   3.412
    1PC     O31 9010   2.537   4.419   3.320
    1PC     P31 9011   2.495   4.390   3.168
    1PC     O32 9012   2.400   4.513   3.132
    1PC     C31 9013   2.272   4.531   3.193
    1PC     H1A 9014   2.209   4.587   3.124
    1PC     H1B 9015   2.226   4.433   3.211
    1PC     C32 9016   2.290   4.609   3.325
    1PC     H2A 9017   2.192   4.622   3.372
    1PC     H2B 9018   2.354   4.551   3.392
    1PC     N31 9019   2.352   4.747   3.321
    1PC     C33 9020   2.280   4.836   3.225
    1PC     H3A 9021   2.174   4.842   3.254
    1PC     H3B 9022   2.323   4.936   3.228
    1PC     H3C 9023   2.289   4.794   3.124
    1PC     C34 9024   2.345   4.807   3.457
    1PC     H4A 9025   2.241   4.809   3.489
    1PC     H4B 9026   2.405   4.746   3.525
    1PC     H4C 9027   2.384   4.909   3.452
    1PC     C35 9028   2.497   4.742   3.283
    1PC     H5A 9029   2.548   4.676   3.353
    1PC     H5B 9030   2.539   4.843   3.289
    1PC     H5C 9031   2.505   4.703   3.182
    1PC     O33 9032   2.614   4.399   3.082
    1PC     O34 9033   2.415   4.265   3.167
    1PC     O21 9034   2.648   4.434   3.579
    1PC     C21 9035   2.694   4.560   3.587
    1PC     O22 9036   2.626   4.660   3.572
    1OL     C12 9037   2.841   4.566   3.624
    1OL     H2R 9038   2.862   4.663   3.669
    1OL     H2S 9039   2.900   4.557   3.533
    1OL     C13 9040   2.881   4.453   3.721
    1OL     H3R 9041   2.984   4.469   3.753
    1OL     H3S 9042   2.878   4.359   3.665
    1OL     C14 9043   2.790   4.438   3.845
    1OL     H4R 9044   2.733   4.345   3.836
    1OL     H4S 9045   2.717   4.520   3.846
    1OL     C15 9046   2.865   4.440   3.978
    1OL     H5R 9047   2.923   4.532   3.982
    1OL     H5S 9048   2.937   4.357   3.982
    1OL     C16 9049   2.770   4.432   4.099
    1OL     H6R 9050   2.771   4.330   4.139
    1OL     H6S 9051   2.667   4.455   4.069
    1OL     C17 9052   2.816   4.533   4.205
    1OL     H7R 9053   2.816   4.633   4.161
    1OL     H7S 9054   2.919   4.506   4.227
    1OL     C18 9055   2.746   4.538   4.341
    1OL     H8R 9056   2.768   4.634   4.387
    1OL     H8S 9057   2.794   4.462   4.404
    1OL     C19 9058   2.596   4.518   4.337
    1OL     H9R 9059   2.538   4.607   4.313
    1OL    C110 9060   2.534   4.403   4.361
    1OL    H10R 9061   2.426   4.398   4.356
    1OL    C111 9062   2.604   4.273   4.393
    1OL    H11R 9063   2.685   4.256   4.322
    1OL    H11S 9064   2.533   4.191   4.378
    1OL    C112 9065   2.663   4.262   4.535
    1OL    H12R 9066   2.745   4.333   4.548
    1OL    H12S 9067   2.708   4.163   4.545
    1OL    C113 9068   2.563   4.283   4.649
    1OL    H13R 9069   2.479   4.214   4.638
    1OL    H13S 9070   2.523   4.385   4.646
    1OL    C114 9071   2.634   4.257   4.783
    1OL    H14R 9072   2.719   4.326   4.793
    1OL    H14S 9073   2.674   4.156   4.782
    1OL    C115 9074   2.542   4.274   4.904
    1OL    H15R 9075   2.450   4.217   4.886
    1OL    H15S 9076   2.514   4.379   4.916
    1OL    C116 9077   2.610   4.220   5.030
    1OL    H16R 9078   2.702   4.275   5.050
    1OL    H16S 9079   2.639   4.117   5.009
    1OL    C117 9080   2.517   4.228   5.153
    1OL    H17R 9081   2.418   4.190   5.125
    1OL    H17S 9082   2.507   4.335   5.176
    1OL    C118 9083   2.560   4.158   5.282
    1OL    H18R 9084   2.490   4.180   5.362
    1OL    H18S 9085   2.659   4.194   5.314
    1OL    H18T 9086   2.563   4.050   5.270
    1PA    C116 9087   1.941   0.884   5.070
    1PA    H16R 9088   2.017   0.866   4.993
    1PA    H16S 9089   1.982   0.856   5.167
    1PA    H16T 9090   1.918   0.990   5.070
    1PA    C115 9091   1.814   0.803   5.040
    1PA    H15R 9092   1.746   0.807   5.125
    1PA    H15S 9093   1.763   0.849   4.955
    1PA    C114 9094   1.847   0.656   5.005
    1PA    H14R 9095   1.927   0.657   4.930
    1PA    H14S 9096   1.886   0.605   5.093
    1PA    C113 9097   1.724   0.580   4.950
    1PA    H13R 9098   1.660   0.553   5.034
    1PA    H13S 9099   1.667   0.647   4.886
    1PA    C112 9100   1.757   0.454   4.870
    1PA    H12R 9101   1.815   0.385   4.932
    1PA    H12S 9102   1.664   0.403   4.843
    1PA    C111 9103   1.835   0.487   4.740
    1PA    H11R 9104   1.777   0.559   4.683
    1PA    H11S 9105   1.930   0.534   4.765
    1PA    C110 9106   1.865   0.365   4.652
    1PA    H10R 9107   1.920   0.291   4.710
    1PA    H10S 9108   1.772   0.319   4.618
    1PA     C19 9109   1.953   0.401   4.531
    1PA     H9R 9110   2.044   0.450   4.566
    1PA     H9S 9111   1.985   0.309   4.481
    1PA     C18 9112   1.882   0.491   4.428
    1PA     H8R 9113   1.799   0.435   4.385
    1PA     H8S 9114   1.841   0.579   4.478
    1PA     C17 9115   1.978   0.538   4.318
    1PA     H7R 9116   2.058   0.597   4.365
    1PA     H7S 9117   2.025   0.452   4.270
    1PA     C16 9118   1.908   0.626   4.214
    1PA     H6R 9119   1.847   0.701   4.264
    1PA     H6S 9120   1.984   0.680   4.156
    1PA     C15 9121   1.821   0.545   4.116
    1PA     H5R 9122   1.886   0.487   4.051
    1PA     H5S 9123   1.758   0.475   4.171
    1PA     C14 9124   1.731   0.636   4.031
    1PA     H4R 9125   1.638   0.655   4.086
    1PA     H4S 9126   1.779   0.733   4.016
    1PA     C13 9127   1.696   0.577   3.894
    1PA     H3R 9128   1.634   0.649   3.840
    1PA     H3S 9129   1.788   0.565   3.836
    1PA     C12 9130   1.623   0.442   3.903
    1PA     H2R 9131   1.683   0.369   3.957
    1PA     H2S 9132   1.529   0.455   3.957
    1PC     C11 9133   1.595   0.389   3.765
    1PC     O12 9134   1.647   0.290   3.718
    1PC     O11 9135   1.505   0.465   3.700
    1PC      C1 9136   1.468   0.431   3.563
    1PC      HR 9137   1.498   0.330   3.537
    1PC      HS 9138   1.359   0.440   3.561
    1PC      C2 9139   1.523   0.532   3.460
    1PC      HX 9140   1.493   0.498   3.360
    1PC      C3 9141   1.677   0.545   3.467
    1PC      HA 9142   1.705   0.625   3.536
    1PC      HB 9143   1.720   0.451   3.502
    1PC     O31 9144   1.731   0.571   3.334
    1PC     P31 9145   1.889   0.590   3.313
    1PC     O32 9146   1.903   0.737   3.254
    1PC     C31 9147   1.846   0.851   3.319
    1PC     H1A 9148   1.846   0.837   3.428
    1PC     H1B 9149   1.908   0.938   3.296
    1PC     C32 9150   1.703   0.872   3.265
    1PC     H2A 9151   1.638   0.794   3.305
    1PC     H2B 9152   1.666   0.969   3.299
    1PC     N31 9153   1.682   0.868   3.115
    1PC     C33 9154   1.672   0.727   3.066
    1PC     H3A 9155   1.596   0.675   3.124
    1PC     H3B 9156   1.648   0.726   2.960
    1PC     H3C 9157   1.769   0.678   3.082
    1PC     C34 9158   1.552   0.934   3.081
    1PC     H4A 9159   1.540   0.931   2.973
    1PC     H4B 9160   1.473   0.878   3.131
    1PC     H4C 9161   1.556   1.038   3.116
    1PC     C35 9162   1.789   0.939   3.039
    1PC     H5A 9163   1.767   0.933   2.933
    1PC     H5B 9164   1.884   0.889   3.061
    1PC     H5C 9165   1.792   1.043   3.071
    1PC     O33 9166   1.955   0.584   3.444
    1PC     O34 9167   1.931   0.500   3.204
    1PC     O21 9168   1.459   0.658   3.492
    1PC     C21 9169   1.400   0.734   3.398
    1PC     O22 9170   1.411   0.718   3.278
    1OL     C12 9171   1.315   0.843   3.459
    1OL     H2R 9172   1.223   0.799   3.497
    1OL     H2S 9173   1.288   0.916   3.382
    1OL     C13 9174   1.389   0.914   3.574
    1OL     H3R 9175   1.477   0.965   3.535
    1OL     H3S 9176   1.424   0.839   3.645
    1OL     C14 9177   1.300   1.013   3.650
    1OL     H4R 9178   1.211   0.964   3.688
    1OL     H4S 9179   1.268   1.092   3.581
    1OL     C15 9180   1.379   1.076   3.765
    1OL     H5R 9181   1.322   1.159   3.807
    1OL     H5S 9182   1.471   1.118   3.722
    1OL     C16 9183   1.421   0.982   3.879
    1OL     H6R 9184   1.487   1.041   3.944
    1OL     H6S 9185   1.483   0.900   3.841
    1OL     C17 9186   1.302   0.926   3.959
    1OL     H7R 9187   1.257   0.843   3.905
    1OL     H7S 9188   1.226   1.003   3.969
    1OL     C18 9189   1.345   0.881   4.100
    1OL     H8R 9190   1.418   0.801   4.093
    1OL     H8S 9191   1.257   0.843   4.153
    1OL     C19 9192   1.399   1.002   4.174
    1OL     H9R 9193   1.332   1.087   4.172
    1OL    C110 9194   1.517   1.015   4.234
    1OL    H10R 9195   1.543   1.111   4.278
    1OL    C111 9196   1.626   0.912   4.246
    1OL    H11R 9197   1.712   0.941   4.185
    1OL    H11S 9198   1.592   0.814   4.212
    1OL    C112 9199   1.670   0.902   4.393
    1OL    H12R 9200   1.706   0.999   4.427
    1OL    H12S 9201   1.752   0.831   4.403
    1OL    C113 9202   1.553   0.856   4.483
    1OL    H13R 9203   1.513   0.762   4.443
    1OL    H13S 9204   1.473   0.930   4.480
    1OL    C114 9205   1.596   0.834   4.629
    1OL    H14R 9206   1.648   0.923   4.665
    1OL    H14S 9207   1.667   0.751   4.633
    1OL    C115 9208   1.477   0.805   4.721
    1OL    H15R 9209   1.415   0.895   4.730
    1OL    H15S 9210   1.515   0.783   4.821
    1OL    C116 9211   1.388   0.689   4.671
    1OL    H16R 9212   1.451   0.605   4.641
    1OL    H16S 9213   1.333   0.722   4.582
    1OL    C117 9214   1.287   0.642   4.776
    1OL    H17R 9215   1.209   0.584   4.726
    1OL    H17S 9216   1.237   0.728   4.821
    1OL    C118 9217   1.351   0.555   4.885
    1OL    H18R 9218   1.396   0.466   4.841
    1OL    H18S 9219   1.276   0.523   4.958
    1OL    H18T 9220   1.429   0.609   4.938
    1PA    C116 9221   4.611   4.531   5.445
    1PA    H16R 9222   4.639   4.509   5.549
    1PA    H16S 9223   4.694   4.505   5.380
    1PA    H16T 9224   4.524   4.469   5.420
    1PA    C115 9225   4.579   4.680   5.430
    1PA    H15R 9226   4.483   4.701   5.477
    1PA    H15S 9227   4.656   4.734   5.485
    1PA    C114 9228   4.579   4.729   5.283
    1PA    H14R 9229   4.638   4.821   5.279
    1PA    H14S 9230   4.627   4.656   5.218
    1PA    C113 9231   4.438   4.759   5.233
    1PA    H13R 9232   4.382   4.666   5.243
    1PA    H13S 9233   4.391   4.832   5.300
    1PA    C112 9234   4.423   4.807   5.087
    1PA    H12R 9235   4.488   4.892   5.067
    1PA    H12S 9236   4.448   4.727   5.018
    1PA    C111 9237   4.276   4.851   5.068
    1PA    H11R 9238   4.210   4.770   5.101
    1PA    H11S 9239   4.262   4.934   5.137
    1PA    C110 9240   4.234   4.898   4.928
    1PA    H10R 9241   4.170   4.985   4.939
    1PA    H10S 9242   4.321   4.929   4.871
    1PA     C19 9243   4.155   4.790   4.851
    1PA     H9R 9244   4.216   4.700   4.841
    1PA     H9S 9245   4.066   4.761   4.909
    1PA     C18 9246   4.110   4.840   4.713
    1PA     H8R 9247   4.013   4.889   4.722
    1PA     H8S 9248   4.180   4.916   4.677
    1PA     C17 9249   4.102   4.728   4.609
    1PA     H7R 9250   4.201   4.684   4.595
    1PA     H7S 9251   4.035   4.649   4.645
    1PA     C16 9252   4.050   4.781   4.474
    1PA     H6R 9253   3.950   4.822   4.487
    1PA     H6S 9254   4.114   4.863   4.440
    1PA     C15 9255   4.044   4.673   4.365
    1PA     H5R 9256   4.002   4.581   4.405
    1PA     H5S 9257   3.976   4.707   4.286
    1PA     C14 9258   4.181   4.645   4.302
    1PA     H4R 9259   4.222   4.739   4.265
    1PA     H4S 9260   4.251   4.607   4.378
    1PA     C13 9261   4.170   4.545   4.187
    1PA     H3R 9262   4.152   4.445   4.226
    1PA     H3S 9263   4.085   4.572   4.123
    1PA     C12 9264   4.298   4.546   4.101
    1PA     H2R 9265   4.318   4.648   4.068
    1PA     H2S 9266   4.384   4.512   4.160
    1PC     C11 9267   4.286   4.461   3.978
    1PC     O12 9268   4.198   4.379   3.958
    1PC     O11 9269   4.391   4.480   3.896
    1PC      C1 9270   4.390   4.414   3.768
    1PC      HR 9271   4.495   4.401   3.740
    1PC      HS 9272   4.343   4.316   3.776
    1PC      C2 9273   4.323   4.495   3.653
    1PC      HX 9274   4.219   4.517   3.675
    1PC      C3 9275   4.331   4.401   3.529
    1PC      HA 9276   4.430   4.354   3.527
    1PC      HB 9277   4.255   4.323   3.539
    1PC     O31 9278   4.315   4.467   3.402
    1PC     P31 9279   4.170   4.478   3.336
    1PC     O32 9280   4.189   4.588   3.222
    1PC     C31 9281   4.259   4.711   3.246
    1PC     H1A 9282   4.229   4.783   3.169
    1PC     H1B 9283   4.232   4.750   3.344
    1PC     C32 9284   4.412   4.685   3.237
    1PC     H2A 9285   4.464   4.781   3.242
    1PC     H2B 9286   4.442   4.627   3.324
    1PC     N31 9287   4.468   4.611   3.117
    1PC     C33 9288   4.419   4.470   3.104
    1PC     H3A 9289   4.431   4.419   3.199
    1PC     H3B 9290   4.312   4.473   3.079
    1PC     H3C 9291   4.472   4.419   3.024
    1PC     C34 9292   4.435   4.682   2.990
    1PC     H4A 9293   4.327   4.681   2.980
    1PC     H4B 9294   4.473   4.784   2.996
    1PC     H4C 9295   4.481   4.628   2.907
    1PC     C35 9296   4.616   4.602   3.131
    1PC     H5A 9297   4.655   4.549   3.044
    1PC     H5B 9298   4.637   4.547   3.223
    1PC     H5C 9299   4.656   4.704   3.137
    1PC     O33 9300   4.150   4.348   3.269
    1PC     O34 9301   4.078   4.527   3.438
    1PC     O21 9302   4.399   4.617   3.631
    1PC     C21 9303   4.373   4.721   3.714
    1PC     O22 9304   4.287   4.721   3.799
    1OL     C12 9305   4.468   4.837   3.695
    1OL     H2R 9306   4.416   4.914   3.639
    1OL     H2S 9307   4.554   4.805   3.635
    1OL     C13 9308   4.518   4.894   3.830
    1OL     H3R 9309   4.432   4.915   3.894
    1OL     H3S 9310   4.567   4.990   3.811
    1OL     C14 9311   4.617   4.801   3.902
    1OL     H4R 9312   4.708   4.792   3.842
    1OL     H4S 9313   4.575   4.701   3.911
    1OL     C15 9314   4.655   4.852   4.043
    1OL     H5R 9315   4.679   4.958   4.038
    1OL     H5S 9316   4.746   4.800   4.074
    1OL     C16 9317   4.544   4.829   4.147
    1OL     H6R 9318   4.510   4.726   4.140
    1OL     H6S 9319   4.459   4.893   4.123
    1OL     C17 9320   4.587   4.857   4.292
    1OL     H7R 9321   4.502   4.838   4.358
    1OL     H7S 9322   4.611   4.963   4.301
    1OL     C18 9323   4.707   4.773   4.342
    1OL     H8R 9324   4.722   4.791   4.449
    1OL     H8S 9325   4.798   4.806   4.292
    1OL     C19 9326   4.684   4.626   4.313
    1OL     H9R 9327   4.687   4.601   4.207
    1OL    C110 9328   4.660   4.530   4.401
    1OL    H10R 9329   4.644   4.429   4.367
    1OL    C111 9330   4.649   4.550   4.550
    1OL    H11R 9331   4.728   4.616   4.587
    1OL    H11S 9332   4.665   4.453   4.599
    1OL    C112 9333   4.511   4.607   4.586
    1OL    H12R 9334   4.433   4.549   4.537
    1OL    H12S 9335   4.504   4.709   4.547
    1OL    C113 9336   4.485   4.611   4.737
    1OL    H13R 9337   4.401   4.678   4.757
    1OL    H13S 9338   4.572   4.655   4.787
    1OL    C114 9339   4.458   4.472   4.797
    1OL    H14R 9340   4.466   4.481   4.906
    1OL    H14S 9341   4.536   4.404   4.764
    1OL    C115 9342   4.321   4.410   4.763
    1OL    H15R 9343   4.305   4.407   4.655
    1OL    H15S 9344   4.243   4.472   4.806
    1OL    C116 9345   4.311   4.266   4.820
    1OL    H16R 9346   4.371   4.260   4.911
    1OL    H16S 9347   4.354   4.195   4.750
    1OL    C117 9348   4.167   4.222   4.856
    1OL    H17R 9349   4.120   4.175   4.770
    1OL    H17S 9350   4.106   4.309   4.882
    1OL    C118 9351   4.166   4.125   4.976
    1OL    H18R 9352   4.206   4.174   5.065
    1OL    H18S 9353   4.228   4.038   4.955
    1OL    H18T 9354   4.064   4.093   4.998
    1PA    C116 9355   5.193   1.425   5.071
    1PA    H16R 9356   5.291   1.475   5.073
    1PA    H16S 9357   5.182   1.375   4.975
    1PA    H16T 9358   5.193   1.348   5.148
    1PA    C115 9359   5.080   1.526   5.096
    1PA    H15R 9360   4.983   1.475   5.096
    1PA    H15S 9361   5.092   1.568   5.197
    1PA    C114 9362   5.072   1.642   4.994
    1PA    H14R 9363   4.982   1.699   5.014
    1PA    H14S 9364   5.157   1.709   5.012
    1PA    C113 9365   5.074   1.598   4.846
    1PA    H13R 9366   5.058   1.686   4.784
    1PA    H13S 9367   5.173   1.560   4.822
    1PA    C112 9368   4.971   1.490   4.806
    1PA    H12R 9369   4.992   1.461   4.703
    1PA    H12S 9370   4.985   1.401   4.867
    1PA    C111 9371   4.824   1.535   4.815
    1PA    H11R 9372   4.802   1.570   4.916
    1PA    H11S 9373   4.808   1.619   4.747
    1PA    C110 9374   4.724   1.422   4.781
    1PA    H10R 9375   4.728   1.345   4.858
    1PA    H10S 9376   4.623   1.464   4.785
    1PA     C19 9377   4.745   1.358   4.642
    1PA     H9R 9378   4.744   1.437   4.566
    1PA     H9S 9379   4.842   1.308   4.637
    1PA     C18 9380   4.634   1.256   4.609
    1PA     H8R 9381   4.640   1.172   4.679
    1PA     H8S 9382   4.538   1.304   4.627
    1PA     C17 9383   4.638   1.202   4.464
    1PA     H7R 9384   4.665   1.282   4.395
    1PA     H7S 9385   4.716   1.125   4.456
    1PA     C16 9386   4.500   1.146   4.424
    1PA     H6R 9387   4.457   1.093   4.509
    1PA     H6S 9388   4.438   1.233   4.402
    1PA     C15 9389   4.491   1.053   4.303
    1PA     H5R 9390   4.538   0.958   4.329
    1PA     H5S 9391   4.386   1.028   4.285
    1PA     C14 9392   4.551   1.110   4.173
    1PA     H4R 9393   4.656   1.131   4.190
    1PA     H4S 9394   4.545   1.032   4.096
    1PA     C13 9395   4.479   1.235   4.120
    1PA     H3R 9396   4.373   1.211   4.113
    1PA     H3S 9397   4.490   1.318   4.191
    1PA     C12 9398   4.524   1.280   3.979
    1PA     H2R 9399   4.515   1.196   3.910
    1PA     H2S 9400   4.456   1.358   3.944
    1PC     C11 9401   4.665   1.333   3.970
    1PC     O12 9402   4.753   1.314   4.052
    1PC     O11 9403   4.682   1.404   3.857
    1PC      C1 9404   4.815   1.407   3.797
    1PC      HR 9405   4.832   1.508   3.757
    1PC      HS 9406   4.893   1.387   3.871
    1PC      C2 9407   4.820   1.305   3.680
    1PC      HX 9408   4.913   1.316   3.625
    1PC      C3 9409   4.698   1.331   3.588
    1PC      HA 9410   4.608   1.302   3.642
    1PC      HB 9411   4.692   1.438   3.565
    1PC     O31 9412   4.697   1.256   3.463
    1PC     P31 9413   4.811   1.275   3.351
    1PC     O32 9414   4.832   1.434   3.350
    1PC     C31 9415   4.794   1.512   3.237
    1PC     H1A 9416   4.692   1.485   3.207
    1PC     H1B 9417   4.796   1.617   3.264
    1PC     C32 9418   4.892   1.483   3.121
    1PC     H2A 9419   4.879   1.379   3.090
    1PC     H2B 9420   4.864   1.547   3.037
    1PC     N31 9421   5.040   1.502   3.141
    1PC     C33 9422   5.102   1.520   3.007
    1PC     H3A 9423   5.091   1.426   2.953
    1PC     H3B 9424   5.049   1.600   2.954
    1PC     H3C 9425   5.208   1.544   3.019
    1PC     C34 9426   5.069   1.622   3.225
    1PC     H4A 9427   5.177   1.639   3.226
    1PC     H4B 9428   5.015   1.707   3.184
    1PC     H4C 9429   5.033   1.599   3.326
    1PC     C35 9430   5.104   1.383   3.203
    1PC     H5A 9431   5.076   1.294   3.146
    1PC     H5B 9432   5.066   1.371   3.305
    1PC     H5C 9433   5.212   1.395   3.206
    1PC     O33 9434   4.939   1.219   3.395
    1PC     O34 9435   4.753   1.241   3.219
    1PC     O21 9436   4.807   1.172   3.734
    1PC     C21 9437   4.917   1.120   3.793
    1PC     O22 9438   5.022   1.178   3.805
    1OL     C12 9439   4.889   0.984   3.849
    1OL     H2R 9440   4.970   0.916   3.821
    1OL     H2S 9441   4.798   0.944   3.803
    1OL     C13 9442   4.870   0.991   4.002
    1OL     H3R 9443   4.792   1.064   4.025
    1OL     H3S 9444   4.962   1.023   4.051
    1OL     C14 9445   4.827   0.854   4.054
    1OL     H4R 9446   4.910   0.784   4.043
    1OL     H4S 9447   4.745   0.822   3.990
    1OL     C15 9448   4.774   0.846   4.197
    1OL     H5R 9449   4.749   0.742   4.221
    1OL     H5S 9450   4.678   0.898   4.200
    1OL     C16 9451   4.865   0.901   4.307
    1OL     H6R 9452   4.877   1.009   4.295
    1OL     H6S 9453   4.964   0.855   4.298
    1OL     C17 9454   4.804   0.869   4.445
    1OL     H7R 9455   4.790   0.761   4.453
    1OL     H7S 9456   4.705   0.913   4.452
    1OL     C18 9457   4.888   0.918   4.563
    1OL     H8R 9458   4.827   0.907   4.653
    1OL     H8S 9459   4.909   1.024   4.550
    1OL     C19 9460   5.017   0.841   4.575
    1OL     H9R 9461   5.066   0.819   4.481
    1OL    C110 9462   5.071   0.794   4.687
    1OL    H10R 9463   5.161   0.733   4.682
    1OL    C111 9464   5.018   0.806   4.827
    1OL    H11R 9465   5.038   0.712   4.878
    1OL    H11S 9466   4.910   0.822   4.828
    1OL    C112 9467   5.090   0.915   4.907
    1OL    H12R 9468   5.198   0.904   4.896
    1OL    H12S 9469   5.069   0.896   5.013
    1OL    C113 9470   5.051   1.060   4.870
    1OL    H13R 9471   5.082   1.081   4.768
    1OL    H13S 9472   5.108   1.127   4.935
    1OL    C114 9473   4.901   1.091   4.885
    1OL    H14R 9474   4.846   1.053   4.798
    1OL    H14S 9475   4.888   1.199   4.883
    1OL    C115 9476   4.835   1.033   5.012
    1OL    H15R 9477   4.834   0.924   5.007
    1OL    H15S 9478   4.731   1.065   5.016
    1OL    C116 9479   4.907   1.077   5.140
    1OL    H16R 9480   5.015   1.060   5.132
    1OL    H16S 9481   4.874   1.013   5.222
    1OL    C117 9482   4.883   1.225   5.171
    1OL    H17R 9483   4.776   1.245   5.176
    1OL    H17S 9484   4.923   1.283   5.088
    1OL    C118 9485   4.950   1.271   5.302
    1OL    H18R 9486   4.904   1.222   5.388
    1OL    H18S 9487   4.939   1.379   5.314
    1OL    H18T 9488   5.056   1.247   5.301
    1PA    C116 9489   4.221   0.449   5.185
    1PA    H16R 9490   4.143   0.374   5.205
    1PA    H16S 9491   4.203   0.493   5.087
    1PA    H16T 9492   4.210   0.528   5.259
    1PA    C115 9493   4.360   0.383   5.192
    1PA    H15R 9494   4.393   0.380   5.296
    1PA    H15S 9495   4.350   0.280   5.158
    1PA    C114 9496   4.468   0.451   5.105
    1PA    H14R 9497   4.554   0.385   5.096
    1PA    H14S 9498   4.427   0.465   5.004
    1PA    C113 9499   4.516   0.586   5.159
    1PA    H13R 9500   4.430   0.653   5.165
    1PA    H13S 9501   4.553   0.572   5.261
    1PA    C112 9502   4.626   0.658   5.078
    1PA    H12R 9503   4.633   0.761   5.116
    1PA    H12S 9504   4.723   0.613   5.098
    1PA    C111 9505   4.603   0.666   4.926
    1PA    H11R 9506   4.496   0.674   4.904
    1PA    H11S 9507   4.649   0.758   4.890
    1PA    C110 9508   4.664   0.550   4.844
    1PA    H10R 9509   4.611   0.456   4.866
    1PA    H10S 9510   4.647   0.573   4.739
    1PA     C19 9511   4.815   0.532   4.871
    1PA     H9R 9512   4.853   0.628   4.905
    1PA     H9S 9513   4.828   0.464   4.956
    1PA     C18 9514   4.905   0.481   4.755
    1PA     H8R 9515   5.008   0.509   4.778
    1PA     H8S 9516   4.905   0.372   4.756
    1PA     C17 9517   4.871   0.532   4.612
    1PA     H7R 9518   4.770   0.501   4.583
    1PA     H7S 9519   4.870   0.641   4.614
    1PA     C16 9520   4.969   0.480   4.506
    1PA     H6R 9521   5.070   0.513   4.534
    1PA     H6S 9522   4.969   0.371   4.510
    1PA     C15 9523   4.945   0.525   4.359
    1PA     H5R 9524   4.947   0.634   4.354
    1PA     H5S 9525   5.029   0.490   4.299
    1PA     C14 9526   4.814   0.472   4.293
    1PA     H4R 9527   4.805   0.366   4.314
    1PA     H4S 9528   4.730   0.523   4.340
    1PA     C13 9529   4.806   0.493   4.139
    1PA     H3R 9530   4.838   0.594   4.114
    1PA     H3S 9531   4.877   0.426   4.089
    1PA     C12 9532   4.665   0.465   4.081
    1PA     H2R 9533   4.655   0.357   4.076
    1PA     H2S 9534   4.589   0.502   4.150
    1PC     C11 9535   4.633   0.519   3.943
    1PC     O12 9536   4.670   0.626   3.901
    1PC     O11 9537   4.544   0.442   3.875
    1PC      C1 9538   4.497   0.487   3.743
    1PC      HR 9539   4.391   0.459   3.737
    1PC      HS 9540   4.503   0.596   3.734
    1PC      C2 9541   4.570   0.419   3.624
    1PC      HX 9542   4.675   0.447   3.626
    1PC      C3 9543   4.506   0.461   3.489
    1PC      HA 9544   4.398   0.466   3.504
    1PC      HB 9545   4.544   0.560   3.461
    1PC     O31 9546   4.532   0.368   3.380
    1PC     P31 9547   4.420   0.335   3.270
    1PC     O32 9548   4.403   0.478   3.205
    1PC     C31 9549   4.289   0.502   3.123
    1PC     H1A 9550   4.297   0.442   3.032
    1PC     H1B 9551   4.198   0.475   3.175
    1PC     C32 9552   4.292   0.651   3.087
    1PC     H2A 9553   4.388   0.675   3.041
    1PC     H2B 9554   4.214   0.669   3.012
    1PC     N31 9555   4.270   0.749   3.198
    1PC     C33 9556   4.387   0.756   3.290
    1PC     H3A 9557   4.476   0.777   3.231
    1PC     H3B 9558   4.371   0.833   3.366
    1PC     H3C 9559   4.398   0.658   3.338
    1PC     C34 9560   4.253   0.883   3.135
    1PC     H4A 9561   4.234   0.957   3.213
    1PC     H4B 9562   4.345   0.905   3.081
    1PC     H4C 9563   4.168   0.877   3.066
    1PC     C35 9564   4.147   0.716   3.277
    1PC     H5A 9565   4.065   0.704   3.206
    1PC     H5B 9566   4.127   0.795   3.348
    1PC     H5C 9567   4.166   0.621   3.328
    1PC     O33 9568   4.468   0.252   3.157
    1PC     O34 9569   4.290   0.306   3.333
    1PC     O21 9570   4.553   0.277   3.639
    1PC     C21 9571   4.661   0.199   3.620
    1PC     O22 9572   4.757   0.233   3.555
    1OL     C12 9573   4.650   0.070   3.698
    1OL     H2R 9574   4.750   0.042   3.733
    1OL     H2S 9575   4.613  -0.009   3.632
    1OL     C13 9576   4.556   0.087   3.817
    1OL     H3R 9577   4.454   0.103   3.779
    1OL     H3S 9578   4.584   0.177   3.872
    1OL     C14 9579   4.553  -0.031   3.914
    1OL     H4R 9580   4.643  -0.030   3.975
    1OL     H4S 9581   4.550  -0.125   3.858
    1OL     C15 9582   4.427  -0.021   4.001
    1OL     H5R 9583   4.423  -0.104   4.071
    1OL     H5S 9584   4.344  -0.031   3.931
    1OL     C16 9585   4.405   0.113   4.074
    1OL     H6R 9586   4.318   0.107   4.139
    1OL     H6S 9587   4.384   0.193   4.002
    1OL     C17 9588   4.527   0.152   4.156
    1OL     H7R 9589   4.507   0.246   4.209
    1OL     H7S 9590   4.612   0.168   4.089
    1OL     C18 9591   4.569   0.045   4.255
    1OL     H8R 9592   4.595  -0.046   4.202
    1OL     H8S 9593   4.488   0.021   4.324
    1OL     C19 9594   4.691   0.097   4.327
    1OL     H9R 9595   4.787   0.077   4.280
    1OL    C110 9596   4.683   0.167   4.439
    1OL    H10R 9597   4.775   0.206   4.482
    1OL    C111 9598   4.555   0.204   4.510
    1OL    H11R 9599   4.539   0.138   4.596
    1OL    H11S 9600   4.468   0.193   4.444
    1OL    C112 9601   4.563   0.348   4.559
    1OL    H12R 9602   4.590   0.414   4.477
    1OL    H12S 9603   4.642   0.353   4.635
    1OL    C113 9604   4.433   0.398   4.623
    1OL    H13R 9605   4.449   0.499   4.661
    1OL    H13S 9606   4.411   0.333   4.708
    1OL    C114 9607   4.314   0.400   4.524
    1OL    H14R 9608   4.274   0.299   4.513
    1OL    H14S 9609   4.352   0.430   4.426
    1OL    C115 9610   4.201   0.498   4.562
    1OL    H15R 9611   4.145   0.518   4.471
    1OL    H15S 9612   4.243   0.593   4.595
    1OL    C116 9613   4.101   0.445   4.667
    1OL    H16R 9614   4.065   0.347   4.634
    1OL    H16S 9615   4.014   0.511   4.668
    1OL    C117 9616   4.154   0.433   4.811
    1OL    H17R 9617   4.170   0.533   4.853
    1OL    H17S 9618   4.250   0.382   4.813
    1OL    C118 9619   4.058   0.353   4.900
    1OL    H18R 9620   4.112   0.313   4.986
    1OL    H18S 9621   4.016   0.268   4.845
    1OL    H18T 9622   3.976   0.416   4.936
    1PA    C116 9623   1.050   3.398   5.004
    1PA    H16R 9624   0.969   3.376   4.935
    1PA    H16S 9625   1.010   3.448   5.093
    1PA    H16T 9626   1.097   3.305   5.035
    1PA    C115 9627   1.152   3.491   4.938
    1PA    H15R 9628   1.237   3.506   5.006
    1PA    H15S 9629   1.190   3.440   4.849
    1PA    C114 9630   1.097   3.626   4.891
    1PA    H14R 9631   1.005   3.610   4.834
    1PA    H14S 9632   1.073   3.689   4.977
    1PA    C113 9633   1.203   3.693   4.802
    1PA    H13R 9634   1.291   3.716   4.862
    1PA    H13S 9635   1.233   3.621   4.726
    1PA    C112 9636   1.153   3.820   4.732
    1PA    H12R 9637   1.060   3.799   4.678
    1PA    H12S 9638   1.129   3.895   4.808
    1PA    C111 9639   1.257   3.878   4.635
    1PA    H11R 9640   1.222   3.975   4.599
    1PA    H11S 9641   1.350   3.896   4.690
    1PA    C110 9642   1.290   3.789   4.513
    1PA    H10R 9643   1.369   3.840   4.457
    1PA    H10S 9644   1.332   3.693   4.546
    1PA     C19 9645   1.171   3.762   4.419
    1PA     H9R 9646   1.098   3.700   4.471
    1PA     H9S 9647   1.121   3.857   4.395
    1PA     C18 9648   1.210   3.691   4.288
    1PA     H8R 9649   1.265   3.599   4.312
    1PA     H8S 9650   1.119   3.661   4.236
    1PA     C17 9651   1.295   3.779   4.193
    1PA     H7R 9652   1.234   3.862   4.158
    1PA     H7S 9653   1.378   3.823   4.249
    1PA     C16 9654   1.356   3.705   4.073
    1PA     H6R 9655   1.419   3.774   4.017
    1PA     H6S 9656   1.422   3.626   4.111
    1PA     C15 9657   1.256   3.642   3.976
    1PA     H5R 9658   1.310   3.581   3.904
    1PA     H5S 9659   1.191   3.575   4.032
    1PA     C14 9660   1.172   3.745   3.897
    1PA     H4R 9661   1.115   3.807   3.967
    1PA     H4S 9662   1.239   3.812   3.842
    1PA     C13 9663   1.075   3.679   3.798
    1PA     H3R 9664   1.012   3.757   3.753
    1PA     H3S 9665   1.130   3.631   3.717
    1PA     C12 9666   0.986   3.575   3.868
    1PA     H2R 9667   1.044   3.486   3.892
    1PA     H2S 9668   0.948   3.617   3.962
    1PC     C11 9669   0.869   3.532   3.785
    1PC     O12 9670   0.755   3.558   3.818
    1PC     O11 9671   0.901   3.455   3.680
    1PC      C1 9672   0.791   3.403   3.600
    1PC      HR 9673   0.826   3.310   3.555
    1PC      HS 9674   0.707   3.377   3.666
    1PC      C2 9675   0.743   3.498   3.487
    1PC      HX 9676   0.648   3.460   3.450
    1PC      C3 9677   0.843   3.501   3.370
    1PC      HA 9678   0.883   3.401   3.353
    1PC      HB 9679   0.791   3.534   3.279
    1PC     O31 9680   0.953   3.591   3.391
    1PC     P31 9681   1.067   3.599   3.281
    1PC     O32 9682   0.996   3.685   3.166
    1PC     C31 9683   1.073   3.723   3.051
    1PC     H1A 9684   1.137   3.639   3.022
    1PC     H1B 9685   1.007   3.746   2.968
    1PC     C32 9686   1.160   3.845   3.087
    1PC     H2A 9687   1.233   3.814   3.162
    1PC     H2B 9688   1.215   3.876   2.998
    1PC     N31 9689   1.092   3.968   3.142
    1PC     C33 9690   1.057   3.952   3.287
    1PC     H3A 9691   1.145   3.916   3.341
    1PC     H3B 9692   1.020   4.046   3.326
    1PC     H3C 9693   0.980   3.874   3.294
    1PC     C34 9694   1.187   4.081   3.130
    1PC     H4A 9695   1.197   4.105   3.024
    1PC     H4B 9696   1.146   4.166   3.185
    1PC     H4C 9697   1.282   4.047   3.170
    1PC     C35 9698   0.970   4.005   3.067
    1PC     H5A 9699   0.897   3.925   3.080
    1PC     H5B 9700   0.995   4.014   2.961
    1PC     H5C 9701   0.931   4.099   3.106
    1PC     O33 9702   1.179   3.680   3.330
    1PC     O34 9703   1.086   3.464   3.222
    1PC     O21 9704   0.722   3.631   3.541
    1PC     C21 9705   0.653   3.720   3.468
    1PC     O22 9706   0.609   3.699   3.356
    1OL     C12 9707   0.631   3.853   3.537
    1OL     H2R 9708   0.530   3.853   3.578
    1OL     H2S 9709   0.637   3.931   3.461
    1OL     C13 9710   0.730   3.885   3.650
    1OL     H3R 9711   0.833   3.873   3.613
    1OL     H3S 9712   0.716   3.815   3.732
    1OL     C14 9713   0.711   4.030   3.699
    1OL     H4R 9714   0.609   4.043   3.737
    1OL     H4S 9715   0.722   4.096   3.613
    1OL     C15 9716   0.813   4.071   3.806
    1OL     H5R 9717   0.818   4.180   3.812
    1OL     H5S 9718   0.912   4.038   3.774
    1OL     C16 9719   0.783   4.015   3.947
    1OL     H6R 9720   0.878   4.001   4.000
    1OL     H6S 9721   0.736   3.917   3.939
    1OL     C17 9722   0.696   4.111   4.030
    1OL     H7R 9723   0.598   4.123   3.982
    1OL     H7S 9724   0.743   4.209   4.034
    1OL     C18 9725   0.675   4.061   4.174
    1OL     H8R 9726   0.629   4.142   4.232
    1OL     H8S 9727   0.772   4.039   4.220
    1OL     C19 9728   0.582   3.943   4.174
    1OL     H9R 9729   0.485   3.964   4.131
    1OL    C110 9730   0.604   3.821   4.223
    1OL    H10R 9731   0.525   3.747   4.218
    1OL    C111 9732   0.729   3.773   4.291
    1OL    H11R 9733   0.810   3.847   4.286
    1OL    H11S 9734   0.766   3.681   4.246
    1OL    C112 9735   0.689   3.748   4.436
    1OL    H12R 9736   0.637   3.652   4.443
    1OL    H12S 9737   0.618   3.825   4.466
    1OL    C113 9738   0.806   3.752   4.535
    1OL    H13R 9739   0.877   3.830   4.507
    1OL    H13S 9740   0.860   3.656   4.533
    1OL    C114 9741   0.755   3.781   4.676
    1OL    H14R 9742   0.714   3.882   4.679
    1OL    H14S 9743   0.839   3.778   4.745
    1OL    C115 9744   0.645   3.682   4.719
    1OL    H15R 9745   0.681   3.580   4.707
    1OL    H15S 9746   0.556   3.693   4.657
    1OL    C116 9747   0.603   3.704   4.865
    1OL    H16R 9748   0.526   3.630   4.889
    1OL    H16S 9749   0.557   3.803   4.876
    1OL    C117 9750   0.721   3.691   4.962
    1OL    H17R 9751   0.787   3.777   4.953
    1OL    H17S 9752   0.780   3.602   4.938
    1OL    C118 9753   0.670   3.683   5.104
    1OL    H18R 9754   0.753   3.677   5.175
    1OL    H18S 9755   0.604   3.597   5.118
    1OL    H18T 9756   0.611   3.773   5.125
    1PA    C116 9757   0.802   1.417   5.071
    1PA    H16R 9758   0.888   1.387   5.132
    1PA    H16S 9759   0.713   1.377   5.120
    1PA    H16T 9760   0.796   1.526   5.069
    1PA    C115 9761   0.814   1.360   4.929
    1PA    H15R 9762   0.723   1.382   4.873
    1PA    H15S 9763   0.897   1.408   4.877
    1PA    C114 9764   0.836   1.209   4.937
    1PA    H14R 9765   0.924   1.187   4.998
    1PA    H14S 9766   0.749   1.165   4.988
    1PA    C113 9767   0.856   1.139   4.803
    1PA    H13R 9768   0.950   1.173   4.759
    1PA    H13S 9769   0.868   1.031   4.821
    1PA    C112 9770   0.742   1.163   4.703
    1PA    H12R 9771   0.646   1.148   4.752
    1PA    H12S 9772   0.743   1.267   4.669
    1PA    C111 9773   0.752   1.068   4.584
    1PA    H11R 9774   0.741   0.965   4.619
    1PA    H11S 9775   0.670   1.088   4.515
    1PA    C110 9776   0.886   1.081   4.510
    1PA    H10R 9777   0.967   1.040   4.571
    1PA    H10S 9778   0.878   1.018   4.421
    1PA     C19 9779   0.917   1.228   4.474
    1PA     H9R 9780   0.827   1.275   4.435
    1PA     H9S 9781   0.943   1.284   4.564
    1PA     C18 9782   1.032   1.241   4.374
    1PA     H8R 9783   1.039   1.345   4.342
    1PA     H8S 9784   1.125   1.216   4.426
    1PA     C17 9785   1.018   1.149   4.251
    1PA     H7R 9786   1.101   1.168   4.183
    1PA     H7S 9787   1.026   1.044   4.281
    1PA     C16 9788   0.886   1.174   4.176
    1PA     H6R 9789   0.807   1.213   4.240
    1PA     H6S 9790   0.911   1.251   4.103
    1PA     C15 9791   0.828   1.051   4.103
    1PA     H5R 9792   0.912   0.997   4.060
    1PA     H5S 9793   0.778   0.983   4.172
    1PA     C14 9794   0.735   1.087   3.985
    1PA     H4R 9795   0.796   1.164   3.936
    1PA     H4S 9796   0.732   1.000   3.920
    1PA     C13 9797   0.592   1.147   3.991
    1PA     H3R 9798   0.531   1.069   4.037
    1PA     H3S 9799   0.578   1.232   4.058
    1PA     C12 9800   0.528   1.170   3.850
    1PA     H2R 9801   0.575   1.098   3.783
    1PA     H2S 9802   0.430   1.128   3.869
    1PC     C11 9803   0.499   1.305   3.774
    1PC     O12 9804   0.389   1.357   3.776
    1PC     O11 9805   0.598   1.361   3.699
    1PC      C1 9806   0.581   1.460   3.588
    1PC      HR 9807   0.502   1.424   3.522
    1PC      HS 9808   0.545   1.552   3.633
    1PC      C2 9809   0.712   1.496   3.503
    1PC      HX 9810   0.685   1.580   3.438
    1PC      C3 9811   0.778   1.385   3.412
    1PC      HA 9812   0.726   1.290   3.424
    1PC      HB 9813   0.764   1.415   3.308
    1PC     O31 9814   0.922   1.364   3.433
    1PC     P31 9815   1.002   1.238   3.372
    1PC     O32 9816   0.991   1.256   3.213
    1PC     C31 9817   1.110   1.263   3.132
    1PC     H1A 9818   1.082   1.294   3.031
    1PC     H1B 9819   1.177   1.338   3.174
    1PC     C32 9820   1.179   1.124   3.128
    1PC     H2A 9821   1.273   1.133   3.073
    1PC     H2B 9822   1.202   1.096   3.231
    1PC     N31 9823   1.105   1.007   3.067
    1PC     C33 9824   0.998   0.957   3.158
    1PC     H3A 9825   1.040   0.937   3.256
    1PC     H3B 9826   0.923   1.036   3.170
    1PC     H3C 9827   0.952   0.868   3.115
    1PC     C34 9828   1.045   1.042   2.935
    1PC     H4A 9829   0.969   1.118   2.953
    1PC     H4B 9830   1.123   1.080   2.869
    1PC     H4C 9831   0.999   0.952   2.893
    1PC     C35 9832   1.201   0.894   3.044
    1PC     H5A 9833   1.146   0.812   2.998
    1PC     H5B 9834   1.242   0.863   3.140
    1PC     H5C 9835   1.280   0.929   2.977
    1PC     O33 9836   1.146   1.251   3.405
    1PC     O34 9837   0.935   1.110   3.400
    1PC     O21 9838   0.807   1.547   3.598
    1PC     C21 9839   0.920   1.614   3.574
    1PC     O22 9840   0.959   1.656   3.467
    1OL     C12 9841   0.991   1.624   3.708
    1OL     H2R 9842   1.016   1.520   3.732
    1OL     H2S 9843   0.920   1.661   3.782
    1OL     C13 9844   1.122   1.700   3.722
    1OL     H3R 9845   1.106   1.808   3.712
    1OL     H3S 9846   1.187   1.667   3.641
    1OL     C14 9847   1.189   1.675   3.859
    1OL     H4R 9848   1.125   1.714   3.939
    1OL     H4S 9849   1.282   1.732   3.862
    1OL     C15 9850   1.219   1.526   3.888
    1OL     H5R 9851   1.228   1.472   3.794
    1OL     H5S 9852   1.136   1.481   3.942
    1OL     C16 9853   1.350   1.507   3.967
    1OL     H6R 9854   1.431   1.554   3.911
    1OL     H6S 9855   1.373   1.401   3.972
    1OL     C17 9856   1.346   1.567   4.108
    1OL     H7R 9857   1.307   1.669   4.102
    1OL     H7S 9858   1.449   1.575   4.145
    1OL     C18 9859   1.264   1.489   4.212
    1OL     H8R 9860   1.160   1.485   4.179
    1OL     H8S 9861   1.267   1.542   4.307
    1OL     C19 9862   1.318   1.348   4.226
    1OL     H9R 9863   1.318   1.291   4.134
    1OL    C110 9864   1.361   1.290   4.337
    1OL    H10R 9865   1.392   1.186   4.332
    1OL    C111 9866   1.367   1.348   4.476
    1OL    H11R 9867   1.279   1.411   4.494
    1OL    H11S 9868   1.456   1.409   4.488
    1OL    C112 9869   1.372   1.230   4.575
    1OL    H12R 9870   1.471   1.184   4.569
    1OL    H12S 9871   1.300   1.153   4.547
    1OL    C113 9872   1.346   1.273   4.720
    1OL    H13R 9873   1.411   1.357   4.744
    1OL    H13S 9874   1.372   1.190   4.787
    1OL    C114 9875   1.199   1.312   4.744
    1OL    H14R 9876   1.147   1.225   4.786
    1OL    H14S 9877   1.151   1.333   4.648
    1OL    C115 9878   1.177   1.435   4.835
    1OL    H15R 9879   1.087   1.486   4.802
    1OL    H15S 9880   1.259   1.506   4.824
    1OL    C116 9881   1.160   1.394   4.983
    1OL    H16R 9882   1.250   1.343   5.018
    1OL    H16S 9883   1.080   1.320   4.989
    1OL    C117 9884   1.126   1.508   5.081
    1OL    H17R 9885   1.081   1.465   5.170
    1OL    H17S 9886   1.051   1.573   5.036
    1OL    C118 9887   1.246   1.592   5.127
    1OL    H18R 9888   1.298   1.637   5.043
    1OL    H18S 9889   1.315   1.530   5.183
    1OL    H18T 9890   1.213   1.672   5.194
    1PA    C116 9891   0.541   2.932   5.273
    1PA    H16R 9892   0.556   2.897   5.171
    1PA    H16S 9893   0.453   2.997   5.274
    1PA    H16T 9894   0.522   2.846   5.337
    1PA    C115 9895   0.663   3.008   5.324
    1PA    H15R 9896   0.641   3.115   5.317
    1PA    H15S 9897   0.677   2.987   5.430
    1PA    C114 9898   0.793   2.978   5.246
    1PA    H14R 9899   0.777   2.995   5.140
    1PA    H14S 9900   0.868   3.050   5.278
    1PA    C113 9901   0.848   2.835   5.270
    1PA    H13R 9902   0.957   2.841   5.277
    1PA    H13S 9903   0.812   2.799   5.367
    1PA    C112 9904   0.813   2.730   5.163
    1PA    H12R 9905   0.834   2.632   5.205
    1PA    H12S 9906   0.706   2.733   5.140
    1PA    C111 9907   0.895   2.745   5.032
    1PA    H11R 9908   0.862   2.834   4.977
    1PA    H11S 9909   0.999   2.762   5.059
    1PA    C110 9910   0.889   2.620   4.942
    1PA    H10R 9911   0.951   2.638   4.854
    1PA    H10S 9912   0.938   2.539   4.998
    1PA     C19 9913   0.751   2.569   4.897
    1PA     H9R 9914   0.761   2.463   4.873
    1PA     H9S 9915   0.680   2.573   4.980
    1PA     C18 9916   0.692   2.640   4.773
    1PA     H8R 9917   0.658   2.740   4.802
    1PA     H8S 9918   0.770   2.652   4.698
    1PA     C17 9919   0.574   2.562   4.711
    1PA     H7R 9920   0.610   2.466   4.674
    1PA     H7S 9921   0.501   2.539   4.790
    1PA     C16 9922   0.498   2.635   4.598
    1PA     H6R 9923   0.417   2.570   4.564
    1PA     H6S 9924   0.450   2.724   4.638
    1PA     C15 9925   0.582   2.678   4.476
    1PA     H5R 9926   0.522   2.747   4.416
    1PA     H5S 9927   0.671   2.732   4.509
    1PA     C14 9928   0.622   2.557   4.388
    1PA     H4R 9929   0.676   2.485   4.450
    1PA     H4S 9930   0.531   2.508   4.354
    1PA     C13 9931   0.709   2.592   4.266
    1PA     H3R 9932   0.808   2.622   4.299
    1PA     H3S 9933   0.721   2.500   4.207
    1PA     C12 9934   0.649   2.702   4.176
    1PA     H2R 9935   0.542   2.685   4.161
    1PA     H2S 9936   0.660   2.799   4.224
    1PC     C11 9937   0.713   2.708   4.039
    1PC     O12 9938   0.759   2.612   3.979
    1PC     O11 9939   0.717   2.833   3.989
    1PC      C1 9940   0.755   2.849   3.850
    1PC      HR 9941   0.777   2.955   3.833
    1PC      HS 9942   0.846   2.792   3.830
    1PC      C2 9943   0.643   2.806   3.751
    1PC      HX 9944   0.608   2.705   3.773
    1PC      C3 9945   0.700   2.807   3.606
    1PC      HA 9946   0.762   2.896   3.593
    1PC      HB 9947   0.761   2.718   3.589
    1PC     O31 9948   0.594   2.812   3.507
    1PC     P31 9949   0.627   2.835   3.353
    1PC     O32 9950   0.664   2.990   3.349
    1PC     C31 9951   0.561   3.090   3.356
    1PC     H1A 9952   0.471   3.057   3.303
    1PC     H1B 9953   0.536   3.105   3.462
    1PC     C32 9954   0.618   3.218   3.293
    1PC     H2A 9955   0.554   3.303   3.318
    1PC     H2B 9956   0.718   3.235   3.333
    1PC     N31 9957   0.633   3.222   3.143
    1PC     C33 9958   0.500   3.216   3.075
    1PC     H3A 9959   0.516   3.230   2.968
    1PC     H3B 9960   0.455   3.118   3.094
    1PC     H3C 9961   0.437   3.296   3.113
    1PC     C34 9962   0.698   3.350   3.104
    1PC     H4A 9963   0.638   3.434   3.138
    1PC     H4B 9964   0.799   3.353   3.146
    1PC     H4C 9965   0.705   3.352   2.995
    1PC     C35 9966   0.718   3.110   3.091
    1PC     H5A 9967   0.817   3.118   3.137
    1PC     H5B 9968   0.725   3.118   2.983
    1PC     H5C 9969   0.672   3.015   3.120
    1PC     O33 9970   0.747   2.757   3.319
    1PC     O34 9971   0.501   2.817   3.277
    1PC     O21 9972   0.530   2.897   3.755
    1PC     C21 9973   0.431   2.875   3.844
    1PC     O22 9974   0.441   2.805   3.944
    1OL     C12 9975   0.308   2.955   3.809
    1OL     H2R 9976   0.220   2.890   3.812
    1OL     H2S 9977   0.318   2.992   3.707
    1OL     C13 9978   0.285   3.071   3.906
    1OL     H3R 9979   0.253   3.031   4.002
    1OL     H3S 9980   0.204   3.133   3.868
    1OL     C14 9981   0.411   3.158   3.924
    1OL     H4R 9982   0.389   3.259   3.889
    1OL     H4S 9983   0.495   3.122   3.864
    1OL     C15 9984   0.454   3.167   4.071
    1OL     H5R 9985   0.437   3.071   4.121
    1OL     H5S 9986   0.389   3.242   4.119
    1OL     C16 9987   0.600   3.209   4.092
    1OL     H6R 9988   0.630   3.281   4.015
    1OL     H6S 9989   0.665   3.122   4.082
    1OL     C17 9990   0.618   3.275   4.230
    1OL     H7R 9991   0.558   3.366   4.234
    1OL     H7S 9992   0.722   3.305   4.242
    1OL     C18 9993   0.578   3.184   4.349
    1OL     H8R 9994   0.476   3.147   4.335
    1OL     H8S 9995   0.575   3.245   4.440
    1OL     C19 9996   0.673   3.068   4.364
    1OL     H9R 9997   0.660   2.988   4.292
    1OL    C110 9998   0.768   3.059   4.457
    1OL    H10R 9999   0.832   2.971   4.460
    1OL    C11110000   0.797   3.164   4.561
    1OL    H11R10001   0.782   3.264   4.520
    1OL    H11S10002   0.902   3.159   4.590
    1OL    C11210003   0.710   3.148   4.687
    1OL    H12R10004   0.606   3.173   4.663
    1OL    H12S10005   0.745   3.222   4.760
    1OL    C11310006   0.716   3.008   4.751
    1OL    H13R10007   0.821   2.980   4.763
    1OL    H13S10008   0.671   2.935   4.684
    1OL    C11410009   0.648   3.001   4.890
    1OL    H14R10010   0.694   3.077   4.954
    1OL    H14S10011   0.672   2.905   4.935
    1OL    C11510012   0.495   3.017   4.895
    1OL    H15R10013   0.466   3.118   4.865
    1OL    H15S10014   0.463   3.004   4.998
    1OL    C11610015   0.417   2.920   4.807
    1OL    H16R10016   0.450   2.818   4.829
    1OL    H16S10017   0.438   2.940   4.701
    1OL    C11710018   0.266   2.932   4.832
    1OL    H17R10019   0.233   3.029   4.795
    1OL    H17S10020   0.245   2.928   4.939
    1OL    C11810021   0.184   2.823   4.761
    1OL    H18R10022   0.196   2.832   4.653
    1OL    H18S10023   0.078   2.834   4.786
    1OL    H18T10024   0.217   2.724   4.792
    1PA    C11610025   1.525   4.285   4.906
    1PA    H16R10026   1.593   4.217   4.854
    1PA    H16S10027   1.435   4.229   4.933
    1PA    H16T10028   1.573   4.319   4.997
    1PA    C11510029   1.490   4.406   4.818
    1PA    H15R10030   1.430   4.475   4.877
    1PA    H15S10031   1.582   4.458   4.791
    1PA    C11410032   1.411   4.368   4.691
    1PA    H14R10033   1.317   4.320   4.721
    1PA    H14S10034   1.383   4.460   4.639
    1PA    C11310035   1.485   4.276   4.592
    1PA    H13R10036   1.501   4.178   4.638
    1PA    H13S10037   1.420   4.260   4.505
    1PA    C11210038   1.620   4.333   4.545
    1PA    H12R10039   1.608   4.436   4.514
    1PA    H12S10040   1.689   4.333   4.630
    1PA    C11110041   1.685   4.252   4.431
    1PA    H11R10042   1.790   4.280   4.427
    1PA    H11S10043   1.680   4.146   4.454
    1PA    C11010044   1.620   4.278   4.293
    1PA    H10R10045   1.514   4.255   4.298
    1PA    H10S10046   1.629   4.384   4.268
    1PA     C1910047   1.683   4.194   4.180
    1PA     H9R10048   1.676   4.089   4.208
    1PA     H9S10049   1.624   4.206   4.089
    1PA     C1810050   1.830   4.229   4.149
    1PA     H8R10051   1.835   4.324   4.094
    1PA     H8S10052   1.885   4.244   4.242
    1PA     C1710053   1.904   4.119   4.071
    1PA     H7R10054   1.996   4.094   4.125
    1PA     H7S10055   1.843   4.029   4.069
    1PA     C1610056   1.942   4.152   3.925
    1PA     H6R10057   1.979   4.254   3.918
    1PA     H6S10058   2.022   4.085   3.895
    1PA     C1510059   1.823   4.130   3.830
    1PA     H5R10060   1.784   4.029   3.844
    1PA     H5S10061   1.741   4.199   3.855
    1PA     C1410062   1.863   4.146   3.683
    1PA     H4R10063   1.967   4.115   3.668
    1PA     H4S10064   1.802   4.076   3.626
    1PA     C1310065   1.842   4.290   3.631
    1PA     H3R10066   1.742   4.323   3.660
    1PA     H3S10067   1.913   4.357   3.680
    1PA     C1210068   1.856   4.304   3.477
    1PA     H2R10069   1.829   4.405   3.447
    1PA     H2S10070   1.960   4.286   3.448
    1PC     C1110071   1.768   4.206   3.403
    1PC     O1210072   1.806   4.145   3.305
    1PC     O1110073   1.651   4.182   3.463
    1PC      C110074   1.558   4.088   3.402
    1PC      HR10075   1.604   4.031   3.320
    1PC      HS10076   1.527   4.017   3.478
    1PC      C210077   1.435   4.166   3.350
    1PC      HX10078   1.352   4.096   3.340
    1PC      C310079   1.462   4.233   3.213
    1PC      HA10080   1.493   4.158   3.140
    1PC      HB10081   1.370   4.279   3.177
    1PC     O3110082   1.566   4.334   3.218
    1PC     P3110083   1.591   4.429   3.091
    1PC     O3210084   1.531   4.568   3.141
    1PC     C3110085   1.395   4.577   3.185
    1PC     H1A10086   1.352   4.671   3.148
    1PC     H1B10087   1.336   4.494   3.145
    1PC     C3210088   1.398   4.574   3.339
    1PC     H2A10089   1.297   4.563   3.377
    1PC     H2B10090   1.457   4.488   3.370
    1PC     N3110091   1.458   4.694   3.409
    1PC     C3310092   1.602   4.717   3.372
    1PC     H3A10093   1.657   4.624   3.390
    1PC     H3B10094   1.607   4.739   3.266
    1PC     H3C10095   1.643   4.799   3.431
    1PC     C3410096   1.379   4.816   3.376
    1PC     H4A10097   1.389   4.833   3.269
    1PC     H4B10098   1.275   4.797   3.401
    1PC     H4C10099   1.419   4.900   3.433
    1PC     C3510100   1.452   4.674   3.556
    1PC     H5A10101   1.350   4.650   3.584
    1PC     H5B10102   1.485   4.766   3.606
    1PC     H5C10103   1.519   4.592   3.581
    1PC     O3310104   1.736   4.445   3.073
    1PC     O3410105   1.503   4.381   2.981
    1PC     O2110106   1.396   4.270   3.444
    1PC     C2110107   1.363   4.230   3.568
    1PC     O2210108   1.336   4.116   3.598
    1OL     C1210109   1.365   4.344   3.665
    1OL     H2R10110   1.429   4.422   3.624
    1OL     H2S10111   1.413   4.311   3.758
    1OL     C1310112   1.224   4.400   3.690
    1OL     H3R10113   1.177   4.424   3.595
    1OL     H3S10114   1.233   4.493   3.746
    1OL     C1410115   1.133   4.303   3.769
    1OL     H4R10116   1.115   4.212   3.711
    1OL     H4S10117   1.036   4.351   3.784
    1OL     C1510118   1.193   4.267   3.906
    1OL     H5R10119   1.222   4.359   3.956
    1OL     H5S10120   1.284   4.207   3.892
    1OL     C1610121   1.096   4.188   3.995
    1OL     H6R10122   1.070   4.095   3.944
    1OL     H6S10123   1.004   4.246   4.008
    1OL     C1710124   1.155   4.154   4.133
    1OL     H7R10125   1.238   4.084   4.119
    1OL     H7S10126   1.079   4.101   4.191
    1OL     C1810127   1.205   4.274   4.215
    1OL     H8R10128   1.293   4.318   4.167
    1OL     H8S10129   1.238   4.237   4.313
    1OL     C1910130   1.096   4.378   4.237
    1OL     H9R10131   1.002   4.338   4.274
    1OL    C11010132   1.106   4.508   4.214
    1OL    H10R10133   1.020   4.571   4.234
    1OL    C11110134   1.228   4.582   4.162
    1OL    H11R10135   1.195   4.672   4.109
    1OL    H11S10136   1.283   4.522   4.089
    1OL    C11210137   1.326   4.625   4.274
    1OL    H12R10138   1.405   4.687   4.231
    1OL    H12S10139   1.373   4.536   4.317
    1OL    C11310140   1.255   4.703   4.387
    1OL    H13R10141   1.184   4.635   4.434
    1OL    H13S10142   1.199   4.786   4.345
    1OL    C11410143   1.349   4.755   4.497
    1OL    H14R10144   1.421   4.826   4.456
    1OL    H14S10145   1.405   4.671   4.538
    1OL    C11510146   1.266   4.821   4.609
    1OL    H15R10147   1.176   4.761   4.625
    1OL    H15S10148   1.232   4.919   4.577
    1OL    C11610149   1.339   4.832   4.744
    1OL    H16R10150   1.411   4.915   4.740
    1OL    H16S10151   1.395   4.740   4.763
    1OL    C11710152   1.239   4.854   4.859
    1OL    H17R10153   1.170   4.769   4.863
    1OL    H17S10154   1.180   4.944   4.840
    1OL    C11810155   1.309   4.866   4.995
    1OL    H18R10156   1.369   4.777   5.016
    1OL    H18S10157   1.235   4.877   5.075
    1OL    H18T10158   1.374   4.954   4.996
    1PA    C11610159   5.073   4.464   5.192
    1PA    H16R10160   5.078   4.355   5.186
    1PA    H16S10161   4.982   4.492   5.244
    1PA    H16T10162   5.159   4.498   5.249
    1PA    C11510163   5.075   4.524   5.051
    1PA    H15R10164   4.975   4.522   5.008
    1PA    H15S10165   5.105   4.629   5.056
    1PA    C11410166   5.172   4.447   4.960
    1PA    H14R10167   5.273   4.460   5.000
    1PA    H14S10168   5.149   4.341   4.964
    1PA    C11310169   5.170   4.495   4.814
    1PA    H13R10170   5.174   4.604   4.813
    1PA    H13S10171   5.260   4.458   4.766
    1PA    C11210172   5.047   4.448   4.733
    1PA    H12R10173   5.022   4.346   4.764
    1PA    H12S10174   4.961   4.511   4.755
    1PA    C11110175   5.075   4.445   4.582
    1PA    H11R10176   5.167   4.388   4.568
    1PA    H11S10177   4.995   4.391   4.531
    1PA    C11010178   5.091   4.584   4.516
    1PA    H10R10179   5.001   4.611   4.461
    1PA    H10S10180   5.100   4.655   4.598
    1PA     C1910181   5.217   4.602   4.427
    1PA     H9R10182   5.253   4.703   4.445
    1PA     H9S10183   5.295   4.534   4.461
    1PA     C1810184   5.208   4.588   4.275
    1PA     H8R10185   5.188   4.483   4.251
    1PA     H8S10186   5.126   4.649   4.236
    1PA     C1710187   5.342   4.632   4.212
    1PA     H7R10188   5.360   4.738   4.231
    1PA     H7S10189   5.424   4.579   4.262
    1PA     C1610190   5.354   4.607   4.061
    1PA     H6R10191   5.277   4.662   4.007
    1PA     H6S10192   5.451   4.643   4.027
    1PA     C1510193   5.340   4.457   4.031
    1PA     H5R10194   5.372   4.400   4.119
    1PA     H5S10195   5.235   4.434   4.014
    1PA     C1410196   5.423   4.410   3.911
    1PA     H4R10197   5.393   4.464   3.821
    1PA     H4S10198   5.529   4.431   3.930
    1PA     C1310199   5.402   4.259   3.891
    1PA     H3R10200   5.415   4.206   3.986
    1PA     H3S10201   5.299   4.242   3.858
    1PA     C1210202   5.500   4.200   3.787
    1PA     H2R10203   5.515   4.272   3.707
    1PA     H2S10204   5.597   4.180   3.833
    1PC     C1110205   5.445   4.073   3.728
    1PC     O1210206   5.385   3.988   3.791
    1PC     O1110207   5.468   4.063   3.596
    1PC      C110208   5.353   4.030   3.514
    1PC      HR10209   5.387   3.966   3.431
    1PC      HS10210   5.279   3.973   3.571
    1PC      C210211   5.291   4.159   3.454
    1PC      HX10212   5.207   4.127   3.392
    1PC      C310213   5.394   4.236   3.367
    1PC      HA10214   5.493   4.190   3.375
    1PC      HB10215   5.362   4.234   3.263
    1PC     O3110216   5.408   4.374   3.408
    1PC     P3110217   5.495   4.478   3.322
    1PC     O3210218   5.387   4.528   3.215
    1PC     C3110219   5.265   4.590   3.258
    1PC     H1A10220   5.264   4.598   3.367
    1PC     H1B10221   5.258   4.691   3.217
    1PC     C3210222   5.148   4.501   3.211
    1PC     H2A10223   5.170   4.399   3.244
    1PC     H2B10224   5.056   4.532   3.261
    1PC     N3110225   5.117   4.490   3.064
    1PC     C3310226   5.066   4.620   3.012
    1PC     H3A10227   5.144   4.696   3.027
    1PC     H3B10228   5.044   4.609   2.906
    1PC     H3C10229   4.976   4.647   3.067
    1PC     C3410230   5.237   4.449   2.984
    1PC     H4A10231   5.273   4.353   3.022
    1PC     H4B10232   5.209   4.441   2.879
    1PC     H4C10233   5.315   4.524   2.998
    1PC     C3510234   5.012   4.386   3.043
    1PC     H5A10235   4.921   4.414   3.097
    1PC     H5B10236   5.049   4.291   3.081
    1PC     H5C10237   4.991   4.376   2.936
    1PC     O3310238   5.533   4.592   3.407
    1PC     O3410239   5.600   4.403   3.250
    1PC     O2110240   5.241   4.241   3.563
    1PC     C2110241   5.131   4.314   3.542
    1PC     O2210242   5.077   4.331   3.433
    1OL     C1210243   5.071   4.366   3.669
    1OL     H2R10244   5.146   4.354   3.748
    1OL     H2S10245   4.986   4.303   3.695
    1OL     C1310246   5.029   4.515   3.662
    1OL     H3R10247   4.977   4.534   3.568
    1OL     H3S10248   5.119   4.576   3.661
    1OL     C1410249   4.937   4.560   3.777
    1OL     H4R10250   4.833   4.559   3.743
    1OL     H4S10251   4.961   4.663   3.802
    1OL     C1510252   4.946   4.472   3.904
    1OL     H5R10253   5.045   4.428   3.913
    1OL     H5S10254   4.874   4.391   3.896
    1OL     C1610255   4.922   4.549   4.034
    1OL     H6R10256   4.834   4.613   4.023
    1OL     H6S10257   5.008   4.615   4.051
    1OL     C1710258   4.903   4.457   4.156
    1OL     H7R10259   4.797   4.429   4.160
    1OL     H7S10260   4.924   4.515   4.246
    1OL     C1810261   4.985   4.327   4.158
    1OL     H8R10262   5.090   4.345   4.134
    1OL     H8S10263   4.944   4.260   4.082
    1OL     C1910264   4.970   4.262   4.293
    1OL     H9R10265   4.875   4.284   4.342
    1OL    C11010266   5.061   4.191   4.360
    1OL    H10R10267   5.036   4.155   4.459
    1OL    C11110268   5.201   4.157   4.316
    1OL    H11R10269   5.220   4.187   4.213
    1OL    H11S10270   5.217   4.049   4.325
    1OL    C11210271   5.298   4.229   4.411
    1OL    H12R10272   5.273   4.202   4.514
    1OL    H12S10273   5.282   4.336   4.398
    1OL    C11310274   5.447   4.201   4.387
    1OL    H13R10275   5.470   4.216   4.282
    1OL    H13S10276   5.469   4.097   4.412
    1OL    C11410277   5.534   4.297   4.471
    1OL    H14R10278   5.512   4.400   4.441
    1OL    H14S10279   5.639   4.279   4.446
    1OL    C11510280   5.516   4.287   4.624
    1OL    H15R10281   5.413   4.309   4.652
    1OL    H15S10282   5.578   4.363   4.671
    1OL    C11610283   5.556   4.149   4.680
    1OL    H16R10284   5.647   4.116   4.629
    1OL    H16S10285   5.478   4.076   4.658
    1OL    C11710286   5.585   4.150   4.832
    1OL    H17R10287   5.671   4.215   4.851
    1OL    H17S10288   5.615   4.049   4.863
    1OL    C11810289   5.467   4.195   4.919
    1OL    H18R10290   5.380   4.132   4.900
    1OL    H18S10291   5.441   4.299   4.898
    1OL    H18T10292   5.493   4.187   5.024
    1PA    C11610293   2.601   5.246   4.765
    1PA    H16R10294   2.531   5.328   4.752
    1PA    H16S10295   2.563   5.178   4.842
    1PA    H16T10296   2.606   5.192   4.670
    1PA    C11510297   2.738   5.301   4.806
    1PA    H15R10298   2.762   5.389   4.745
    1PA    H15S10299   2.732   5.337   4.909
    1PA    C11410300   2.849   5.197   4.787
    1PA    H14R10301   2.935   5.222   4.849
    1PA    H14S10302   2.813   5.098   4.816
    1PA    C11310303   2.889   5.200   4.638
    1PA    H13R10304   2.799   5.190   4.577
    1PA    H13S10305   2.932   5.298   4.616
    1PA    C11210306   2.988   5.093   4.595
    1PA    H12R10307   3.088   5.116   4.634
    1PA    H12S10308   2.958   4.996   4.636
    1PA    C11110309   2.990   5.085   4.442
    1PA    H11R10310   3.057   5.005   4.410
    1PA    H11S10311   2.890   5.055   4.408
    1PA    C11010312   3.030   5.215   4.370
    1PA    H10R10313   2.964   5.297   4.399
    1PA    H10S10314   3.132   5.242   4.398
    1PA     C1910315   3.019   5.194   4.219
    1PA     H9R10316   3.073   5.104   4.190
    1PA     H9S10317   2.915   5.172   4.193
    1PA     C1810318   3.068   5.309   4.130
    1PA     H8R10319   3.074   5.269   4.029
    1PA     H8S10320   2.993   5.388   4.131
    1PA     C1710321   3.205   5.372   4.163
    1PA     H7R10322   3.194   5.441   4.247
    1PA     H7S10323   3.276   5.294   4.193
    1PA     C1610324   3.262   5.447   4.040
    1PA     H6R10325   3.348   5.506   4.072
    1PA     H6S10326   3.299   5.373   3.968
    1PA     C1510327   3.158   5.537   3.971
    1PA     H5R10328   3.079   5.476   3.927
    1PA     H5S10329   3.111   5.601   4.047
    1PA     C1410330   3.215   5.627   3.860
    1PA     H4R10331   3.134   5.691   3.823
    1PA     H4S10332   3.290   5.693   3.905
    1PA     C1310333   3.281   5.557   3.741
    1PA     H3R10334   3.320   5.634   3.675
    1PA     H3S10335   3.367   5.501   3.777
    1PA     C1210336   3.186   5.467   3.658
    1PA     H2R10337   3.082   5.484   3.686
    1PA     H2S10338   3.195   5.495   3.552
    1PC     C1110339   3.217   5.320   3.669
    1PC     O1210340   3.325   5.276   3.700
    1PC     O1110341   3.112   5.242   3.637
    1PC      C110342   3.139   5.099   3.643
    1PC      HR10343   3.215   5.073   3.569
    1PC      HS10344   3.179   5.076   3.742
    1PC      C210345   3.012   5.012   3.623
    1PC      HX10346   3.029   4.916   3.672
    1PC      C310347   2.981   4.981   3.474
    1PC      HA10348   3.062   4.921   3.432
    1PC      HB10349   2.889   4.923   3.469
    1PC     O3110350   2.965   5.099   3.392
    1PC     P3110351   3.069   5.139   3.278
    1PC     O3210352   3.018   5.281   3.233
    1PC     C3110353   3.032   5.392   3.324
    1PC     H1A10354   2.969   5.377   3.412
    1PC     H1B10355   3.136   5.399   3.355
    1PC     C3210356   2.993   5.518   3.246
    1PC     H2A10357   3.025   5.607   3.301
    1PC     H2B10358   3.046   5.517   3.150
    1PC     N3110359   2.848   5.539   3.212
    1PC     C3310360   2.841   5.656   3.122
    1PC     H3A10361   2.884   5.742   3.172
    1PC     H3B10362   2.895   5.633   3.030
    1PC     H3C10363   2.737   5.677   3.099
    1PC     C3410364   2.785   5.424   3.141
    1PC     H4A10365   2.844   5.405   3.051
    1PC     H4B10366   2.789   5.336   3.206
    1PC     H4C10367   2.682   5.448   3.115
    1PC     C3510368   2.770   5.571   3.335
    1PC     H5A10369   2.771   5.484   3.400
    1PC     H5B10370   2.668   5.596   3.304
    1PC     H5C10371   2.817   5.657   3.382
    1PC     O3310372   3.203   5.160   3.335
    1PC     O3410373   3.056   5.047   3.163
    1PC     O2110374   2.897   5.076   3.685
    1PC     C2110375   2.898   5.090   3.819
    1PC     O2210376   2.982   5.041   3.892
    1OL     C1210377   2.780   5.166   3.873
    1OL     H2R10378   2.755   5.121   3.969
    1OL     H2S10379   2.696   5.149   3.805
    1OL     C1310380   2.807   5.318   3.889
    1OL     H3R10381   2.813   5.363   3.790
    1OL     H3S10382   2.905   5.331   3.933
    1OL     C1410383   2.705   5.397   3.974
    1OL     H4R10384   2.614   5.414   3.916
    1OL     H4S10385   2.747   5.496   3.995
    1OL     C1510386   2.666   5.329   4.108
    1OL     H5R10387   2.757   5.301   4.161
    1OL     H5S10388   2.612   5.237   4.084
    1OL     C1610389   2.577   5.410   4.204
    1OL     H6R10390   2.534   5.341   4.277
    1OL     H6S10391   2.494   5.453   4.148
    1OL     C1710392   2.653   5.520   4.280
    1OL     H7R10393   2.688   5.594   4.207
    1OL     H7S10394   2.741   5.478   4.328
    1OL     C1810395   2.566   5.592   4.385
    1OL     H8R10396   2.464   5.602   4.347
    1OL     H8S10397   2.604   5.694   4.396
    1OL     C1910398   2.564   5.525   4.521
    1OL     H9R10399   2.503   5.436   4.525
    1OL    C11010400   2.626   5.566   4.632
    1OL    H10R10401   2.609   5.510   4.723
    1OL    C11110402   2.715   5.687   4.653
    1OL    H11R10403   2.734   5.699   4.760
    1OL    H11S10404   2.658   5.777   4.626
    1OL    C11210405   2.851   5.681   4.578
    1OL    H12R10406   2.889   5.783   4.566
    1OL    H12S10407   2.835   5.642   4.478
    1OL    C11310408   2.962   5.599   4.647
    1OL    H13R10409   3.042   5.581   4.575
    1OL    H13S10410   2.921   5.502   4.676
    1OL    C11410411   3.022   5.669   4.771
    1OL    H14R10412   2.942   5.695   4.840
    1OL    H14S10413   3.070   5.762   4.739
    1OL    C11510414   3.127   5.587   4.847
    1OL    H15R10415   3.154   5.642   4.937
    1OL    H15S10416   3.217   5.578   4.786
    1OL    C11610417   3.078   5.446   4.885
    1OL    H16R10418   3.087   5.382   4.797
    1OL    H16S10419   2.972   5.450   4.912
    1OL    C11710420   3.157   5.383   5.001
    1OL    H17R10421   3.263   5.409   4.992
    1OL    H17S10422   3.150   5.274   4.996
    1OL    C11810423   3.103   5.429   5.137
    1OL    H18R10424   3.047   5.522   5.129
    1OL    H18S10425   3.186   5.444   5.208
    1OL    H18T10426   3.037   5.353   5.179
    1PA    C11610427   3.668   5.173   4.945
    1PA    H16R10428   3.634   5.126   5.038
    1PA    H16S10429   3.646   5.106   4.862
    1PA    H16T10430   3.611   5.265   4.932
    1PA    C11510431   3.818   5.202   4.955
    1PA    H15R10432   3.834   5.261   5.046
    1PA    H15S10433   3.874   5.109   4.968
    1PA    C11410434   3.874   5.281   4.836
    1PA    H14R10435   3.811   5.369   4.818
    1PA    H14S10436   3.973   5.317   4.863
    1PA    C11310437   3.882   5.197   4.708
    1PA    H13R10438   3.949   5.112   4.725
    1PA    H13S10439   3.784   5.157   4.684
    1PA    C11210440   3.933   5.277   4.587
    1PA    H12R10441   3.927   5.213   4.499
    1PA    H12S10442   3.865   5.361   4.569
    1PA    C11110443   4.076   5.333   4.603
    1PA    H11R10444   4.082   5.393   4.694
    1PA    H11S10445   4.147   5.250   4.614
    1PA    C11010446   4.117   5.421   4.484
    1PA    H10R10447   4.040   5.498   4.470
    1PA    H10S10448   4.210   5.473   4.507
    1PA     C1910449   4.135   5.341   4.354
    1PA     H9R10450   4.237   5.301   4.351
    1PA     H9S10451   4.067   5.256   4.350
    1PA     C1810452   4.110   5.428   4.231
    1PA     H8R10453   4.008   5.468   4.236
    1PA     H8S10454   4.178   5.513   4.232
    1PA     C1710455   4.127   5.346   4.102
    1PA     H7R10456   4.229   5.308   4.099
    1PA     H7S10457   4.060   5.261   4.104
    1PA     C1610458   4.100   5.429   3.976
    1PA     H6R10459   3.994   5.452   3.969
    1PA     H6S10460   4.149   5.527   3.984
    1PA     C1510461   4.151   5.356   3.849
    1PA     H5R10462   4.151   5.426   3.765
    1PA     H5S10463   4.255   5.325   3.862
    1PA     C1410464   4.070   5.231   3.812
    1PA     H4R10465   4.105   5.195   3.715
    1PA     H4S10466   4.090   5.151   3.884
    1PA     C1310467   3.919   5.257   3.806
    1PA     H3R10468   3.870   5.169   3.763
    1PA     H3S10469   3.880   5.271   3.907
    1PA     C1210470   3.888   5.380   3.719
    1PA     H2R10471   3.944   5.468   3.750
    1PA     H2S10472   3.916   5.358   3.616
    1PC     C1110473   3.744   5.419   3.722
    1PC     O1210474   3.671   5.416   3.819
    1PC     O1110475   3.708   5.466   3.602
    1PC      C110476   3.566   5.472   3.576
    1PC      HR10477   3.518   5.386   3.622
    1PC      HS10478   3.527   5.564   3.620
    1PC      C210479   3.542   5.467   3.424
    1PC      HX10480   3.438   5.491   3.404
    1PC      C310481   3.570   5.327   3.364
    1PC      HA10482   3.513   5.252   3.418
    1PC      HB10483   3.537   5.327   3.260
    1PC     O3110484   3.711   5.291   3.370
    1PC     P3110485   3.768   5.173   3.277
    1PC     O3210486   3.879   5.246   3.190
    1PC     C3110487   3.847   5.360   3.111
    1PC     H1A10488   3.895   5.351   3.013
    1PC     H1B10489   3.739   5.368   3.096
    1PC     C3210490   3.901   5.484   3.186
    1PC     H2A10491   3.893   5.571   3.120
    1PC     H2B10492   3.838   5.501   3.273
    1PC     N3110493   4.044   5.479   3.236
    1PC     C3310494   4.134   5.400   3.148
    1PC     H3A10495   4.236   5.407   3.187
    1PC     H3B10496   4.101   5.296   3.150
    1PC     H3C10497   4.129   5.440   3.046
    1PC     C3410498   4.098   5.617   3.244
    1PC     H4A10499   4.099   5.659   3.144
    1PC     H4B10500   4.035   5.677   3.309
    1PC     H4C10501   4.200   5.615   3.284
    1PC     C3510502   4.047   5.418   3.373
    1PC     H5A10503   4.149   5.424   3.412
    1PC     H5B10504   4.015   5.314   3.365
    1PC     H5C10505   3.977   5.472   3.437
    1PC     O3310506   3.838   5.074   3.360
    1PC     O3410507   3.664   5.133   3.181
    1PC     O2110508   3.628   5.566   3.359
    1PC     C2110509   3.603   5.694   3.389
    1PC     O2210510   3.495   5.736   3.424
    1OL     C1210511   3.722   5.785   3.367
    1OL     H2R10512   3.689   5.885   3.394
    1OL     H2S10513   3.748   5.783   3.261
    1OL     C1310514   3.846   5.753   3.451
    1OL     H3R10515   3.930   5.806   3.407
    1OL     H3S10516   3.868   5.646   3.446
    1OL     C1410517   3.836   5.797   3.598
    1OL     H4R10518   3.756   5.741   3.647
    1OL     H4S10519   3.811   5.903   3.604
    1OL     C1510520   3.971   5.773   3.670
    1OL     H5R10521   4.049   5.830   3.620
    1OL     H5S10522   3.998   5.667   3.661
    1OL     C1610523   3.971   5.810   3.819
    1OL     H6R10524   3.970   5.919   3.830
    1OL     H6S10525   4.065   5.775   3.864
    1OL     C1710526   3.852   5.752   3.896
    1OL     H7R10527   3.831   5.650   3.861
    1OL     H7S10528   3.764   5.812   3.875
    1OL     C1810529   3.874   5.746   4.048
    1OL     H8R10530   3.924   5.837   4.081
    1OL     H8S10531   3.939   5.662   4.074
    1OL     C1910532   3.741   5.737   4.117
    1OL     H9R10533   3.693   5.834   4.131
    1OL    C11010534   3.678   5.628   4.161
    1OL    H10R10535   3.580   5.640   4.208
    1OL    C11110536   3.724   5.484   4.152
    1OL    H11R10537   3.829   5.478   4.123
    1OL    H11S10538   3.665   5.431   4.077
    1OL    C11210539   3.702   5.416   4.289
    1OL    H12R10540   3.748   5.478   4.366
    1OL    H12S10541   3.753   5.319   4.290
    1OL    C11310542   3.552   5.393   4.321
    1OL    H13R10543   3.514   5.313   4.257
    1OL    H13S10544   3.495   5.483   4.296
    1OL    C11410545   3.521   5.359   4.468
    1OL    H14R10546   3.571   5.265   4.496
    1OL    H14S10547   3.413   5.342   4.478
    1OL    C11510548   3.563   5.470   4.565
    1OL    H15R10549   3.532   5.567   4.525
    1OL    H15S10550   3.672   5.472   4.573
    1OL    C11610551   3.504   5.455   4.707
    1OL    H16R10552   3.524   5.354   4.745
    1OL    H16S10553   3.396   5.467   4.702
    1OL    C11710554   3.564   5.560   4.802
    1OL    H17R10555   3.555   5.658   4.755
    1OL    H17S10556   3.671   5.540   4.815
    1OL    C11810557   3.498   5.565   4.941
    1OL    H18R10558   3.552   5.634   5.005
    1OL    H18S10559   3.497   5.467   4.988
    1OL    H18T10560   3.395   5.601   4.932
    1PA    C11610561   0.311   2.254   4.928
    1PA    H16R10562   0.343   2.252   5.032
    1PA    H16S10563   0.293   2.357   4.899
    1PA    H16T10564   0.392   2.214   4.866
    1PA    C11510565   0.184   2.169   4.912
    1PA    H15R10566   0.207   2.064   4.930
    1PA    H15S10567   0.112   2.199   4.988
    1PA    C11410568   0.119   2.185   4.773
    1PA    H14R10569   0.023   2.132   4.774
    1PA    H14S10570   0.098   2.291   4.756
    1PA    C11310571   0.207   2.131   4.660
    1PA    H13R10572   0.303   2.184   4.660
    1PA    H13S10573   0.229   2.026   4.677
    1PA    C11210574   0.143   2.148   4.521
    1PA    H12R10575   0.121   2.254   4.504
    1PA    H12S10576   0.216   2.118   4.446
    1PA    C11110577   0.015   2.064   4.503
    1PA    H11R10578   0.037   1.961   4.533
    1PA    H11S10579  -0.064   2.101   4.569
    1PA    C11010580  -0.035   2.064   4.358
    1PA    H10R10581   0.046   2.035   4.292
    1PA    H10S10582  -0.113   1.988   4.348
    1PA     C1910583  -0.093   2.199   4.313
    1PA     H9R10584  -0.180   2.224   4.375
    1PA     H9S10585  -0.019   2.279   4.327
    1PA     C1810586  -0.135   2.195   4.165
    1PA     H8R10587  -0.045   2.188   4.103
    1PA     H8S10588  -0.193   2.104   4.148
    1PA     C1710589  -0.219   2.316   4.124
    1PA     H7R10590  -0.307   2.322   4.188
    1PA     H7S10591  -0.163   2.408   4.139
    1PA     C1610592  -0.268   2.307   3.977
    1PA     H6R10593  -0.319   2.211   3.963
    1PA     H6S10594  -0.342   2.385   3.960
    1PA     C1510595  -0.157   2.321   3.871
    1PA     H5R10596  -0.078   2.247   3.888
    1PA     H5S10597  -0.200   2.301   3.773
    1PA     C1410598  -0.096   2.462   3.871
    1PA     H4R10599  -0.176   2.535   3.860
    1PA     H4S10600  -0.047   2.482   3.966
    1PA     C1310601   0.006   2.483   3.758
    1PA     H3R10602   0.097   2.425   3.781
    1PA     H3S10603  -0.034   2.446   3.663
    1PA     C1210604   0.040   2.632   3.744
    1PA     H2R10605  -0.036   2.684   3.685
    1PA     H2S10606   0.042   2.678   3.843
    1PC     C1110607   0.176   2.652   3.683
    1PC     O1210608   0.274   2.656   3.753
    1PC     O1110609   0.174   2.679   3.551
    1PC      C110610   0.303   2.694   3.483
    1PC      HR10611   0.284   2.736   3.384
    1PC      HS10612   0.363   2.766   3.539
    1PC      C210613   0.384   2.562   3.463
    1PC      HX10614   0.469   2.585   3.398
    1PC      C310615   0.300   2.451   3.396
    1PC      HA10616   0.263   2.489   3.301
    1PC      HB10617   0.364   2.365   3.376
    1PC     O3110618   0.186   2.408   3.475
    1PC     P3110619   0.109   2.274   3.435
    1PC     O3210620   0.136   2.272   3.278
    1PC     C3110621   0.164   2.151   3.209
    1PC     H1A10622   0.270   2.146   3.187
    1PC     H1B10623   0.135   2.064   3.269
    1PC     C3210624   0.080   2.158   3.080
    1PC     H2A10625   0.116   2.243   3.021
    1PC     H2B10626   0.095   2.067   3.023
    1PC     N3110627  -0.070   2.179   3.096
    1PC     C3310628  -0.127   2.089   3.200
    1PC     H3A10629  -0.107   1.985   3.174
    1PC     H3B10630  -0.080   2.115   3.295
    1PC     H3C10631  -0.235   2.108   3.208
    1PC     C3410632  -0.103   2.320   3.132
    1PC     H4A10633  -0.044   2.386   3.069
    1PC     H4B10634  -0.210   2.337   3.119
    1PC     H4C10635  -0.075   2.335   3.236
    1PC     C3510636  -0.134   2.150   2.964
    1PC     H5A10637  -0.093   2.222   2.893
    1PC     H5B10638  -0.241   2.165   2.974
    1PC     H5C10639  -0.110   2.048   2.934
    1PC     O3310640   0.175   2.155   3.491
    1PC     O3410641  -0.037   2.292   3.446
    1PC     O2110642   0.437   2.520   3.591
    1PC     C2110643   0.519   2.415   3.606
    1PC     O2210644   0.557   2.342   3.517
    1OL     C1210645   0.567   2.402   3.748
    1OL     H2R10646   0.604   2.499   3.782
    1OL     H2S10647   0.651   2.332   3.752
    1OL     C1310648   0.454   2.356   3.840
    1OL     H3R10649   0.409   2.264   3.801
    1OL     H3S10650   0.376   2.433   3.838
    1OL     C1410651   0.505   2.333   3.983
    1OL     H4R10652   0.566   2.418   4.014
    1OL     H4S10653   0.569   2.245   3.985
    1OL     C1510654   0.390   2.315   4.083
    1OL     H5R10655   0.430   2.278   4.178
    1OL     H5S10656   0.320   2.240   4.045
    1OL     C1610657   0.317   2.448   4.107
    1OL     H6R10658   0.286   2.493   4.012
    1OL     H6S10659   0.386   2.518   4.155
    1OL     C1710660   0.191   2.431   4.193
    1OL     H7R10661   0.218   2.389   4.290
    1OL     H7S10662   0.123   2.361   4.144
    1OL     C1810663   0.119   2.565   4.212
    1OL     H8R10664   0.022   2.547   4.258
    1OL     H8S10665   0.100   2.611   4.115
    1OL     C1910666   0.201   2.660   4.297
    1OL     H9R10667   0.274   2.720   4.243
    1OL    C11010668   0.190   2.672   4.429
    1OL    H10R10669   0.255   2.742   4.482
    1OL    C11110670   0.094   2.592   4.514
    1OL    H11R10671   0.135   2.580   4.615
    1OL    H11S10672   0.083   2.491   4.473
    1OL    C11210673  -0.044   2.660   4.519
    1OL    H12R10674  -0.074   2.683   4.417
    1OL    H12S10675  -0.036   2.756   4.572
    1OL    C11310676  -0.155   2.573   4.582
    1OL    H13R10677  -0.134   2.467   4.564
    1OL    H13S10678  -0.247   2.595   4.528
    1OL    C11410679  -0.181   2.598   4.731
    1OL    H14R10680  -0.272   2.544   4.759
    1OL    H14S10681  -0.201   2.704   4.747
    1OL    C11510682  -0.069   2.553   4.826
    1OL    H15R10683   0.024   2.607   4.804
    1OL    H15S10684  -0.049   2.447   4.809
    1OL    C11610685  -0.106   2.576   4.974
    1OL    H16R10686  -0.210   2.609   4.981
    1OL    H16S10687  -0.045   2.657   5.015
    1OL    C11710688  -0.090   2.449   5.060
    1OL    H17R10689  -0.122   2.361   5.002
    1OL    H17S10690  -0.155   2.454   5.147
    1OL    C11810691   0.054   2.429   5.109
    1OL    H18R10692   0.123   2.429   5.024
    1OL    H18S10693   0.063   2.334   5.163
    1OL    H18T10694   0.082   2.510   5.176
    1PA    C11610695   0.338   1.481   5.084
    1PA    H16R10696   0.252   1.415   5.095
    1PA    H16S10697   0.310   1.563   5.016
    1PA    H16T10698   0.362   1.524   5.181
    1PA    C11510699   0.458   1.403   5.030
    1PA    H15R10700   0.544   1.471   5.028
    1PA    H15S10701   0.481   1.322   5.099
    1PA    C11410702   0.436   1.346   4.889
    1PA    H14R10703   0.509   1.267   4.872
    1PA    H14S10704   0.336   1.302   4.883
    1PA    C11310705   0.453   1.454   4.781
    1PA    H13R10706   0.384   1.536   4.802
    1PA    H13S10707   0.554   1.494   4.785
    1PA    C11210708   0.424   1.401   4.640
    1PA    H12R10709   0.495   1.322   4.613
    1PA    H12S10710   0.324   1.358   4.638
    1PA    C11110711   0.433   1.515   4.537
    1PA    H11R10712   0.411   1.610   4.585
    1PA    H11S10713   0.535   1.521   4.498
    1PA    C11010714   0.338   1.496   4.419
    1PA    H10R10715   0.376   1.416   4.355
    1PA    H10S10716   0.240   1.466   4.457
    1PA     C1910717   0.320   1.625   4.338
    1PA     H9R10718   0.244   1.685   4.389
    1PA     H9S10719   0.411   1.685   4.339
    1PA     C1810720   0.276   1.600   4.193
    1PA     H8R10721   0.213   1.511   4.187
    1PA     H8S10722   0.213   1.684   4.163
    1PA     C1710723   0.392   1.590   4.092
    1PA     H7R10724   0.347   1.575   3.993
    1PA     H7S10725   0.439   1.689   4.090
    1PA     C1610726   0.505   1.487   4.111
    1PA     H6R10727   0.553   1.499   4.208
    1PA     H6S10728   0.460   1.387   4.111
    1PA     C1510729   0.608   1.504   3.996
    1PA     H5R10730   0.554   1.486   3.903
    1PA     H5S10731   0.633   1.610   3.987
    1PA     C1410732   0.744   1.425   3.998
    1PA     H4R10733   0.808   1.486   4.061
    1PA     H4S10734   0.737   1.332   4.055
    1PA     C1310735   0.818   1.410   3.860
    1PA     H3R10736   0.765   1.484   3.800
    1PA     H3S10737   0.910   1.462   3.889
    1PA     C1210738   0.881   1.294   3.765
    1PA     H2R10739   0.924   1.345   3.678
    1PA     H2S10740   0.969   1.258   3.819
    1PC     C1110741   0.821   1.163   3.700
    1PC     O1210742   0.871   1.056   3.728
    1PC     O1110743   0.716   1.166   3.612
    1PC      C110744   0.663   1.044   3.549
    1PC      HR10745   0.727   1.023   3.462
    1PC      HS10746   0.677   0.963   3.621
    1PC      C210747   0.512   1.036   3.500
    1PC      HX10748   0.486   0.931   3.482
    1PC      C310749   0.487   1.108   3.365
    1PC      HA10750   0.552   1.066   3.288
    1PC      HB10751   0.383   1.089   3.335
    1PC     O3110752   0.506   1.250   3.368
    1PC     P3110753   0.446   1.337   3.252
    1PC     O3210754   0.291   1.325   3.286
    1PC     C3110755   0.205   1.439   3.283
    1PC     H1A10756   0.115   1.416   3.340
    1PC     H1B10757   0.255   1.524   3.330
    1PC     C3210758   0.174   1.466   3.135
    1PC     H2A10759   0.110   1.554   3.127
    1PC     H2B10760   0.268   1.486   3.083
    1PC     N3110761   0.105   1.357   3.056
    1PC     C3310762  -0.019   1.310   3.124
    1PC     H3A10763  -0.068   1.237   3.059
    1PC     H3B10764   0.010   1.264   3.218
    1PC     H3C10765  -0.084   1.396   3.141
    1PC     C3410766   0.070   1.412   2.922
    1PC     H4A10767  -0.007   1.488   2.934
    1PC     H4B10768   0.161   1.455   2.880
    1PC     H4C10769   0.035   1.330   2.860
    1PC     C3510770   0.192   1.239   3.031
    1PC     H5A10771   0.141   1.171   2.961
    1PC     H5B10772   0.212   1.189   3.126
    1PC     H5C10773   0.287   1.273   2.989
    1PC     O3310774   0.485   1.479   3.267
    1PC     O3410775   0.468   1.269   3.123
    1PC     O2110776   0.421   1.082   3.605
    1PC     C2110777   0.287   1.055   3.605
    1PC     O2210778   0.224   1.023   3.507
    1OL     C1210779   0.230   1.067   3.746
    1OL     H2R10780   0.263   1.166   3.781
    1OL     H2S10781   0.277   0.992   3.809
    1OL     C1310782   0.078   1.067   3.772
    1OL     H3R10783   0.052   0.978   3.829
    1OL     H3S10784   0.024   1.062   3.678
    1OL     C1410785   0.031   1.193   3.852
    1OL     H4R10786  -0.075   1.181   3.874
    1OL     H4S10787   0.040   1.279   3.785
    1OL     C1510788   0.105   1.232   3.985
    1OL     H5R10789   0.057   1.323   4.023
    1OL     H5S10790   0.208   1.260   3.963
    1OL     C1610791   0.106   1.125   4.096
    1OL     H6R10792   0.208   1.091   4.113
    1OL     H6S10793   0.051   1.038   4.060
    1OL     C1710794   0.045   1.168   4.233
    1OL     H7R10795   0.029   1.076   4.290
    1OL     H7S10796  -0.054   1.213   4.217
    1OL     C1810797   0.129   1.259   4.322
    1OL     H8R10798   0.116   1.362   4.289
    1OL     H8S10799   0.234   1.234   4.311
    1OL     C1910800   0.087   1.248   4.469
    1OL     H9R10801   0.014   1.321   4.503
    1OL    C11010802   0.135   1.158   4.554
    1OL    H10R10803   0.101   1.155   4.657
    1OL    C11110804   0.237   1.054   4.513
    1OL    H11R10805   0.320   1.105   4.463
    1OL    H11S10806   0.191   0.987   4.441
    1OL    C11210807   0.294   0.967   4.626
    1OL    H12R10808   0.348   0.885   4.579
    1OL    H12S10809   0.214   0.922   4.685
    1OL    C11310810   0.388   1.036   4.726
    1OL    H13R10811   0.329   1.089   4.801
    1OL    H13S10812   0.452   1.107   4.674
    1OL    C11410813   0.474   0.926   4.791
    1OL    H14R10814   0.549   0.895   4.719
    1OL    H14S10815   0.412   0.839   4.811
    1OL    C11510816   0.543   0.962   4.923
    1OL    H15R10817   0.471   0.961   5.004
    1OL    H15S10818   0.585   1.063   4.920
    1OL    C11610819   0.655   0.859   4.950
    1OL    H16R10820   0.725   0.856   4.867
    1OL    H16S10821   0.611   0.760   4.961
    1OL    C11710822   0.732   0.893   5.077
    1OL    H17R10823   0.661   0.928   5.152
    1OL    H17S10824   0.805   0.972   5.057
    1OL    C11810825   0.806   0.773   5.134
    1OL    H18R10826   0.887   0.743   5.068
    1OL    H18S10827   0.736   0.691   5.149
    1OL    H18T10828   0.849   0.798   5.232
    1PA    C11610829   4.868   0.499   5.285
    1PA    H16R10830   4.774   0.461   5.245
    1PA    H16S10831   4.927   0.540   5.202
    1PA    H16T10832   4.846   0.580   5.355
    1PA    C11510833   4.944   0.387   5.356
    1PA    H15R10834   5.038   0.424   5.395
    1PA    H15S10835   4.884   0.353   5.441
    1PA    C11410836   4.971   0.267   5.264
    1PA    H14R10837   5.001   0.182   5.325
    1PA    H14S10838   4.880   0.238   5.211
    1PA    C11310839   5.082   0.296   5.162
    1PA    H13R10840   5.054   0.380   5.098
    1PA    H13S10841   5.173   0.323   5.216
    1PA    C11210842   5.109   0.173   5.075
    1PA    H12R10843   5.104   0.083   5.136
    1PA    H12S10844   5.033   0.164   4.998
    1PA    C11110845   5.248   0.178   5.010
    1PA    H11R10846   5.324   0.175   5.088
    1PA    H11S10847   5.258   0.087   4.950
    1PA    C11010848   5.276   0.294   4.916
    1PA    H10R10849   5.194   0.300   4.844
    1PA    H10S10850   5.278   0.389   4.971
    1PA     C1910851   5.412   0.269   4.846
    1PA     H9R10852   5.493   0.293   4.915
    1PA     H9S10853   5.421   0.163   4.821
    1PA     C1810854   5.431   0.348   4.715
    1PA     H8R10855   5.422   0.455   4.736
    1PA     H8S10856   5.531   0.330   4.677
    1PA     C1710857   5.328   0.308   4.609
    1PA     H7R10858   5.338   0.201   4.591
    1PA     H7S10859   5.226   0.325   4.645
    1PA     C1610860   5.343   0.383   4.476
    1PA     H6R10861   5.309   0.487   4.487
    1PA     H6S10862   5.447   0.383   4.443
    1PA     C1510863   5.254   0.313   4.373
    1PA     H5R10864   5.284   0.208   4.373
    1PA     H5S10865   5.150   0.316   4.407
    1PA     C1410866   5.262   0.360   4.228
    1PA     H4R10867   5.245   0.468   4.221
    1PA     H4S10868   5.362   0.340   4.189
    1PA     C1310869   5.156   0.284   4.147
    1PA     H3R10870   5.117   0.200   4.205
    1PA     H3S10871   5.070   0.350   4.130
    1PA     C1210872   5.208   0.229   4.013
    1PA     H2R10873   5.259   0.307   3.956
    1PA     H2S10874   5.282   0.152   4.034
    1PC     C1110875   5.097   0.172   3.927
    1PC     O1210876   4.990   0.136   3.972
    1PC     O1110877   5.131   0.169   3.797
    1PC      C110878   5.025   0.179   3.697
    1PC      HR10879   5.029   0.093   3.630
    1PC      HS10880   4.926   0.181   3.743
    1PC      C210881   5.050   0.310   3.617
    1PC      HX10882   4.967   0.332   3.549
    1PC      C310883   5.179   0.299   3.532
    1PC      HA10884   5.255   0.246   3.591
    1PC      HB10885   5.159   0.243   3.440
    1PC     O3110886   5.233   0.430   3.499
    1PC     P3110887   5.172   0.518   3.381
    1PC     O3210888   5.295   0.617   3.350
    1PC     C3110889   5.426   0.566   3.319
    1PC     H1A10890   5.496   0.650   3.317
    1PC     H1B10891   5.457   0.497   3.399
    1PC     C3210892   5.427   0.492   3.183
    1PC     H2A10893   5.526   0.449   3.167
    1PC     H2B10894   5.355   0.411   3.189
    1PC     N3110895   5.393   0.570   3.059
    1PC     C3310896   5.499   0.670   3.030
    1PC     H3A10897   5.500   0.744   3.110
    1PC     H3B10898   5.595   0.617   3.025
    1PC     H3C10899   5.477   0.718   2.934
    1PC     C3410900   5.385   0.473   2.947
    1PC     H4A10901   5.362   0.528   2.855
    1PC     H4B10902   5.481   0.422   2.938
    1PC     H4C10903   5.305   0.402   2.970
    1PC     C3510904   5.261   0.640   3.066
    1PC     H5A10905   5.185   0.565   3.091
    1PC     H5B10906   5.239   0.687   2.970
    1PC     H5C10907   5.265   0.712   3.147
    1PC     O3310908   5.154   0.433   3.261
    1PC     O3410909   5.061   0.602   3.429
    1PC     O2110910   5.067   0.422   3.707
    1PC     C2110911   4.964   0.467   3.778
    1PC     O2210912   4.858   0.409   3.792
    1OL     C1210913   4.997   0.594   3.849
    1OL     H2R10914   4.911   0.620   3.911
    1OL     H2S10915   5.009   0.674   3.775
    1OL     C1310916   5.121   0.578   3.939
    1OL     H3R10917   5.127   0.474   3.970
    1OL     H3S10918   5.106   0.635   4.031
    1OL     C1410919   5.254   0.618   3.873
    1OL     H4R10920   5.274   0.553   3.787
    1OL     H4S10921   5.335   0.601   3.945
    1OL     C1510922   5.257   0.764   3.826
    1OL     H5R10923   5.194   0.777   3.738
    1OL     H5S10924   5.359   0.790   3.796
    1OL     C1610925   5.212   0.863   3.935
    1OL     H6R10926   5.107   0.846   3.962
    1OL     H6S10927   5.218   0.964   3.894
    1OL     C1710928   5.296   0.853   4.063
    1OL     H7R10929   5.397   0.821   4.036
    1OL     H7S10930   5.255   0.777   4.130
    1OL     C1810931   5.307   0.988   4.134
    1OL     H8R10932   5.296   1.071   4.064
    1OL     H8S10933   5.409   0.992   4.171
    1OL     C1910934   5.212   1.004   4.251
    1OL     H9R10935   5.116   1.048   4.228
    1OL    C11010936   5.242   0.972   4.376
    1OL    H10R10937   5.169   0.992   4.454
    1OL    C11110938   5.373   0.913   4.425
    1OL    H11R10939   5.408   0.976   4.507
    1OL    H11S10940   5.451   0.912   4.349
    1OL    C11210941   5.354   0.768   4.471
    1OL    H12R10942   5.330   0.705   4.385
    1OL    H12S10943   5.268   0.763   4.538
    1OL    C11310944   5.476   0.710   4.545
    1OL    H13R10945   5.559   0.698   4.474
    1OL    H13S10946   5.452   0.610   4.582
    1OL    C11410947   5.523   0.795   4.663
    1OL    H14R10948   5.554   0.893   4.624
    1OL    H14S10949   5.612   0.748   4.706
    1OL    C11510950   5.421   0.820   4.774
    1OL    H15R10951   5.329   0.862   4.732
    1OL    H15S10952   5.461   0.896   4.841
    1OL    C11610953   5.390   0.691   4.853
    1OL    H16R10954   5.476   0.625   4.842
    1OL    H16S10955   5.304   0.639   4.810
    1OL    C11710956   5.368   0.712   5.004
    1OL    H17R10957   5.262   0.698   5.028
    1OL    H17S10958   5.394   0.814   5.033
    1OL    C11810959   5.454   0.615   5.086
    1OL    H18R10960   5.555   0.608   5.047
    1OL    H18S10961   5.411   0.515   5.087
    1OL    H18T10962   5.462   0.650   5.189
    1PA    C11610963   2.484   0.216   5.273
    1PA    H16R10964   2.491   0.241   5.379
    1PA    H16S10965   2.447   0.303   5.218
    1PA    H16T10966   2.584   0.193   5.237
    1PA    C11510967   2.390   0.096   5.253
    1PA    H15R10968   2.425   0.012   5.314
    1PA    H15S10969   2.289   0.122   5.287
    1PA    C11410970   2.386   0.052   5.106
    1PA    H14R10971   2.344   0.133   5.045
    1PA    H14S10972   2.488   0.037   5.071
    1PA    C11310973   2.306  -0.077   5.080
    1PA    H13R10974   2.331  -0.153   5.154
    1PA    H13S10975   2.199  -0.057   5.088
    1PA    C11210976   2.340  -0.129   4.939
    1PA    H12R10977   2.329  -0.044   4.871
    1PA    H12S10978   2.446  -0.156   4.939
    1PA    C11110979   2.256  -0.249   4.889
    1PA    H11R10980   2.288  -0.340   4.942
    1PA    H11S10981   2.152  -0.233   4.917
    1PA    C11010982   2.262  -0.274   4.736
    1PA    H10R10983   2.356  -0.322   4.708
    1PA    H10S10984   2.183  -0.344   4.710
    1PA     C1910985   2.244  -0.143   4.656
    1PA     H9R10986   2.174  -0.080   4.711
    1PA     H9S10987   2.338  -0.088   4.655
    1PA     C1810988   2.194  -0.156   4.511
    1PA     H8R10989   2.279  -0.170   4.444
    1PA     H8S10990   2.129  -0.244   4.501
    1PA     C1710991   2.113  -0.030   4.473
    1PA     H7R10992   2.027  -0.023   4.540
    1PA     H7S10993   2.175   0.058   4.491
    1PA     C1610994   2.061  -0.025   4.328
    1PA     H6R10995   1.999  -0.114   4.308
    1PA     H6S10996   1.996   0.062   4.318
    1PA     C1510997   2.174  -0.016   4.225
    1PA     H5R10998   2.245   0.060   4.258
    1PA     H5S10999   2.227  -0.111   4.221
    1PA     C1411000   2.125   0.022   4.084
    1PA     H4R11001   2.051  -0.051   4.049
    1PA     H4S11002   2.077   0.120   4.087
    1PA     C1311003   2.244   0.026   3.987
    1PA     H3R11004   2.321   0.091   4.029
    1PA     H3S11005   2.286  -0.074   3.980
    1PA     C1211006   2.212   0.077   3.844
    1PA     H2R11007   2.133   0.016   3.799
    1PA     H2S11008   2.176   0.180   3.847
    1PC     C1111009   2.335   0.070   3.757
    1PC     O1211010   2.446   0.049   3.801
    1PC     O1111011   2.311   0.086   3.625
    1PC      C111012   2.421   0.053   3.534
    1PC      HR11013   2.413   0.117   3.445
    1PC      HS11014   2.518   0.071   3.579
    1PC      C211015   2.411  -0.096   3.489
    1PC      HX11016   2.503  -0.127   3.440
    1PC      C311017   2.298  -0.113   3.387
    1PC      HA11018   2.214  -0.049   3.416
    1PC      HB11019   2.336  -0.082   3.289
    1PC     O3111020   2.250  -0.249   3.380
    1PC     P3111021   2.192  -0.304   3.242
    1PC     O3211022   2.085  -0.191   3.208
    1PC     C3111023   1.970  -0.169   3.291
    1PC     H1A11024   1.902  -0.253   3.278
    1PC     H1B11025   2.000  -0.163   3.395
    1PC     C3211026   1.905  -0.037   3.244
    1PC     H2A11027   1.888  -0.044   3.136
    1PC     H2B11028   1.807  -0.026   3.291
    1PC     N3111029   1.976   0.095   3.266
    1PC     C3311030   2.112   0.102   3.204
    1PC     H3A11031   2.163   0.190   3.242
    1PC     H3B11032   2.167   0.011   3.225
    1PC     H3C11033   2.099   0.110   3.096
    1PC     C3411034   1.897   0.199   3.198
    1PC     H4A11035   1.951   0.293   3.207
    1PC     H4B11036   1.888   0.171   3.093
    1PC     H4C11037   1.799   0.208   3.245
    1PC     C3511038   1.985   0.130   3.411
    1PC     H5A11039   2.029   0.230   3.419
    1PC     H5B11040   2.047   0.057   3.463
    1PC     H5C11041   1.884   0.132   3.453
    1PC     O3311042   2.300  -0.292   3.143
    1PC     O3411043   2.123  -0.432   3.262
    1PC     O2111044   2.382  -0.181   3.603
    1PC     C2111045   2.486  -0.232   3.669
    1PC     O2211046   2.601  -0.204   3.642
    1OL     C1211047   2.446  -0.327   3.780
    1OL     H2R11048   2.486  -0.289   3.874
    1OL     H2S11049   2.493  -0.424   3.760
    1OL     C1311050   2.295  -0.350   3.795
    1OL     H3R11051   2.255  -0.397   3.705
    1OL     H3S11052   2.244  -0.254   3.808
    1OL     C1411053   2.267  -0.438   3.918
    1OL     H4R11054   2.304  -0.388   4.007
    1OL     H4S11055   2.322  -0.532   3.907
    1OL     C1511056   2.117  -0.468   3.936
    1OL     H5R11057   2.080  -0.526   3.851
    1OL     H5S11058   2.062  -0.374   3.938
    1OL     C1611059   2.091  -0.546   4.066
    1OL     H6R11060   2.149  -0.500   4.147
    1OL     H6S11061   2.126  -0.649   4.056
    1OL     C1711062   1.943  -0.545   4.106
    1OL     H7R11063   1.884  -0.599   4.031
    1OL     H7S11064   1.907  -0.442   4.108
    1OL     C1811065   1.921  -0.608   4.245
    1OL     H8R11066   1.998  -0.572   4.313
    1OL     H8S11067   1.932  -0.716   4.238
    1OL     C1911068   1.783  -0.573   4.296
    1OL     H9R11069   1.700  -0.616   4.240
    1OL    C11011070   1.758  -0.497   4.402
    1OL    H10R11071   1.655  -0.477   4.431
    1OL    C11111072   1.863  -0.432   4.489
    1OL    H11R11073   1.909  -0.348   4.436
    1OL    H11S11074   1.942  -0.504   4.512
    1OL    C11211075   1.803  -0.381   4.620
    1OL    H12R11076   1.743  -0.460   4.666
    1OL    H12S11077   1.736  -0.297   4.599
    1OL    C11311078   1.912  -0.337   4.719
    1OL    H13R11079   1.976  -0.262   4.673
    1OL    H13S11080   1.974  -0.423   4.743
    1OL    C11411081   1.854  -0.281   4.850
    1OL    H14R11082   1.926  -0.296   4.931
    1OL    H14S11083   1.765  -0.339   4.878
    1OL    C11511084   1.817  -0.131   4.842
    1OL    H15R11085   1.744  -0.111   4.920
    1OL    H15S11086   1.769  -0.108   4.747
    1OL    C11611087   1.938  -0.039   4.864
    1OL    H16R11088   1.991  -0.029   4.769
    1OL    H16S11089   2.006  -0.083   4.937
    1OL    C11711090   1.902   0.102   4.915
    1OL    H17R11091   1.849   0.095   5.010
    1OL    H17S11092   1.835   0.150   4.843
    1OL    C11811093   2.030   0.186   4.936
    1OL    H18R11094   2.091   0.144   5.015
    1OL    H18S11095   2.005   0.289   4.963
    1OL    H18T11096   2.089   0.189   4.844
    1PA    C11611097   0.255   3.715   4.993
    1PA    H16R11098   0.217   3.814   5.021
    1PA    H16S11099   0.363   3.715   5.003
    1PA    H16T11100   0.215   3.640   5.061
    1PA    C11511101   0.211   3.681   4.850
    1PA    H15R11102   0.261   3.588   4.820
    1PA    H15S11103   0.104   3.663   4.850
    1PA    C11411104   0.244   3.788   4.744
    1PA    H14R11105   0.195   3.882   4.771
    1PA    H14S11106   0.352   3.805   4.740
    1PA    C11311107   0.192   3.739   4.608
    1PA    H13R11108   0.243   3.646   4.582
    1PA    H13S11109   0.086   3.716   4.619
    1PA    C11211110   0.210   3.837   4.492
    1PA    H12R11111   0.189   3.939   4.527
    1PA    H12S11112   0.313   3.834   4.457
    1PA    C11111113   0.113   3.802   4.378
    1PA    H11R11114   0.132   3.701   4.341
    1PA    H11S11115   0.011   3.803   4.419
    1PA    C11011116   0.118   3.903   4.262
    1PA    H10R11117   0.024   3.899   4.207
    1PA    H10S11118   0.125   4.004   4.303
    1PA     C1911119   0.234   3.880   4.165
    1PA     H9R11120   0.244   3.969   4.102
    1PA     H9S11121   0.327   3.869   4.221
    1PA     C1811122   0.213   3.756   4.075
    1PA     H8R11123   0.255   3.668   4.123
    1PA     H8S11124   0.106   3.738   4.066
    1PA     C1711125   0.268   3.774   3.932
    1PA     H7R11126   0.228   3.694   3.869
    1PA     H7S11127   0.231   3.868   3.891
    1PA     C1611128   0.422   3.773   3.918
    1PA     H6R11129   0.448   3.789   3.813
    1PA     H6S11130   0.463   3.859   3.971
    1PA     C1511131   0.490   3.644   3.969
    1PA     H5R11132   0.598   3.659   3.964
    1PA     H5S11133   0.466   3.628   4.074
    1PA     C1411134   0.451   3.517   3.891
    1PA     H4R11135   0.526   3.440   3.913
    1PA     H4S11136   0.355   3.481   3.930
    1PA     C1311137   0.440   3.535   3.739
    1PA     H3R11138   0.360   3.605   3.717
    1PA     H3S11139   0.533   3.579   3.701
    1PA     C1211140   0.411   3.404   3.665
    1PA     H2R11141   0.495   3.335   3.673
    1PA     H2S11142   0.325   3.355   3.709
    1PC     C1111143   0.378   3.428   3.520
    1PC     O1211144   0.375   3.536   3.466
    1PC     O1111145   0.349   3.312   3.457
    1PC      C111146   0.256   3.322   3.346
    1PC      HR11147   0.279   3.411   3.286
    1PC      HS11148   0.269   3.235   3.282
    1PC      C211149   0.109   3.323   3.397
    1PC      HX11150   0.083   3.221   3.426
    1PC      C311151   0.016   3.374   3.285
    1PC      HA11152   0.024   3.309   3.198
    1PC      HB11153  -0.088   3.379   3.318
    1PC     O3111154   0.061   3.507   3.249
    1PC     P3111155   0.019   3.573   3.112
    1PC     O3211156   0.032   3.729   3.142
    1PC     C3111157   0.017   3.783   3.275
    1PC     H1A11158  -0.032   3.880   3.268
    1PC     H1B11159  -0.046   3.718   3.336
    1PC     C3211160   0.157   3.800   3.339
    1PC     H2A11161   0.146   3.851   3.435
    1PC     H2B11162   0.201   3.702   3.358
    1PC     N3111163   0.260   3.878   3.261
    1PC     C3311164   0.202   4.000   3.196
    1PC     H3A11165   0.280   4.049   3.138
    1PC     H3B11166   0.121   3.968   3.129
    1PC     H3C11167   0.164   4.067   3.273
    1PC     C3411168   0.368   3.922   3.352
    1PC     H4A11169   0.326   3.985   3.431
    1PC     H4B11170   0.414   3.832   3.394
    1PC     H4C11171   0.442   3.977   3.293
    1PC     C3511172   0.324   3.792   3.157
    1PC     H5A11173   0.371   3.707   3.207
    1PC     H5B11174   0.398   3.850   3.103
    1PC     H5C11175   0.247   3.756   3.088
    1PC     O3311176   0.123   3.536   3.014
    1PC     O3411177  -0.123   3.543   3.085
    1PC     O2111178   0.093   3.412   3.512
    1PC     C2111179  -0.016   3.396   3.588
    1PC     O2211180  -0.093   3.303   3.575
    1OL     C1211181  -0.034   3.509   3.687
    1OL     H2R11182  -0.140   3.517   3.713
    1OL     H2S11183  -0.005   3.602   3.639
    1OL     C1311184   0.050   3.492   3.816
    1OL     H3R11185   0.040   3.585   3.873
    1OL     H3S11186   0.155   3.482   3.789
    1OL     C1411187   0.008   3.376   3.907
    1OL     H4R11188   0.016   3.281   3.854
    1OL     H4S11189  -0.096   3.389   3.938
    1OL     C1511190   0.098   3.372   4.033
    1OL     H5R11191   0.102   3.472   4.075
    1OL     H5S11192   0.200   3.345   4.003
    1OL     C1611193   0.051   3.274   4.142
    1OL     H6R11194   0.036   3.175   4.099
    1OL     H6S11195  -0.046   3.308   4.179
    1OL     C1711196   0.148   3.262   4.262
    1OL     H7R11197   0.228   3.191   4.237
    1OL     H7S11198   0.095   3.218   4.346
    1OL     C1811199   0.210   3.397   4.305
    1OL     H8R11200   0.130   3.467   4.329
    1OL     H8S11201   0.267   3.440   4.222
    1OL     C1911202   0.305   3.384   4.422
    1OL     H9R11203   0.411   3.380   4.396
    1OL    C11011204   0.270   3.379   4.550
    1OL    H10R11205   0.347   3.371   4.626
    1OL    C11111206   0.128   3.385   4.601
    1OL    H11R11207   0.057   3.355   4.523
    1OL    H11S11208   0.101   3.486   4.632
    1OL    C11211209   0.110   3.293   4.722
    1OL    H12R11210   0.145   3.193   4.695
    1OL    H12S11211   0.002   3.286   4.740
    1OL    C11311212   0.178   3.341   4.852
    1OL    H13R11213   0.120   3.426   4.889
    1OL    H13S11214   0.279   3.376   4.831
    1OL    C11411215   0.185   3.234   4.962
    1OL    H14R11216   0.279   3.179   4.952
    1OL    H14S11217   0.105   3.161   4.946
    1OL    C11511218   0.171   3.284   5.106
    1OL    H15R11219   0.121   3.206   5.165
    1OL    H15S11220   0.109   3.373   5.109
    1OL    C11611221   0.303   3.317   5.174
    1OL    H16R11222   0.345   3.404   5.122
    1OL    H16S11223   0.371   3.232   5.164
    1OL    C11711224   0.285   3.350   5.322
    1OL    H17R11225   0.242   3.264   5.374
    1OL    H17S11226   0.216   3.435   5.332
    1OL    C11811227   0.416   3.389   5.391
    1OL    H18R11228   0.463   3.472   5.338
    1OL    H18S11229   0.485   3.304   5.394
    1OL    H18T11230   0.394   3.421   5.493
    1PA    C11611231   0.437   4.204   5.071
    1PA    H16R11232   0.459   4.143   4.984
    1PA    H16S11233   0.334   4.187   5.101
    1PA    H16T11234   0.503   4.172   5.153
    1PA    C11511235   0.459   4.353   5.040
    1PA    H15R11236   0.395   4.381   4.956
    1PA    H15S11237   0.426   4.413   5.126
    1PA    C11411238   0.605   4.389   5.009
    1PA    H14R11239   0.613   4.498   5.002
    1PA    H14S11240   0.670   4.357   5.091
    1PA    C11311241   0.655   4.326   4.877
    1PA    H13R11242   0.660   4.218   4.887
    1PA    H13S11243   0.583   4.348   4.798
    1PA    C11211244   0.794   4.380   4.836
    1PA    H12R11245   0.801   4.485   4.863
    1PA    H12S11246   0.872   4.326   4.891
    1PA    C11111247   0.817   4.366   4.684
    1PA    H11R11248   0.798   4.262   4.655
    1PA    H11S11249   0.744   4.427   4.631
    1PA    C11011250   0.959   4.405   4.638
    1PA    H10R11251   1.029   4.329   4.674
    1PA    H10S11252   0.962   4.401   4.529
    1PA     C1911253   1.007   4.543   4.685
    1PA     H9R11254   1.021   4.541   4.793
    1PA     H9S11255   1.107   4.559   4.642
    1PA     C1811256   0.916   4.663   4.649
    1PA     H8R11257   0.821   4.652   4.702
    1PA     H8S11258   0.963   4.754   4.686
    1PA     C1711259   0.887   4.678   4.499
    1PA     H7R11260   0.980   4.668   4.443
    1PA     H7S11261   0.821   4.597   4.466
    1PA     C1611262   0.824   4.814   4.462
    1PA     H6R11263   0.725   4.824   4.508
    1PA     H6S11264   0.887   4.894   4.503
    1PA     C1511265   0.813   4.834   4.310
    1PA     H5R11266   0.795   4.940   4.289
    1PA     H5S11267   0.909   4.809   4.265
    1PA     C1411268   0.701   4.751   4.244
    1PA     H4R11269   0.682   4.661   4.303
    1PA     H4S11270   0.608   4.809   4.246
    1PA     C1311271   0.731   4.707   4.099
    1PA     H3R11272   0.811   4.633   4.101
    1PA     H3S11273   0.642   4.656   4.060
    1PA     C1211274   0.771   4.822   4.004
    1PA     H2R11275   0.700   4.904   4.014
    1PA     H2S11276   0.870   4.860   4.031
    1PC     C1111277   0.774   4.780   3.858
    1PC     O1211278   0.717   4.842   3.771
    1PC     O1111279   0.848   4.669   3.835
    1PC      C111280   0.840   4.604   3.703
    1PC      HR11281   0.837   4.677   3.623
    1PC      HS11282   0.931   4.544   3.691
    1PC      C211283   0.717   4.510   3.697
    1PC      HX11284   0.700   4.474   3.799
    1PC      C311285   0.737   4.385   3.606
    1PC      HA11286   0.839   4.348   3.612
    1PC      HB11287   0.670   4.308   3.645
    1PC     O3111288   0.699   4.407   3.468
    1PC     P3111289   0.808   4.431   3.353
    1PC     O3211290   0.719   4.503   3.242
    1PC     C3111291   0.655   4.630   3.267
    1PC     H1A11292   0.613   4.632   3.368
    1PC     H1B11293   0.730   4.709   3.258
    1PC     C3211294   0.544   4.647   3.161
    1PC     H2A11295   0.512   4.751   3.157
    1PC     H2B11296   0.587   4.620   3.064
    1PC     N3111297   0.417   4.565   3.175
    1PC     C3311298   0.443   4.421   3.201
    1PC     H3A11299   0.504   4.382   3.119
    1PC     H3B11300   0.498   4.413   3.295
    1PC     H3C11301   0.347   4.370   3.207
    1PC     C3411302   0.330   4.618   3.284
    1PC     H4A11303   0.239   4.557   3.289
    1PC     H4B11304   0.383   4.611   3.379
    1PC     H4C11305   0.302   4.721   3.263
    1PC     C3511306   0.340   4.573   3.047
    1PC     H5A11307   0.400   4.529   2.967
    1PC     H5B11308   0.317   4.677   3.026
    1PC     H5C11309   0.247   4.516   3.061
    1PC     O3311310   0.910   4.525   3.404
    1PC     O3411311   0.847   4.299   3.299
    1PC     O2111312   0.602   4.588   3.654
    1PC     C2111313   0.480   4.545   3.691
    1PC     O2211314   0.460   4.438   3.746
    1OL     C1211315   0.373   4.646   3.659
    1OL     H2R11316   0.298   4.599   3.594
    1OL     H2S11317   0.416   4.730   3.606
    1OL     C1311318   0.304   4.695   3.788
    1OL     H3R11319   0.259   4.609   3.838
    1OL     H3S11320   0.223   4.763   3.762
    1OL     C1411321   0.402   4.768   3.884
    1OL     H4R11322   0.435   4.860   3.837
    1OL     H4S11323   0.490   4.706   3.900
    1OL     C1511324   0.340   4.801   4.021
    1OL     H5R11325   0.248   4.859   4.007
    1OL     H5S11326   0.410   4.864   4.077
    1OL     C1611327   0.309   4.675   4.105
    1OL     H6R11328   0.402   4.621   4.124
    1OL     H6S11329   0.244   4.608   4.048
    1OL     C1711330   0.240   4.708   4.238
    1OL     H7R11331   0.154   4.772   4.218
    1OL     H7S11332   0.309   4.765   4.302
    1OL     C1811333   0.192   4.583   4.313
    1OL     H8R11334   0.127   4.526   4.246
    1OL     H8S11335   0.131   4.615   4.397
    1OL     C1911336   0.308   4.494   4.356
    1OL     H9R11337   0.366   4.451   4.275
    1OL    C11011338   0.341   4.465   4.481
    1OL    H10R11339   0.427   4.400   4.500
    1OL    C11111340   0.271   4.515   4.606
    1OL    H11R11341   0.267   4.436   4.680
    1OL    H11S11342   0.168   4.542   4.584
    1OL    C11211343   0.344   4.637   4.665
    1OL    H12R11344   0.280   4.683   4.740
    1OL    H12S11345   0.362   4.710   4.586
    1OL    C11311346   0.477   4.595   4.730
    1OL    H13R11347   0.534   4.533   4.661
    1OL    H13S11348   0.454   4.535   4.818
    1OL    C11411349   0.566   4.712   4.773
    1OL    H14R11350   0.598   4.766   4.683
    1OL    H14S11351   0.655   4.673   4.821
    1OL    C11511352   0.499   4.811   4.869
    1OL    H15R11353   0.481   4.762   4.965
    1OL    H15S11354   0.403   4.843   4.829
    1OL    C11611355   0.591   4.933   4.887
    1OL    H16R11356   0.603   4.983   4.791
    1OL    H16S11357   0.690   4.901   4.920
    1OL    C11711358   0.536   5.034   4.988
    1OL    H17R11359   0.596   5.125   4.978
    1OL    H17S11360   0.551   4.996   5.090
    1OL    C11811361   0.388   5.068   4.968
    1OL    H18R11362   0.367   5.086   4.863
    1OL    H18S11363   0.363   5.159   5.024
    1OL    H18T11364   0.324   4.987   5.003
    1PA    C11611365   4.562   5.451   5.225
    1PA    H16R11366   4.654   5.506   5.202
    1PA    H16S11367   4.591   5.361   5.279
    1PA    H16T11368   4.499   5.511   5.291
    1PA    C11511369   4.485   5.419   5.096
    1PA    H15R11370   4.549   5.363   5.027
    1PA    H15S11371   4.400   5.354   5.120
    1PA    C11411372   4.434   5.546   5.026
    1PA    H14R11373   4.384   5.517   4.934
    1PA    H14S11374   4.360   5.594   5.090
    1PA    C11311375   4.545   5.647   4.994
    1PA    H13R11376   4.500   5.730   4.939
    1PA    H13S11377   4.587   5.689   5.086
    1PA    C11211378   4.659   5.586   4.910
    1PA    H12R11379   4.718   5.515   4.969
    1PA    H12S11380   4.614   5.530   4.828
    1PA    C11111381   4.752   5.694   4.854
    1PA    H11R11382   4.692   5.783   4.835
    1PA    H11S11383   4.829   5.722   4.927
    1PA    C11011384   4.814   5.652   4.720
    1PA    H10R11385   4.741   5.592   4.666
    1PA    H10S11386   4.830   5.743   4.661
    1PA     C1911387   4.945   5.575   4.722
    1PA     H9R11388   5.023   5.634   4.771
    1PA     H9S11389   4.932   5.482   4.779
    1PA     C1811390   4.986   5.546   4.577
    1PA     H8R11391   4.905   5.492   4.526
    1PA     H8S11392   4.999   5.641   4.525
    1PA     C1711393   5.115   5.464   4.564
    1PA     H7R11394   5.191   5.506   4.631
    1PA     H7S11395   5.099   5.360   4.592
    1PA     C1611396   5.171   5.465   4.421
    1PA     H6R11397   5.191   5.569   4.393
    1PA     H6S11398   5.267   5.412   4.425
    1PA     C1511399   5.081   5.405   4.312
    1PA     H5R11400   5.060   5.301   4.337
    1PA     H5S11401   4.986   5.458   4.308
    1PA     C1411402   5.148   5.413   4.173
    1PA     H4R11403   5.086   5.361   4.099
    1PA     H4S11404   5.153   5.517   4.141
    1PA     C1311405   5.290   5.354   4.173
    1PA     H3R11406   5.354   5.422   4.231
    1PA     H3S11407   5.293   5.261   4.230
    1PA     C1211408   5.359   5.325   4.040
    1PA     H2R11409   5.466   5.344   4.048
    1PA     H2S11410   5.349   5.218   4.020
    1PC     C1111411   5.306   5.397   3.919
    1PC     O1211412   5.340   5.509   3.888
    1PC     O1111413   5.225   5.321   3.845
    1PC      C111414   5.209   5.362   3.707
    1PC      HR11415   5.181   5.468   3.703
    1PC      HS11416   5.303   5.348   3.654
    1PC      C211417   5.099   5.279   3.641
    1PC      HX11418   5.125   5.173   3.647
    1PC      C311419   5.088   5.320   3.492
    1PC      HA11420   5.083   5.429   3.483
    1PC      HB11421   5.177   5.284   3.440
    1PC     O3111422   4.971   5.262   3.430
    1PC     P3111423   4.837   5.347   3.412
    1PC     O3211424   4.866   5.419   3.271
    1PC     C3111425   4.905   5.344   3.155
    1PC     H1A11426   4.917   5.414   3.072
    1PC     H1B11427   5.002   5.297   3.176
    1PC     C3211428   4.801   5.237   3.121
    1PC     H2A11429   4.841   5.171   3.043
    1PC     H2B11430   4.784   5.176   3.210
    1PC     N3111431   4.665   5.281   3.074
    1PC     C3311432   4.675   5.322   2.932
    1PC     H3A11433   4.727   5.418   2.928
    1PC     H3B11434   4.729   5.245   2.877
    1PC     H3C11435   4.573   5.333   2.895
    1PC     C3411436   4.573   5.165   3.087
    1PC     H4A11437   4.613   5.081   3.030
    1PC     H4B11438   4.568   5.142   3.194
    1PC     H4C11439   4.475   5.195   3.051
    1PC     C3511440   4.604   5.394   3.153
    1PC     H5A11441   4.507   5.419   3.110
    1PC     H5B11442   4.671   5.480   3.151
    1PC     H5C11443   4.593   5.361   3.256
    1PC     O3311444   4.723   5.254   3.395
    1PC     O3411445   4.833   5.453   3.513
    1PC     O2111446   4.978   5.309   3.713
    1PC     C2111447   4.915   5.212   3.780
    1PC     O2211448   4.942   5.093   3.774
    1OL     C1211449   4.812   5.268   3.875
    1OL     H2R11450   4.712   5.242   3.839
    1OL     H2S11451   4.820   5.377   3.875
    1OL     C1311452   4.835   5.215   4.018
    1OL     H3R11453   4.939   5.234   4.046
    1OL     H3S11454   4.822   5.106   4.017
    1OL     C1411455   4.744   5.279   4.123
    1OL     H4R11456   4.641   5.272   4.088
    1OL     H4S11457   4.770   5.385   4.131
    1OL     C1511458   4.754   5.214   4.263
    1OL     H5R11459   4.850   5.239   4.309
    1OL     H5S11460   4.751   5.105   4.251
    1OL     C1611461   4.639   5.261   4.354
    1OL     H6R11462   4.545   5.252   4.299
    1OL     H6S11463   4.654   5.366   4.377
    1OL     C1711464   4.622   5.188   4.489
    1OL     H7R11465   4.621   5.080   4.474
    1OL     H7S11466   4.525   5.216   4.530
    1OL     C1811467   4.730   5.224   4.592
    1OL     H8R11468   4.733   5.333   4.602
    1OL     H8S11469   4.827   5.191   4.555
    1OL     C1911470   4.695   5.162   4.725
    1OL     H9R11471   4.591   5.173   4.755
    1OL    C11011472   4.779   5.098   4.806
    1OL    H10R11473   4.742   5.056   4.899
    1OL    C11111474   4.926   5.075   4.778
    1OL    H11R11475   4.935   5.027   4.680
    1OL    H11S11476   4.967   5.004   4.849
    1OL    C11211477   5.010   5.204   4.780
    1OL    H12R11478   4.960   5.279   4.719
    1OL    H12S11479   5.106   5.182   4.733
    1OL    C11311480   5.037   5.263   4.920
    1OL    H13R11481   5.055   5.179   4.988
    1OL    H13S11482   4.948   5.315   4.956
    1OL    C11411483   5.158   5.360   4.924
    1OL    H14R11484   5.123   5.462   4.909
    1OL    H14S11485   5.228   5.337   4.843
    1OL    C11511486   5.230   5.346   5.060
    1OL    H15R11487   5.237   5.239   5.076
    1OL    H15S11488   5.166   5.388   5.137
    1OL    C11611489   5.375   5.396   5.078
    1OL    H16R11490   5.389   5.500   5.047
    1OL    H16S11491   5.442   5.337   5.015
    1OL    C11711492   5.421   5.379   5.223
    1OL    H17R11493   5.530   5.383   5.229
    1OL    H17S11494   5.392   5.280   5.258
    1OL    C11811495   5.367   5.487   5.318
    1OL    H18R11496   5.401   5.468   5.420
    1OL    H18S11497   5.257   5.489   5.318
    1OL    H18T11498   5.403   5.586   5.287
    1PA    C11611499   0.438   0.572   4.851
    1PA    H16R11500   0.412   0.630   4.940
    1PA    H16S11501   0.528   0.615   4.807
    1PA    H16T11502   0.459   0.470   4.881
    1PA    C11511503   0.322   0.576   4.749
    1PA    H15R11504   0.231   0.540   4.797
    1PA    H15S11505   0.305   0.678   4.715
    1PA    C11411506   0.354   0.490   4.628
    1PA    H14R11507   0.445   0.529   4.580
    1PA    H14S11508   0.376   0.389   4.662
    1PA    C11311509   0.240   0.486   4.525
    1PA    H13R11510   0.144   0.482   4.578
    1PA    H13S11511   0.240   0.576   4.464
    1PA    C11211512   0.253   0.360   4.439
    1PA    H12R11513   0.252   0.276   4.508
    1PA    H12S11514   0.167   0.351   4.373
    1PA    C11111515   0.383   0.355   4.355
    1PA    H11R11516   0.365   0.404   4.259
    1PA    H11S11517   0.462   0.411   4.405
    1PA    C11011518   0.435   0.212   4.334
    1PA    H10R11519   0.438   0.160   4.430
    1PA    H10S11520   0.365   0.156   4.271
    1PA     C1911521   0.576   0.208   4.272
    1PA     H9R11522   0.646   0.254   4.343
    1PA     H9S11523   0.607   0.104   4.261
    1PA     C1811524   0.589   0.279   4.136
    1PA     H8R11525   0.562   0.385   4.146
    1PA     H8S11526   0.693   0.275   4.104
    1PA     C1711527   0.501   0.213   4.028
    1PA     H7R11528   0.528   0.108   4.020
    1PA     H7S11529   0.396   0.217   4.060
    1PA     C1611530   0.510   0.279   3.890
    1PA     H6R11531   0.470   0.381   3.896
    1PA     H6S11532   0.614   0.286   3.857
    1PA     C1511533   0.429   0.196   3.789
    1PA     H5R11534   0.480   0.101   3.771
    1PA     H5S11535   0.334   0.169   3.838
    1PA     C1411536   0.395   0.260   3.654
    1PA     H4R11537   0.486   0.265   3.595
    1PA     H4S11538   0.327   0.193   3.601
    1PA     C1311539   0.330   0.400   3.661
    1PA     H3R11540   0.247   0.400   3.732
    1PA     H3S11541   0.405   0.471   3.697
    1PA     C1211542   0.278   0.442   3.521
    1PA     H2R11543   0.344   0.402   3.444
    1PA     H2S11544   0.180   0.399   3.504
    1PC     C1111545   0.273   0.590   3.498
    1PC     O1211546   0.317   0.674   3.575
    1PC     O1111547   0.220   0.617   3.377
    1PC      C111548   0.241   0.749   3.320
    1PC      HR11549   0.160   0.769   3.250
    1PC      HS11550   0.237   0.823   3.400
    1PC      C211551   0.376   0.760   3.243
    1PC      HX11552   0.388   0.865   3.215
    1PC      C311553   0.377   0.675   3.114
    1PC      HA11554   0.295   0.707   3.049
    1PC      HB11555   0.470   0.692   3.060
    1PC     O3111556   0.360   0.534   3.139
    1PC     P3111557   0.374   0.430   3.019
    1PC     O3211558   0.512   0.356   3.049
    1PC     C3111559   0.631   0.432   3.076
    1PC     H1A11560   0.719   0.377   3.042
    1PC     H1B11561   0.628   0.528   3.023
    1PC     C3211562   0.639   0.454   3.228
    1PC     H2A11563   0.722   0.522   3.248
    1PC     H2B11564   0.546   0.500   3.261
    1PC     N3111565   0.659   0.335   3.317
    1PC     C3311566   0.667   0.387   3.456
    1PC     H3A11567   0.749   0.459   3.463
    1PC     H3B11568   0.571   0.433   3.480
    1PC     H3C11569   0.686   0.303   3.523
    1PC     C3411570   0.548   0.236   3.311
    1PC     H4A11571   0.542   0.197   3.209
    1PC     H4B11572   0.568   0.155   3.381
    1PC     H4C11573   0.454   0.286   3.335
    1PC     C3511574   0.786   0.264   3.283
    1PC     H5A11575   0.778   0.222   3.183
    1PC     H5B11576   0.804   0.184   3.355
    1PC     H5C11577   0.869   0.335   3.286
    1PC     O3311578   0.264   0.332   3.032
    1PC     O3411579   0.388   0.506   2.893
    1PC     O2111580   0.486   0.721   3.330
    1PC     C2111581   0.611   0.765   3.304
    1PC     O2211582   0.643   0.819   3.200
    1OL     C1211583   0.710   0.737   3.416
    1OL     H2R11584   0.775   0.824   3.428
    1OL     H2S11585   0.775   0.654   3.386
    1OL     C1311586   0.643   0.703   3.552
    1OL     H3R11587   0.581   0.614   3.541
    1OL     H3S11588   0.574   0.783   3.580
    1OL     C1411589   0.741   0.682   3.668
    1OL     H4R11590   0.796   0.774   3.688
    1OL     H4S11591   0.815   0.606   3.640
    1OL     C1511592   0.669   0.636   3.797
    1OL     H5R11593   0.743   0.619   3.875
    1OL     H5S11594   0.619   0.541   3.778
    1OL     C1611595   0.564   0.738   3.849
    1OL     H6R11596   0.489   0.757   3.773
    1OL     H6S11597   0.614   0.832   3.870
    1OL     C1711598   0.492   0.690   3.976
    1OL     H7R11599   0.565   0.674   4.056
    1OL     H7S11600   0.443   0.594   3.957
    1OL     C1811601   0.386   0.791   4.022
    1OL     H8R11602   0.307   0.797   3.948
    1OL     H8S11603   0.432   0.891   4.026
    1OL     C1911604   0.327   0.755   4.157
    1OL     H9R11605   0.248   0.680   4.154
    1OL    C11011606   0.364   0.806   4.274
    1OL    H10R11607   0.314   0.772   4.364
    1OL    C11111608   0.472   0.910   4.295
    1OL    H11R11609   0.449   0.969   4.383
    1OL    H11S11610   0.475   0.981   4.212
    1OL    C11211611   0.609   0.847   4.317
    1OL    H12R11612   0.680   0.927   4.336
    1OL    H12S11613   0.642   0.793   4.227
    1OL    C11311614   0.609   0.754   4.438
    1OL    H13R11615   0.542   0.670   4.422
    1OL    H13S11616   0.570   0.811   4.523
    1OL    C11411617   0.749   0.703   4.473
    1OL    H14R11618   0.824   0.781   4.457
    1OL    H14S11619   0.775   0.619   4.408
    1OL    C11511620   0.750   0.661   4.620
    1OL    H15R11621   0.669   0.590   4.638
    1OL    H15S11622   0.730   0.750   4.681
    1OL    C11611623   0.883   0.602   4.664
    1OL    H16R11624   0.908   0.640   4.763
    1OL    H16S11625   0.963   0.632   4.597
    1OL    C11711626   0.874   0.449   4.670
    1OL    H17R11627   0.855   0.407   4.571
    1OL    H17S11628   0.792   0.419   4.736
    1OL    C11811629   1.006   0.395   4.725
    1OL    H18R11630   1.087   0.425   4.657
    1OL    H18S11631   1.003   0.286   4.735
    1OL    H18T11632   1.029   0.441   4.821
    1PA    C11611633   0.901   5.329   4.894
    1PA    H16R11634   0.809   5.358   4.842
    1PA    H16S11635   0.944   5.418   4.941
    1PA    H16T11636   0.876   5.257   4.972
    1PA    C11511637   1.002   5.268   4.796
    1PA    H15R11638   1.095   5.246   4.848
    1PA    H15S11639   0.962   5.174   4.757
    1PA    C11411640   1.029   5.364   4.679
    1PA    H14R11641   0.936   5.385   4.627
    1PA    H14S11642   1.067   5.458   4.718
    1PA    C11311643   1.131   5.305   4.580
    1PA    H13R11644   1.226   5.288   4.631
    1PA    H13S11645   1.095   5.210   4.542
    1PA    C11211646   1.152   5.402   4.462
    1PA    H12R11647   1.059   5.412   4.407
    1PA    H12S11648   1.177   5.500   4.504
    1PA    C11111649   1.266   5.359   4.368
    1PA    H11R11650   1.361   5.396   4.408
    1PA    H11S11651   1.272   5.250   4.364
    1PA    C11011652   1.246   5.412   4.225
    1PA    H10R11653   1.210   5.515   4.228
    1PA    H10S11654   1.343   5.413   4.174
    1PA     C1911655   1.150   5.324   4.144
    1PA     H9R11656   1.186   5.221   4.146
    1PA     H9S11657   1.050   5.325   4.190
    1PA     C1811658   1.139   5.370   3.998
    1PA     H8R11659   1.077   5.460   3.994
    1PA     H8S11660   1.238   5.396   3.961
    1PA     C1711661   1.080   5.261   3.906
    1PA     H7R11662   1.142   5.171   3.915
    1PA     H7S11663   0.980   5.233   3.941
    1PA     C1611664   1.076   5.303   3.758
    1PA     H6R11665   1.178   5.316   3.722
    1PA     H6S11666   1.031   5.222   3.699
    1PA     C1511667   0.997   5.432   3.732
    1PA     H5R11668   1.043   5.515   3.786
    1PA     H5S11669   1.003   5.457   3.626
    1PA     C1411670   0.849   5.420   3.772
    1PA     H4R11671   0.798   5.356   3.701
    1PA     H4S11672   0.839   5.373   3.871
    1PA     C1311673   0.775   5.555   3.780
    1PA     H3R11674   0.670   5.533   3.796
    1PA     H3S11675   0.809   5.611   3.868
    1PA     C1211676   0.789   5.640   3.653
    1PA     H2R11677   0.810   5.577   3.567
    1PA     H2S11678   0.692   5.688   3.635
    1PC     C1111679   0.895   5.748   3.661
    1PC     O1211680   0.944   5.791   3.764
    1PC     O1111681   0.924   5.797   3.539
    1PC      C111682   1.048   5.871   3.521
    1PC      HR11683   1.033   5.942   3.439
    1PC      HS11684   1.073   5.928   3.610
    1PC      C211685   1.163   5.775   3.482
    1PC      HX11686   1.252   5.836   3.464
    1PC      C311687   1.138   5.697   3.353
    1PC      HA11688   1.092   5.762   3.278
    1PC      HB11689   1.235   5.665   3.315
    1PC     O3111690   1.055   5.579   3.370
    1PC     P3111691   1.044   5.478   3.248
    1PC     O3211692   1.194   5.426   3.238
    1PC     C3111693   1.257   5.353   3.345
    1PC     H1A11694   1.346   5.408   3.376
    1PC     H1B11695   1.189   5.347   3.431
    1PC     C3211696   1.293   5.212   3.294
    1PC     H2A11697   1.352   5.162   3.371
    1PC     H2B11698   1.200   5.156   3.278
    1PC     N3111699   1.371   5.201   3.164
    1PC     C3311700   1.281   5.220   3.047
    1PC     H3A11701   1.342   5.214   2.956
    1PC     H3B11702   1.206   5.142   3.047
    1PC     H3C11703   1.232   5.318   3.053
    1PC     C3411704   1.486   5.296   3.158
    1PC     H4A11705   1.448   5.398   3.164
    1PC     H4B11706   1.555   5.276   3.240
    1PC     H4C11707   1.537   5.282   3.062
    1PC     C3511708   1.427   5.063   3.151
    1PC     H5A11709   1.481   5.057   3.056
    1PC     H5B11710   1.344   4.992   3.148
    1PC     H5C11711   1.496   5.044   3.233
    1PC     O3311712   0.956   5.364   3.279
    1PC     O3411713   1.022   5.560   3.128
    1PC     O2111714   1.187   5.688   3.595
    1PC     C2111715   1.313   5.647   3.619
    1PC     O2211716   1.395   5.632   3.531
    1OL     C1211717   1.342   5.633   3.766
    1OL     H2R11718   1.450   5.644   3.782
    1OL     H2S11719   1.314   5.532   3.799
    1OL     C1311720   1.265   5.738   3.848
    1OL     H3R11721   1.159   5.713   3.844
    1OL     H3S11722   1.278   5.837   3.803
    1OL     C1411723   1.305   5.746   3.995
    1OL     H4R11724   1.404   5.791   4.005
    1OL     H4S11725   1.310   5.645   4.036
    1OL     C1511726   1.201   5.827   4.074
    1OL     H5R11727   1.104   5.778   4.064
    1OL     H5S11728   1.191   5.928   4.034
    1OL     C1611729   1.241   5.833   4.222
    1OL     H6R11730   1.310   5.915   4.238
    1OL     H6S11731   1.294   5.741   4.246
    1OL     C1711732   1.121   5.845   4.316
    1OL     H7R11733   1.038   5.784   4.279
    1OL     H7S11734   1.085   5.948   4.321
    1OL     C1811735   1.160   5.793   4.455
    1OL     H8R11736   1.196   5.690   4.444
    1OL     H8S11737   1.070   5.789   4.516
    1OL     C1911738   1.267   5.879   4.520
    1OL     H9R11739   1.263   5.984   4.494
    1OL    C11011740   1.359   5.836   4.605
    1OL    H10R11741   1.430   5.907   4.646
    1OL    C11111742   1.376   5.692   4.652
    1OL    H11R11743   1.477   5.679   4.690
    1OL    H11S11744   1.367   5.625   4.566
    1OL    C11211745   1.275   5.649   4.760
    1OL    H12R11746   1.285   5.542   4.775
    1OL    H12S11747   1.173   5.667   4.725
    1OL    C11311748   1.295   5.718   4.897
    1OL    H13R11749   1.270   5.824   4.889
    1OL    H13S11750   1.401   5.712   4.923
    1OL    C11411751   1.213   5.654   5.011
    1OL    H14R11752   1.252   5.687   5.107
    1OL    H14S11753   1.226   5.546   5.007
    1OL    C11511754   1.062   5.683   5.007
    1OL    H15R11755   1.010   5.613   5.073
    1OL    H15S11756   1.024   5.665   4.906
    1OL    C11611757   1.026   5.826   5.051
    1OL    H16R11758   1.094   5.897   5.003
    1OL    H16S11759   1.043   5.838   5.159
    1OL    C11711760   0.880   5.862   5.017
    1OL    H17R11761   0.809   5.808   5.080
    1OL    H17S11762   0.857   5.832   4.915
    1OL    C11811763   0.852   6.011   5.035
    1OL    H18R11764   0.864   6.037   5.140
    1OL    H18S11765   0.749   6.034   5.004
    1OL    H18T11766   0.920   6.071   4.976
    1PA    C11611767   0.182   0.052   5.135
    1PA    H16R11768   0.075   0.062   5.115
    1PA    H16S11769   0.235   0.130   5.080
    1PA    H16T11770   0.199   0.067   5.242
    1PA    C11511771   0.232  -0.088   5.094
    1PA    H15R11772   0.339  -0.095   5.112
    1PA    H15S11773   0.186  -0.163   5.158
    1PA    C11411774   0.204  -0.129   4.949
    1PA    H14R11775   0.203  -0.238   4.948
    1PA    H14S11776   0.103  -0.097   4.920
    1PA    C11311777   0.307  -0.076   4.847
    1PA    H13R11778   0.267   0.014   4.800
    1PA    H13S11779   0.399  -0.046   4.899
    1PA    C11211780   0.348  -0.178   4.739
    1PA    H12R11781   0.393  -0.123   4.656
    1PA    H12S11782   0.424  -0.246   4.778
    1PA    C11111783   0.228  -0.260   4.687
    1PA    H11R11784   0.200  -0.335   4.762
    1PA    H11S11785   0.144  -0.191   4.680
    1PA    C11011786   0.252  -0.332   4.553
    1PA    H10R11787   0.332  -0.282   4.498
    1PA    H10S11788   0.288  -0.433   4.573
    1PA     C1911789   0.126  -0.339   4.464
    1PA     H9R11790   0.155  -0.380   4.367
    1PA     H9S11791   0.055  -0.409   4.507
    1PA     C1811792   0.056  -0.203   4.441
    1PA     H8R11793  -0.017  -0.214   4.361
    1PA     H8S11794  -0.001  -0.176   4.531
    1PA     C1711795   0.155  -0.090   4.408
    1PA     H7R11796   0.239  -0.091   4.478
    1PA     H7S11797   0.198  -0.108   4.309
    1PA     C1611798   0.100   0.053   4.417
    1PA     H6R11799   0.069   0.073   4.519
    1PA     H6S11800   0.184   0.119   4.395
    1PA     C1511801  -0.014   0.091   4.322
    1PA     H5R11802  -0.104   0.041   4.359
    1PA     H5S11803  -0.031   0.198   4.330
    1PA     C1411804   0.008   0.056   4.175
    1PA     H4R11805   0.049  -0.045   4.167
    1PA     H4S11806  -0.090   0.054   4.127
    1PA     C1311807   0.094   0.152   4.093
    1PA     H3R11808   0.052   0.253   4.100
    1PA     H3S11809   0.195   0.156   4.134
    1PA     C1211810   0.097   0.109   3.945
    1PA     H2R11811  -0.005   0.111   3.904
    1PA     H2S11812   0.149   0.186   3.886
    1PC     C1111813   0.160  -0.028   3.924
    1PC     O1211814   0.269  -0.057   3.971
    1PC     O1111815   0.087  -0.116   3.852
    1PC      C111816   0.134  -0.255   3.842
    1PC      HR11817   0.238  -0.253   3.809
    1PC      HS11818   0.130  -0.301   3.941
    1PC      C211819   0.053  -0.342   3.741
    1PC      HX11820   0.109  -0.433   3.718
    1PC      C311821   0.030  -0.266   3.608
    1PC      HA11822  -0.014  -0.168   3.628
    1PC      HB11823   0.126  -0.251   3.559
    1PC     O3111824  -0.060  -0.339   3.519
    1PC     P3111825  -0.013  -0.384   3.373
    1PC     O3211826  -0.005  -0.246   3.295
    1PC     C3111827  -0.039  -0.241   3.156
    1PC     H1A11828  -0.046  -0.342   3.115
    1PC     H1B11829  -0.135  -0.190   3.145
    1PC     C3211830   0.071  -0.168   3.079
    1PC     H2A11831   0.043  -0.165   2.974
    1PC     H2B11832   0.078  -0.066   3.117
    1PC     N3111833   0.211  -0.226   3.084
    1PC     C3311834   0.287  -0.164   2.973
    1PC     H3A11835   0.240  -0.195   2.879
    1PC     H3B11836   0.281  -0.056   2.985
    1PC     H3C11837   0.390  -0.198   2.977
    1PC     C3411838   0.279  -0.191   3.212
    1PC     H4A11839   0.384  -0.222   3.205
    1PC     H4B11840   0.270  -0.083   3.227
    1PC     H4C11841   0.228  -0.245   3.292
    1PC     C3511842   0.213  -0.374   3.067
    1PC     H5A11843   0.317  -0.406   3.056
    1PC     H5B11844   0.153  -0.402   2.981
    1PC     H5C11845   0.171  -0.418   3.158
    1PC     O3311846   0.127  -0.432   3.375
    1PC     O3411847  -0.118  -0.462   3.303
    1PC     O2111848  -0.077  -0.380   3.795
    1PC     C2111849  -0.088  -0.493   3.869
    1PC     O2211850   0.009  -0.553   3.912
    1OL     C1211851  -0.231  -0.531   3.902
    1OL     H2R11852  -0.257  -0.623   3.848
    1OL     H2S11853  -0.297  -0.453   3.862
    1OL     C1311854  -0.257  -0.549   4.054
    1OL     H3R11855  -0.179  -0.499   4.111
    1OL     H3S11856  -0.251  -0.655   4.079
    1OL     C1411857  -0.394  -0.494   4.098
    1OL     H4R11858  -0.474  -0.556   4.055
    1OL     H4S11859  -0.406  -0.394   4.055
    1OL     C1511860  -0.416  -0.482   4.251
    1OL     H5R11861  -0.517  -0.443   4.268
    1OL     H5S11862  -0.346  -0.412   4.295
    1OL     C1611863  -0.401  -0.613   4.328
    1OL     H6R11864  -0.302  -0.654   4.310
    1OL     H6S11865  -0.475  -0.683   4.290
    1OL     C1711866  -0.423  -0.595   4.480
    1OL     H7R11867  -0.463  -0.689   4.519
    1OL     H7S11868  -0.504  -0.523   4.493
    1OL     C1811869  -0.305  -0.552   4.570
    1OL     H8R11870  -0.328  -0.585   4.671
    1OL     H8S11871  -0.305  -0.443   4.573
    1OL     C1911872  -0.163  -0.594   4.532
    1OL     H9R11873  -0.115  -0.526   4.463
    1OL    C11011874  -0.092  -0.700   4.574
    1OL    H10R11875   0.009  -0.712   4.536
    1OL    C11111876  -0.136  -0.810   4.669
    1OL    H11R11877  -0.145  -0.902   4.610
    1OL    H11S11878  -0.236  -0.789   4.708
    1OL    C11211879  -0.038  -0.854   4.778
    1OL    H12R11880   0.060  -0.870   4.733
    1OL    H12S11881  -0.070  -0.950   4.818
    1OL    C11311882  -0.023  -0.756   4.895
    1OL    H13R11883   0.022  -0.666   4.853
    1OL    H13S11884   0.048  -0.797   4.967
    1OL    C11411885  -0.156  -0.728   4.966
    1OL    H14R11886  -0.186  -0.815   5.026
    1OL    H14S11887  -0.237  -0.710   4.896
    1OL    C11511888  -0.144  -0.606   5.057
    1OL    H15R11889  -0.079  -0.633   5.141
    1OL    H15S11890  -0.243  -0.582   5.096
    1OL    C11611891  -0.086  -0.480   4.990
    1OL    H16R11892   0.021  -0.493   4.970
    1OL    H16S11893  -0.093  -0.397   5.060
    1OL    C11711894  -0.160  -0.446   4.859
    1OL    H17R11895  -0.262  -0.415   4.882
    1OL    H17S11896  -0.168  -0.536   4.798
    1OL    C11811897  -0.091  -0.342   4.769
    1OL    H18R11898  -0.063  -0.251   4.823
    1OL    H18S11899  -0.156  -0.314   4.686
    1OL    H18T11900  -0.001  -0.387   4.727
    7Na+    Na+11901   1.214   3.878   0.344
    8Na+    Na+11902   0.110   3.872   8.582
    9Na+    Na+11903   3.607   4.323   8.972
   10Na+    Na+11904   4.654   2.800   1.944
   11Na+    Na+11905   5.221   3.750   0.581
   12Na+    Na+11906   2.645   2.433   8.135
   13Na+    Na+11907   3.116   1.971   1.953
   14Na+    Na+11908   0.697   2.067  10.242
   15Na+    Na+11909   4.543   2.609   0.137
   16Na+    Na+11910   4.664   2.441   9.099
   17Na+    Na+11911   2.287   0.372   2.477
   18Na+    Na+11912   2.649   4.424   0.454
   19Na+    Na+11913   1.384   1.765   2.045
   20Na+    Na+11914   2.897   3.500   8.228
   21Cl-    Cl-11915   0.270   5.121   0.954
   22Cl-    Cl-11916   0.463   4.565   8.784
   23Cl-    Cl-11917   3.125   4.586   7.919
   24Cl-    Cl-11918   0.138   4.130   2.210
   25Cl-    Cl-11919   3.119   4.770   8.664
   26Cl-    Cl-11920   1.992   5.264   2.508
   27Cl-    Cl-11921   0.675   1.093   2.454
   28Cl-    Cl-11922   3.025   3.763   1.651
   29Cl-    Cl-11923   2.036   3.508   0.598
   30Cl-    Cl-11924   3.224   1.929   8.215
   31Cl-    Cl-11925   4.592   2.892   0.550
   32Cl-    Cl-11926   3.262   3.492   8.817
   33Cl-    Cl-11927   1.698   1.908   8.302
   34Cl-    Cl-11928   2.911   5.399   0.190
   35Cl-    Cl-11929   3.711   3.095   2.259
   36Cl-    Cl-11930   1.815   0.537   1.034
   37Cl-    Cl-11931   3.383   2.272   2.671
   38TP3      O11932   1.203   1.007   7.807
   38TP3     H111933   1.182   1.101   7.801
   38TP3     H211934   1.147   0.966   7.741
   39TP3      O11935   1.081   0.923   8.214
   39TP3     H111936   1.115   0.876   8.291
   39TP3     H211937   1.037   0.855   8.162
   40TP3      O11938   0.313   0.866   8.353
   40TP3     H111939   0.318   0.783   8.401
   40TP3     H211940   0.399   0.876   8.313
   41TP3      O11941   1.471   1.219   8.033
   41TP3     H111942   1.434   1.141   8.074
   41TP3     H211943   1.489   1.279   8.106
   42TP3      O11944   0.454   1.332   8.144
   42TP3     H111945   0.424   1.245   8.121
   42TP3     H211946   0.548   1.323   8.158
   43TP3      O11947   0.038   0.705   7.688
   43TP3     H111948  -0.028   0.751   7.740
   43TP3     H211949   0.061   0.629   7.740
   44TP3      O11950   0.169   0.922   8.005
   44TP3     H111951   0.199   0.832   7.998
   44TP3     H211952   0.249   0.975   7.993
   45TP3      O11953   1.203   1.701   8.068
   45TP3     H111954   1.233   1.650   7.992
   45TP3     H211955   1.193   1.636   8.138
   46TP3      O11956   0.928   1.171   8.224
   46TP3     H111957   0.965   1.090   8.190
   46TP3     H211958   0.997   1.207   8.279
   47TP3      O11959   1.823   0.316   8.310
   47TP3     H111960   1.835   0.387   8.373
   47TP3     H211961   1.885   0.336   8.240
   48TP3      O11962   1.249   0.590   8.230
   48TP3     H111963   1.267   0.497   8.242
   48TP3     H211964   1.231   0.599   8.136
   49TP3      O11965   0.615   0.415   7.970
   49TP3     H111966   0.617   0.500   7.928
   49TP3     H211967   0.573   0.357   7.907
   50TP3      O11968   1.359   0.448   7.803
   50TP3     H111969   1.400   0.413   7.882
   50TP3     H211970   1.430   0.490   7.755
   51TP3      O11971   0.261   0.660   8.027
   51TP3     H111972   0.321   0.609   8.080
   51TP3     H211973   0.270   0.624   7.939
   52TP3      O11974   0.709   0.804   8.022
   52TP3     H111975   0.796   0.769   8.045
   52TP3     H211976   0.674   0.740   7.960
   53TP3      O11977   1.843   0.473   8.537
   53TP3     H111978   1.779   0.539   8.513
   53TP3     H211979   1.814   0.441   8.623
   54TP3      O11980   0.454   0.333   8.391
   54TP3     H111981   0.424   0.378   8.312
   54TP3     H211982   0.381   0.341   8.452
   55TP3      O11983   1.120   1.253   7.713
   55TP3     H111984   1.132   1.251   7.618
   55TP3     H211985   1.098   1.345   7.732
   56TP3      O11986   0.706   1.089   8.365
   56TP3     H111987   0.656   1.162   8.403
   56TP3     H211988   0.778   1.131   8.318
   57TP3      O11989   1.470   0.393   8.044
   57TP3     H111990   1.424   0.340   8.109
   57TP3     H211991   1.530   0.447   8.095
   58TP3      O11992   0.433   0.494   8.164
   58TP3     H111993   0.493   0.545   8.219
   58TP3     H211994   0.490   0.450   8.102
   59TP3      O11995   0.556   1.296   8.480
   59TP3     H111996   0.561   1.391   8.465
   59TP3     H211997   0.464   1.281   8.503
   60TP3      O11998   0.168   1.299   7.508
   60TP3     H111999   0.082   1.342   7.507
   60TP3     H212000   0.217   1.345   7.575
   61TP3      O12001   1.497   1.400   8.246
   61TP3     H112002   1.402   1.411   8.255
   61TP3     H212003   1.527   1.484   8.210
   62TP3      O12004   1.581   0.243   8.427
   62TP3     H112005   1.505   0.251   8.370
   62TP3     H212006   1.656   0.264   8.371
   63TP3      O12007   0.817   0.074   8.115
   63TP3     H112008   0.800  -0.020   8.121
   63TP3     H212009   0.745   0.115   8.162
   64TP3      O12010   1.312   1.582   7.846
   64TP3     H112011   1.351   1.495   7.832
   64TP3     H212012   1.385   1.642   7.837
   65TP3      O12013   1.441   1.355   7.796
   65TP3     H112014   1.474   1.302   7.723
   65TP3     H212015   1.453   1.299   7.873
   66TP3      O12016   1.613   1.220   8.585
   66TP3     H112017   1.606   1.162   8.509
   66TP3     H212018   1.627   1.307   8.547
   67TP3      O12019   1.086   0.918   7.568
   67TP3     H112020   1.017   0.980   7.545
   67TP3     H212021   1.155   0.934   7.504
   68TP3      O12022   1.786   0.885   8.419
   68TP3     H112023   1.713   0.946   8.408
   68TP3     H212024   1.846   0.907   8.348
   69TP3      O12025   1.431   0.957   7.664
   69TP3     H112026   1.358   0.975   7.724
   69TP3     H212027   1.494   0.908   7.717
   70TP3      O12028   1.387   0.761   8.614
   70TP3     H112029   1.377   0.835   8.674
   70TP3     H212030   1.325   0.778   8.543
   71TP3      O12031   0.587   0.995   7.859
   71TP3     H112032   0.553   0.949   7.783
   71TP3     H212033   0.638   0.929   7.907
   72TP3      O12034   0.735   1.349   8.122
   72TP3     H112035   0.738   1.350   8.026
   72TP3     H212036   0.806   1.291   8.148
   73TP3      O12037   0.563   0.897   8.234
   73TP3     H112038   0.618   0.869   8.161
   73TP3     H212039   0.616   0.962   8.280
   74TP3      O12040   1.233   1.452   8.290
   74TP3     H112041   1.223   1.520   8.358
   74TP3     H212042   1.196   1.374   8.330
   75TP3      O12043   0.717   1.328   8.703
   75TP3     H112044   0.655   1.387   8.745
   75TP3     H212045   0.672   1.298   8.624
   76TP3      O12046   1.380   0.868   7.410
   76TP3     H112047   1.402   0.906   7.495
   76TP3     H212048   1.451   0.895   7.352
   77TP3      O12049   0.415   0.933   8.634
   77TP3     H112050   0.403   1.004   8.697
   77TP3     H212051   0.352   0.952   8.565
   78TP3      O12052   1.074   1.536   7.717
   78TP3     H112053   1.154   1.540   7.768
   78TP3     H212054   1.046   1.627   7.709
   79TP3      O12055   0.519   1.515   8.766
   79TP3     H112056   0.532   1.542   8.674
   79TP3     H212057   0.424   1.514   8.777
   80TP3      O12058   1.685   0.108   7.428
   80TP3     H112059   1.610   0.094   7.486
   80TP3     H212060   1.750   0.150   7.484
   81TP3      O12061   0.471   0.885   7.627
   81TP3     H112062   0.406   0.943   7.587
   81TP3     H212063   0.424   0.803   7.642
   82TP3      O12064   1.787   1.495   7.289
   82TP3     H112065   1.760   1.510   7.199
   82TP3     H212066   1.847   1.421   7.285
   83TP3      O12067   0.150   1.099   8.515
   83TP3     H112068   0.111   1.089   8.429
   83TP3     H212069   0.122   1.021   8.563
   84TP3      O12070   0.062   1.486   8.196
   84TP3     H112071   0.065   1.391   8.186
   84TP3     H212072   0.113   1.504   8.275
   85TP3      O12073   1.868   1.489   8.797
   85TP3     H112074   1.854   1.394   8.790
   85TP3     H212075   1.784   1.523   8.828
   86TP3      O12076   0.957   1.450   8.652
   86TP3     H112077   0.954   1.534   8.698
   86TP3     H212078   0.873   1.409   8.671
   87TP3      O12079   1.044   1.796   7.632
   87TP3     H112080   1.037   1.805   7.537
   87TP3     H212081   1.030   1.884   7.667
   88TP3      O12082   0.395   1.676   7.824
   88TP3     H112083   0.403   1.641   7.912
   88TP3     H212084   0.332   1.619   7.781
   89TP3      O12085   1.305   1.730   7.291
   89TP3     H112086   1.383   1.746   7.238
   89TP3     H212087   1.338   1.725   7.381
   90TP3      O12088   1.322   1.755   7.574
   90TP3     H112089   1.234   1.737   7.607
   90TP3     H212090   1.380   1.721   7.642
   91TP3      O12091   1.565   0.639   8.803
   91TP3     H112092   1.506   0.681   8.741
   91TP3     H212093   1.571   0.549   8.773
   92TP3      O12094   0.297   1.306   8.612
   92TP3     H112095   0.341   1.257   8.681
   92TP3     H212096   0.237   1.244   8.571
   93TP3      O12097   0.583   0.137   8.253
   93TP3     H112098   0.523   0.131   8.179
   93TP3     H212099   0.543   0.201   8.312
   94TP3      O12100   1.040   0.079   8.563
   94TP3     H112101   1.037   0.038   8.649
   94TP3     H212102   0.948   0.098   8.543
   95TP3      O12103   1.319   0.490   8.629
   95TP3     H112104   1.257   0.473   8.701
   95TP3     H212105   1.325   0.585   8.625
   96TP3      O12106   0.581   0.643   8.342
   96TP3     H112107   0.512   0.638   8.408
   96TP3     H212108   0.578   0.734   8.312
   97TP3      O12109   0.590   0.650   7.831
   97TP3     H112110   0.498   0.629   7.816
   97TP3     H212111   0.632   0.636   7.745
   98TP3      O12112   1.128   0.678   7.694
   98TP3     H112113   1.104   0.763   7.656
   98TP3     H212114   1.201   0.648   7.640
   99TP3      O12115   1.043   0.690   8.817
   99TP3     H112116   0.988   0.619   8.852
   99TP3     H212117   1.126   0.680   8.862
  100TP3      O12118   1.211   0.620   7.960
  100TP3     H112119   1.173   0.673   7.890
  100TP3     H212120   1.255   0.548   7.915
  101TP3      O12121   0.365   0.635   8.511
  101TP3     H112122   0.388   0.672   8.596
  101TP3     H212123   0.317   0.555   8.531
  102TP3      O12124   0.088   0.470   7.829
  102TP3     H112125   0.097   0.439   7.919
  102TP3     H212126   0.077   0.390   7.778
  103TP3      O12127   0.101   0.449   7.449
  103TP3     H112128   0.191   0.424   7.430
  103TP3     H212129   0.058   0.453   7.364
  104TP3      O12130   1.177   0.761   8.423
  104TP3     H112131   1.211   0.704   8.355
  104TP3     H212132   1.111   0.709   8.468
  105TP3      O12133   0.895   0.392   7.930
  105TP3     H112134   0.803   0.390   7.958
  105TP3     H212135   0.942   0.354   8.004
  106TP3      O12136   0.347   0.547   7.774
  106TP3     H112137   0.254   0.527   7.764
  106TP3     H212138   0.391   0.465   7.757
  107TP3      O12139   0.692   0.588   7.588
  107TP3     H112140   0.781   0.558   7.608
  107TP3     H212141   0.699   0.621   7.498
  108TP3      O12142   1.267   0.314   8.255
  108TP3     H112143   1.222   0.323   8.339
  108TP3     H212144   1.199   0.286   8.194
  109TP3      O12145   0.597   0.631   7.318
  109TP3     H112146   0.509   0.605   7.342
  109TP3     H212147   0.641   0.550   7.293
  110TP3      O12148   1.615   1.873   8.885
  110TP3     H112149   1.641   1.901   8.797
  110TP3     H212150   1.687   1.900   8.942
  111TP3      O12151   0.391   1.150   8.818
  111TP3     H112152   0.454   1.137   8.889
  111TP3     H212153   0.306   1.152   8.862
  112TP3      O12154   0.948   0.690   8.110
  112TP3     H112155   1.013   0.638   8.063
  112TP3     H212156   0.918   0.632   8.180
  113TP3      O12157   0.479   0.305   7.758
  113TP3     H112158   0.411   0.241   7.779
  113TP3     H212159   0.531   0.262   7.690
  114TP3      O12160   0.840   0.554   8.329
  114TP3     H112161   0.754   0.596   8.339
  114TP3     H212162   0.889   0.581   8.407
  115TP3      O12163   0.872   1.090   7.501
  115TP3     H112164   0.803   1.033   7.467
  115TP3     H212165   0.834   1.128   7.580
  116TP3      O12166   1.592   1.069   8.357
  116TP3     H112167   1.651   1.125   8.306
  116TP3     H212168   1.519   1.050   8.297
  117TP3      O12169   1.034   1.163   8.644
  117TP3     H112170   1.059   1.124   8.728
  117TP3     H212171   1.007   1.252   8.667
  118TP3      O12172   1.333   0.617   7.523
  118TP3     H112173   1.420   0.600   7.561
  118TP3     H212174   1.345   0.698   7.473
  119TP3      O12175   0.416   1.069   8.060
  119TP3     H112176   0.474   1.054   7.985
  119TP3     H212177   0.449   1.009   8.128
  120TP3      O12178   1.082   1.263   7.434
  120TP3     H112179   1.045   1.349   7.417
  120TP3     H212180   1.006   1.206   7.447
  121TP3      O12181   0.084   0.866   8.648
  121TP3     H112182   0.136   0.836   8.723
  121TP3     H212183   0.043   0.787   8.614
  122TP3      O12184   0.824   0.871   8.835
  122TP3     H112185   0.760   0.833   8.774
  122TP3     H212186   0.906   0.824   8.815
  123TP3      O12187   1.241   1.428   8.648
  123TP3     H112188   1.149   1.434   8.622
  123TP3     H212189   1.240   1.444   8.743
  124TP3      O12190   1.776   0.618   7.482
  124TP3     H112191   1.837   0.579   7.419
  124TP3     H212192   1.775   0.711   7.460
  125TP3      O12193   1.830   1.211   8.746
  125TP3     H112194   1.744   1.223   8.706
  125TP3     H212195   1.889   1.197   8.672
  126TP3      O12196   1.653   1.506   7.531
  126TP3     H112197   1.614   1.421   7.551
  126TP3     H212198   1.694   1.495   7.446
  127TP3      O12199   1.380   0.994   8.179
  127TP3     H112200   1.285   0.986   8.171
  127TP3     H212201   1.414   0.917   8.135
  128TP3      O12202   0.664   1.419   7.854
  128TP3     H112203   0.685   1.504   7.815
  128TP3     H212204   0.571   1.425   7.875
  129TP3      O12205   0.729   1.186   7.715
  129TP3     H112206   0.721   1.268   7.762
  129TP3     H212207   0.684   1.122   7.771
  130TP3      O12208   0.846   1.594   8.428
  130TP3     H112209   0.904   1.667   8.405
  130TP3     H212210   0.900   1.536   8.482
  131TP3      O12211   0.655   1.683   7.745
  131TP3     H112212   0.563   1.691   7.769
  131TP3     H212213   0.695   1.763   7.779
  132TP3      O12214   1.142   1.212   8.398
  132TP3     H112215   1.106   1.190   8.484
  132TP3     H212216   1.207   1.144   8.381
  133TP3      O12217   1.448   1.623   8.616
  133TP3     H112218   1.369   1.570   8.605
  133TP3     H212219   1.435   1.698   8.559
  134TP3      O12220   0.247   0.375   8.565
  134TP3     H112221   0.170   0.339   8.521
  134TP3     H212222   0.267   0.311   8.634
  135TP3      O12223   1.544   1.203   7.587
  135TP3     H112224   1.492   1.124   7.603
  135TP3     H212225   1.634   1.172   7.579
  136TP3      O12226   0.226   1.571   8.413
  136TP3     H112227   0.248   1.492   8.462
  136TP3     H212228   0.244   1.643   8.474
  137TP3      O12229   0.319   1.067   7.483
  137TP3     H112230   0.259   1.139   7.501
  137TP3     H212231   0.394   1.108   7.440
  138TP3      O12232   1.133   0.337   8.493
  138TP3     H112233   1.203   0.369   8.549
  138TP3     H212234   1.107   0.253   8.532
  139TP3      O12235   1.218   0.320   7.602
  139TP3     H112236   1.183   0.383   7.538
  139TP3     H212237   1.258   0.374   7.670
  140TP3      O12238   0.970   1.524   7.458
  140TP3     H112239   0.879   1.547   7.475
  140TP3     H212240   1.009   1.515   7.545
  141TP3      O12241   0.929   0.494   7.680
  141TP3     H112242   1.000   0.558   7.686
  141TP3     H212243   0.915   0.465   7.770
  142TP3      O12244   1.005   0.591   8.550
  142TP3     H112245   1.014   0.612   8.643
  142TP3     H212246   1.038   0.501   8.542
  143TP3      O12247   1.040   0.193   7.782
  143TP3     H112248   0.996   0.272   7.815
  143TP3     H212249   1.082   0.221   7.701
  144TP3      O12250   0.720   1.636   7.487
  144TP3     H112251   0.729   1.726   7.455
  144TP3     H212252   0.695   1.645   7.579
  145TP3      O12253   0.597   0.352   7.460
  145TP3     H112254   0.625   0.421   7.520
  145TP3     H212255   0.677   0.305   7.437
  146TP3      O12256   1.567   0.399   8.659
  146TP3     H112257   1.475   0.422   8.650
  146TP3     H212258   1.586   0.345   8.582
  147TP3      O12259   1.457   0.752   8.059
  147TP3     H112260   1.375   0.707   8.039
  147TP3     H212261   1.506   0.689   8.112
  148TP3      O12262   0.290   0.568   7.188
  148TP3     H112263   0.367   0.598   7.140
  148TP3     H212264   0.217   0.578   7.126
  149TP3      O12265   1.563   1.652   8.183
  149TP3     H112266   1.533   1.706   8.110
  149TP3     H212267   1.623   1.709   8.231
  150TP3      O12268   0.353   0.162   8.084
  150TP3     H112269   0.335   0.149   7.991
  150TP3     H212270   0.309   0.089   8.128
  151TP3      O12271   0.211   1.530   7.676
  151TP3     H112272   0.121   1.532   7.707
  151TP3     H212273   0.210   1.578   7.593
  152TP3      O12274   0.162   1.784   8.897
  152TP3     H112275   0.223   1.778   8.970
  152TP3     H212276   0.166   1.697   8.856
  153TP3      O12277   0.584   1.601   9.016
  153TP3     H112278   0.661   1.549   9.041
  153TP3     H212279   0.566   1.574   8.926
  154TP3      O12280   1.227   1.469   8.917
  154TP3     H112281   1.218   1.383   8.959
  154TP3     H212282   1.305   1.507   8.958
  155TP3      O12283   0.142   1.150   8.930
  155TP3     H112284   0.142   1.058   8.905
  155TP3     H212285   0.051   1.178   8.920
  156TP3      O12286   0.785   1.145   8.900
  156TP3     H112287   0.772   1.190   8.817
  156TP3     H212288   0.812   1.057   8.876
  157TP3      O12289   1.362   1.172   8.682
  157TP3     H112290   1.451   1.189   8.651
  157TP3     H212291   1.313   1.251   8.660
  158TP3      O12292   0.217   0.841   8.894
  158TP3     H112293   0.268   0.761   8.884
  158TP3     H212294   0.220   0.860   8.987
  159TP3      O12295   0.661   0.916   7.422
  159TP3     H112296   0.608   0.911   7.502
  159TP3     H212297   0.644   0.833   7.377
  160TP3      O12298   0.626   0.763   8.653
  160TP3     H112299   0.553   0.825   8.649
  160TP3     H212300   0.688   0.795   8.587
  161TP3      O12301   1.138   0.998   8.946
  161TP3     H112302   1.216   0.961   8.906
  161TP3     H212303   1.104   0.928   9.002
  162TP3      O12304   0.667   0.508   8.733
  162TP3     H112305   0.679   0.452   8.656
  162TP3     H212306   0.655   0.596   8.697
  163TP3      O12307   0.704   0.365   8.496
  163TP3     H112308   0.755   0.410   8.429
  163TP3     H212309   0.616   0.360   8.458
  164TP3      O12310   0.811   0.871   8.493
  164TP3     H112311   0.906   0.882   8.493
  164TP3     H212312   0.779   0.951   8.451
  165TP3      O12313   1.265   0.637   8.987
  165TP3     H112314   1.263   0.563   9.048
  165TP3     H212315   1.357   0.646   8.963
  166TP3      O12316   1.403   0.954   8.836
  166TP3     H112317   1.380   1.033   8.787
  166TP3     H212318   1.499   0.951   8.834
  167TP3      O12319   0.505   0.564   8.956
  167TP3     H112320   0.420   0.524   8.938
  167TP3     H212321   0.555   0.552   8.875
  168TP3      O12322   0.765   0.100   8.516
  168TP3     H112323   0.752   0.194   8.523
  168TP3     H212324   0.707   0.073   8.444
  169TP3      O12325   0.888   0.484   8.896
  169TP3     H112326   0.850   0.452   8.977
  169TP3     H212327   0.815   0.486   8.834
  170TP3      O12328   1.141   0.399   8.806
  170TP3     H112329   1.057   0.407   8.851
  170TP3     H212330   1.199   0.357   8.870
  171TP3      O12331   1.339   0.288   8.975
  171TP3     H112332   1.313   0.196   8.974
  171TP3     H212333   1.306   0.322   9.058
  172TP3      O12334   0.275   0.416   8.901
  172TP3     H112335   0.281   0.342   8.840
  172TP3     H212336   0.285   0.377   8.988
  173TP3      O12337   0.758   0.034   8.791
  173TP3     H112338   0.845  -0.004   8.798
  173TP3     H212339   0.747   0.052   8.698
  174TP3      O12340   0.853   0.185   9.003
  174TP3     H112341   0.814   0.131   8.934
  174TP3     H212342   0.788   0.252   9.020
  175TP3      O12343   0.801   1.881   7.361
  175TP3     H112344   0.884   1.836   7.344
  175TP3     H212345   0.826   1.959   7.411
  176TP3      O12346   0.197   1.267   7.222
  176TP3     H112347   0.168   1.276   7.313
  176TP3     H212348   0.119   1.238   7.175
  177TP3      O12349   0.065   1.854   7.796
  177TP3     H112350   0.023   1.812   7.721
  177TP3     H212351   0.070   1.786   7.862
  178TP3      O12352   0.075   1.671   7.990
  178TP3     H112353   0.052   1.585   8.026
  178TP3     H212354   0.136   1.708   8.053
  179TP3      O12355   1.892   1.670   8.296
  179TP3     H112356   1.890   1.658   8.391
  179TP3     H212357   1.840   1.749   8.281
  180TP3      O12358   1.821   1.652   8.576
  180TP3     H112359   1.758   1.593   8.534
  180TP3     H212360   1.855   1.602   8.649
  181TP3      O12361   1.657   1.269   9.065
  181TP3     H112362   1.571   1.285   9.103
  181TP3     H212363   1.708   1.348   9.083
  182TP3      O12364   1.796   1.098   7.587
  182TP3     H112365   1.876   1.151   7.581
  182TP3     H212366   1.817   1.032   7.653
  183TP3      O12367   1.844   0.898   7.768
  183TP3     H112368   1.757   0.866   7.794
  183TP3     H212369   1.893   0.905   7.850
  184TP3      O12370   1.834   1.195   8.280
  184TP3     H112371   1.883   1.123   8.239
  184TP3     H212372   1.862   1.273   8.233
  185TP3      O12373   1.634   1.472   8.479
  185TP3     H112374   1.563   1.521   8.520
  185TP3     H212375   1.600   1.448   8.393
  186TP3      O12376   1.784   0.875   7.418
  186TP3     H112377   1.734   0.898   7.340
  186TP3     H212378   1.792   0.957   7.467
  187TP3      O12379   1.592   0.791   7.820
  187TP3     H112380   1.585   0.704   7.780
  187TP3     H212381   1.550   0.781   7.906
  188TP3      O12382   0.082   0.971   8.257
  188TP3     H112383   0.097   0.972   8.162
  188TP3     H212384   0.165   0.942   8.294
  189TP3      O12385   1.681   0.966   8.827
  189TP3     H112386   1.736   0.891   8.803
  189TP3     H212387   1.724   1.041   8.787
  190TP3      O12388   1.820   0.738   8.782
  190TP3     H112389   1.734   0.697   8.783
  190TP3     H212390   1.879   0.671   8.818
  191TP3      O12391   1.575   0.555   7.655
  191TP3     H112392   1.598   0.463   7.667
  191TP3     H212393   1.643   0.589   7.597
  192TP3      O12394   1.616   0.570   8.202
  192TP3     H112395   1.709   0.583   8.181
  192TP3     H212396   1.610   0.587   8.296
  193TP3      O12397   1.640   0.658   8.468
  193TP3     H112398   1.559   0.690   8.508
  193TP3     H212399   1.692   0.737   8.454
  194TP3      O12400   0.031   0.519   8.810
  194TP3     H112401   0.116   0.488   8.841
  194TP3     H212402  -0.002   0.448   8.755
  195TP3      O12403   1.870   0.135   9.003
  195TP3     H112404   1.933   0.073   8.967
  195TP3     H212405   1.851   0.194   8.931
  196TP3      O12406   1.621   0.292   7.679
  196TP3     H112407   1.646   0.246   7.759
  196TP3     H212408   1.550   0.238   7.643
  197TP3      O12409   0.161   0.363   8.074
  197TP3     H112410   0.228   0.294   8.080
  197TP3     H212411   0.187   0.427   8.140
  198TP3      O12412   0.052   0.689   8.217
  198TP3     H112413   0.118   0.675   8.149
  198TP3     H212414   0.055   0.783   8.235
  199TP3      O12415   1.797   0.298   8.797
  199TP3     H112416   1.715   0.333   8.831
  199TP3     H212417   1.771   0.230   8.735
  200TP3      O12418   0.094   0.259   7.642
  200TP3     H112419  -0.000   0.243   7.647
  200TP3     H212420   0.103   0.328   7.576
  201TP3      O12421   1.506   1.767   7.800
  201TP3     H112422   1.587   1.754   7.751
  201TP3     H212423   1.532   1.814   7.879
  202TP3      O12424   0.057   0.202   8.446
  202TP3     H112425   0.026   0.135   8.507
  202TP3     H212426  -0.017   0.215   8.386
  203TP3      O12427   0.243   1.499   8.822
  203TP3     H112428   0.231   1.435   8.752
  203TP3     H212429   0.223   1.451   8.902
  204TP3      O12430   0.584   1.574   8.502
  204TP3     H112431   0.557   1.662   8.477
  204TP3     H212432   0.678   1.572   8.482
  205TP3      O12433   0.959   1.693   8.790
  205TP3     H112434   0.972   1.661   8.879
  205TP3     H212435   1.039   1.742   8.770
  206TP3      O12436   1.192   1.833   8.747
  206TP3     H112437   1.258   1.785   8.696
  206TP3     H212438   1.238   1.861   8.826
  207TP3      O12439   1.716   0.098   8.625
  207TP3     H112440   1.656   0.133   8.559
  207TP3     H212441   1.740   0.011   8.592
  208TP3      O12442   0.283   1.867   8.520
  208TP3     H112443   0.213   1.915   8.477
  208TP3     H212444   0.292   1.909   8.606
  209TP3      O12445   0.542   1.836   8.436
  209TP3     H112446   0.450   1.848   8.461
  209TP3     H212447   0.550   1.882   8.352
  210TP3      O12448   0.991   1.813   8.342
  210TP3     H112449   0.946   1.851   8.267
  210TP3     H212450   1.004   1.887   8.402
  211TP3      O12451   1.214   1.684   8.438
  211TP3     H112452   1.138   1.727   8.400
  211TP3     H212453   1.285   1.748   8.427
  212TP3      O12454   1.431   1.853   8.454
  212TP3     H112455   1.429   1.947   8.474
  212TP3     H212456   1.508   1.843   8.398
  213TP3      O12457   0.258   1.735   8.185
  213TP3     H112458   0.237   1.689   8.266
  213TP3     H212459   0.331   1.685   8.147
  214TP3      O12460   0.460   1.592   8.077
  214TP3     H112461   0.447   1.501   8.103
  214TP3     H212462   0.547   1.614   8.111
  215TP3      O12463   0.720   1.622   8.180
  215TP3     H112464   0.732   1.532   8.149
  215TP3     H212465   0.755   1.620   8.269
  216TP3      O12466   1.049   0.233   8.101
  216TP3     H112467   0.978   0.170   8.112
  216TP3     H212468   1.111   0.189   8.043
  217TP3      O12469   1.507   0.053   8.033
  217TP3     H112470   1.577   0.094   7.982
  217TP3     H212471   1.427   0.092   7.999
  218TP3      O12472   1.716   0.134   7.879
  218TP3     H112473   1.741   0.064   7.818
  218TP3     H212474   1.797   0.185   7.890
  219TP3      O12475   0.272   0.136   7.821
  219TP3     H112476   0.208   0.158   7.753
  219TP3     H212477   0.294   0.044   7.804
  220TP3      O12478   0.171   0.093   7.434
  220TP3     H112479   0.142   0.137   7.513
  220TP3     H212480   0.089   0.069   7.389
  221TP3      O12481   0.778   0.085   7.837
  221TP3     H112482   0.858   0.117   7.796
  221TP3     H212483   0.795   0.092   7.931
  222TP3      O12484   1.245   0.110   7.949
  222TP3     H112485   1.192   0.130   7.872
  222TP3     H212486   1.223   0.019   7.971
  223TP3      O12487   1.421   0.138   7.574
  223TP3     H112488   1.348   0.200   7.581
  223TP3     H212489   1.382   0.053   7.592
  224TP3      O12490   0.199   1.667   7.440
  224TP3     H112491   0.132   1.648   7.376
  224TP3     H212492   0.207   1.763   7.438
  225TP3      O12493   0.335   0.325   7.417
  225TP3     H112494   0.313   0.232   7.423
  225TP3     H212495   0.430   0.328   7.432
  226TP3      O12496   0.860   0.278   7.516
  226TP3     H112497   0.902   0.290   7.431
  226TP3     H212498   0.894   0.349   7.570
  227TP3      O12499   1.043   1.761   7.339
  227TP3     H112500   1.135   1.758   7.314
  227TP3     H212501   1.021   1.672   7.365
  228TP3      O12502   1.731   1.746   7.634
  228TP3     H112503   1.707   1.659   7.601
  228TP3     H212504   1.720   1.804   7.559
  229TP3      O12505   0.289   0.181   8.762
  229TP3     H112506   0.223   0.117   8.788
  229TP3     H212507   0.371   0.146   8.799
  230TP3      O12508   0.503   0.076   8.909
  230TP3     H112509   0.588   0.067   8.868
  230TP3     H212510   0.494  -0.002   8.964
  231TP3      O12511   1.273   5.548   8.964
  231TP3     H112512   1.258   5.533   9.057
  231TP3     H212513   1.341   5.486   8.940
  232TP3      O12514   1.617   1.601   8.838
  232TP3     H112515   1.561   1.597   8.761
  232TP3     H212516   1.618   1.694   8.862
  233TP3      O12517   3.091   1.003   7.821
  233TP3     H112518   3.077   1.097   7.816
  233TP3     H212519   3.033   0.967   7.753
  234TP3      O12520   2.981   0.922   8.214
  234TP3     H112521   3.010   0.871   8.289
  234TP3     H212522   2.933   0.860   8.159
  235TP3      O12523   2.195   0.856   8.333
  235TP3     H112524   2.205   0.783   8.395
  235TP3     H212525   2.284   0.873   8.302
  236TP3      O12526   3.364   1.236   8.017
  236TP3     H112527   3.320   1.161   8.056
  236TP3     H212528   3.386   1.293   8.092
  237TP3      O12529   2.340   1.333   8.139
  237TP3     H112530   2.308   1.245   8.119
  237TP3     H212531   2.433   1.322   8.155
  238TP3      O12532   1.979   0.666   7.670
  238TP3     H112533   1.950   0.753   7.699
  238TP3     H212534   1.907   0.635   7.614
  239TP3      O12535   2.031   0.901   7.974
  239TP3     H112536   2.064   0.813   7.988
  239TP3     H212537   2.110   0.954   7.958
  240TP3      O12538   3.017   1.734   8.083
  240TP3     H112539   3.056   1.668   8.024
  240TP3     H212540   3.092   1.783   8.116
  241TP3      O12541   2.815   1.172   8.217
  241TP3     H112542   2.855   1.096   8.174
  241TP3     H212543   2.882   1.203   8.278
  242TP3      O12544   3.712   0.317   8.308
  242TP3     H112545   3.721   0.390   8.370
  242TP3     H212546   3.772   0.339   8.237
  243TP3      O12547   3.136   0.582   8.228
  243TP3     H112548   3.152   0.488   8.238
  243TP3     H212549   3.116   0.594   8.135
  244TP3      O12550   2.477   0.412   7.950
  244TP3     H112551   2.486   0.496   7.905
  244TP3     H212552   2.433   0.355   7.886
  245TP3      O12553   3.255   0.450   7.809
  245TP3     H112554   3.297   0.415   7.888
  245TP3     H212555   3.326   0.488   7.758
  246TP3      O12556   2.121   0.648   8.034
  246TP3     H112557   2.190   0.612   8.088
  246TP3     H212558   2.143   0.620   7.945
  247TP3      O12559   2.586   0.791   8.009
  247TP3     H112560   2.675   0.763   8.032
  247TP3     H212561   2.560   0.731   7.939
  248TP3      O12562   3.726   0.472   8.541
  248TP3     H112563   3.665   0.542   8.515
  248TP3     H212564   3.684   0.432   8.617
  249TP3      O12565   2.337   0.335   8.390
  249TP3     H112566   2.311   0.384   8.311
  249TP3     H212567   2.263   0.346   8.449
  250TP3      O12568   3.047   1.264   7.743
  250TP3     H112569   3.116   1.288   7.681
  250TP3     H212570   2.989   1.340   7.746
  251TP3      O12571   2.594   1.088   8.357
  251TP3     H112572   2.545   1.161   8.395
  251TP3     H212573   2.666   1.129   8.309
  252TP3      O12574   3.370   0.389   8.043
  252TP3     H112575   3.328   0.325   8.101
  252TP3     H212576   3.422   0.444   8.101
  253TP3      O12577   2.314   0.494   8.161
  253TP3     H112578   2.375   0.546   8.213
  253TP3     H212579   2.367   0.456   8.092
  254TP3      O12580   2.451   1.295   8.472
  254TP3     H112581   2.455   1.389   8.457
  254TP3     H212582   2.361   1.278   8.498
  255TP3      O12583   2.013   1.266   7.542
  255TP3     H112584   1.983   1.287   7.453
  255TP3     H212585   2.036   1.351   7.579
  256TP3      O12586   3.416   1.408   8.236
  256TP3     H112587   3.324   1.409   8.262
  256TP3     H212588   3.436   1.499   8.214
  257TP3      O12589   3.468   0.241   8.425
  257TP3     H112590   3.391   0.245   8.369
  257TP3     H212591   3.541   0.262   8.367
  258TP3      O12592   2.700   0.074   8.126
  258TP3     H112593   2.686  -0.021   8.130
  258TP3     H212594   2.624   0.111   8.171
  259TP3      O12595   3.191   1.569   7.861
  259TP3     H112596   3.229   1.483   7.842
  259TP3     H212597   3.265   1.628   7.865
  260TP3      O12598   3.353   1.350   7.764
  260TP3     H112599   3.368   1.280   7.701
  260TP3     H212600   3.358   1.307   7.850
  261TP3      O12601   3.507   1.209   8.592
  261TP3     H112602   3.495   1.155   8.514
  261TP3     H212603   3.516   1.298   8.558
  262TP3      O12604   2.944   0.924   7.605
  262TP3     H112605   2.890   1.000   7.584
  262TP3     H212606   2.972   0.890   7.520
  263TP3      O12607   3.014   0.809   7.368
  263TP3     H112608   3.085   0.866   7.339
  263TP3     H212609   2.939   0.836   7.316
  264TP3      O12610   3.673   0.889   8.415
  264TP3     H112611   3.599   0.948   8.404
  264TP3     H212612   3.733   0.912   8.344
  265TP3      O12613   3.320   0.940   7.683
  265TP3     H112614   3.242   0.957   7.736
  265TP3     H212615   3.377   0.888   7.740
  266TP3      O12616   3.277   0.762   8.609
  266TP3     H112617   3.262   0.837   8.668
  266TP3     H212618   3.214   0.775   8.538
  267TP3      O12619   2.457   0.994   7.862
  267TP3     H112620   2.426   0.959   7.778
  267TP3     H212621   2.509   0.923   7.900
  268TP3      O12622   2.621   1.351   8.123
  268TP3     H112623   2.622   1.356   8.027
  268TP3     H212624   2.694   1.292   8.145
  269TP3      O12625   2.451   0.892   8.229
  269TP3     H112626   2.502   0.864   8.153
  269TP3     H212627   2.506   0.959   8.271
  270TP3      O12628   3.169   1.425   8.329
  270TP3     H112629   3.134   1.505   8.370
  270TP3     H212630   3.108   1.356   8.356
  271TP3      O12631   2.601   1.324   8.702
  271TP3     H112632   2.536   1.382   8.743
  271TP3     H212633   2.559   1.297   8.620
  272TP3      O12634   2.266   0.903   8.670
  272TP3     H112635   2.276   0.990   8.708
  272TP3     H212636   2.178   0.904   8.632
  273TP3      O12637   2.942   1.524   7.749
  273TP3     H112638   3.022   1.545   7.798
  273TP3     H212639   2.918   1.606   7.706
  274TP3      O12640   2.397   1.498   8.771
  274TP3     H112641   2.400   1.529   8.681
  274TP3     H212642   2.303   1.491   8.791
  275TP3      O12643   3.457   0.108   7.323
  275TP3     H112644   3.398   0.108   7.398
  275TP3     H212645   3.541   0.139   7.358
  276TP3      O12646   2.365   0.907   7.617
  276TP3     H112647   2.311   0.973   7.573
  276TP3     H212648   2.349   0.826   7.568
  277TP3      O12649   3.583   1.551   7.184
  277TP3     H112650   3.490   1.542   7.163
  277TP3     H212651   3.629   1.508   7.112
  278TP3      O12652   1.971   1.157   8.523
  278TP3     H112653   1.922   1.168   8.441
  278TP3     H212654   1.984   1.062   8.530
  279TP3      O12655   1.959   1.432   8.181
  279TP3     H112656   2.045   1.423   8.222
  279TP3     H212657   1.921   1.510   8.222
  280TP3      O12658   3.763   1.515   8.794
  280TP3     H112659   3.755   1.421   8.782
  280TP3     H212660   3.677   1.543   8.825
  281TP3      O12661   2.841   1.444   8.657
  281TP3     H112662   2.837   1.530   8.700
  281TP3     H212663   2.756   1.405   8.673
  282TP3      O12664   2.910   1.771   7.616
  282TP3     H112665   2.919   1.780   7.521
  282TP3     H212666   2.888   1.859   7.646
  283TP3      O12667   2.241   1.676   7.850
  283TP3     H112668   2.295   1.650   7.924
  283TP3     H212669   2.151   1.664   7.881
  284TP3      O12670   3.182   1.766   7.639
  284TP3     H112671   3.086   1.763   7.631
  284TP3     H212672   3.207   1.679   7.668
  285TP3      O12673   3.456   0.638   8.798
  285TP3     H112674   3.395   0.681   8.738
  285TP3     H212675   3.461   0.548   8.767
  286TP3      O12676   2.198   1.297   8.579
  286TP3     H112677   2.222   1.260   8.664
  286TP3     H212678   2.117   1.251   8.555
  287TP3      O12679   2.461   0.132   8.256
  287TP3     H112680   2.399   0.124   8.184
  287TP3     H212681   2.422   0.199   8.313
  288TP3      O12682   2.922   0.083   8.562
  288TP3     H112683   2.919   0.037   8.646
  288TP3     H212684   2.830   0.103   8.542
  289TP3      O12685   3.209   0.490   8.637
  289TP3     H112686   3.144   0.473   8.705
  289TP3     H212687   3.211   0.585   8.628
  290TP3      O12688   2.885   0.351   7.248
  290TP3     H112689   2.882   0.415   7.319
  290TP3     H212690   2.832   0.277   7.279
  291TP3      O12691   2.464   0.641   8.341
  291TP3     H112692   2.395   0.640   8.408
  291TP3     H212693   2.464   0.732   8.309
  292TP3      O12694   2.476   0.640   7.802
  292TP3     H112695   2.381   0.636   7.794
  292TP3     H212696   2.508   0.623   7.714
  293TP3      O12697   3.013   0.677   7.699
  293TP3     H112698   2.985   0.764   7.672
  293TP3     H212699   3.075   0.649   7.632
  294TP3      O12700   2.927   0.689   8.819
  294TP3     H112701   2.872   0.619   8.854
  294TP3     H212702   3.010   0.679   8.864
  295TP3      O12703   3.100   0.622   7.960
  295TP3     H112704   3.059   0.673   7.891
  295TP3     H212705   3.145   0.550   7.914
  296TP3      O12706   2.247   0.643   8.509
  296TP3     H112707   2.249   0.689   8.593
  296TP3     H212708   2.204   0.560   8.528
  297TP3      O12709   1.936   0.297   7.892
  297TP3     H112710   1.954   0.332   7.979
  297TP3     H212711   2.021   0.296   7.849
  298TP3      O12712   2.035   0.443   7.436
  298TP3     H112713   2.098   0.396   7.381
  298TP3     H212714   2.077   0.527   7.453
  299TP3      O12715   3.068   0.755   8.422
  299TP3     H112716   3.099   0.696   8.353
  299TP3     H212717   2.999   0.705   8.466
  300TP3      O12718   2.764   0.402   7.922
  300TP3     H112719   2.671   0.395   7.942
  300TP3     H212720   2.809   0.368   8.000
  301TP3      O12721   2.206   0.568   7.789
  301TP3     H112722   2.130   0.593   7.736
  301TP3     H212723   2.235   0.485   7.751
  302TP3      O12724   2.545   0.570   7.536
  302TP3     H112725   2.638   0.565   7.560
  302TP3     H212726   2.543   0.628   7.460
  303TP3      O12727   3.148   0.304   8.255
  303TP3     H112728   3.101   0.318   8.338
  303TP3     H212729   3.080   0.280   8.193
  304TP3      O12730   3.501   1.874   8.892
  304TP3     H112731   3.524   1.907   8.805
  304TP3     H212732   3.575   1.901   8.947
  305TP3      O12733   2.260   1.146   8.815
  305TP3     H112734   2.325   1.143   8.884
  305TP3     H212735   2.176   1.149   8.860
  306TP3      O12736   2.832   0.693   8.110
  306TP3     H112737   2.895   0.641   8.060
  306TP3     H212738   2.802   0.635   8.179
  307TP3      O12739   2.325   0.324   7.721
  307TP3     H112740   2.272   0.246   7.735
  307TP3     H212741   2.378   0.304   7.644
  308TP3      O12742   2.725   0.554   8.329
  308TP3     H112743   2.639   0.597   8.338
  308TP3     H212744   2.774   0.582   8.407
  309TP3      O12745   2.771   1.142   7.528
  309TP3     H112746   2.714   1.071   7.496
  309TP3     H212747   2.738   1.162   7.615
  310TP3      O12748   3.474   1.069   8.359
  310TP3     H112749   3.529   1.127   8.308
  310TP3     H212750   3.400   1.049   8.302
  311TP3      O12751   2.915   1.158   8.650
  311TP3     H112752   2.939   1.122   8.736
  311TP3     H212753   2.889   1.248   8.668
  312TP3      O12754   3.201   0.599   7.500
  312TP3     H112755   3.288   0.616   7.536
  312TP3     H212756   3.182   0.677   7.448
  313TP3      O12757   2.293   1.067   8.067
  313TP3     H112758   2.346   1.053   7.988
  313TP3     H212759   2.329   1.007   8.131
  314TP3      O12760   2.947   1.292   7.370
  314TP3     H112761   3.039   1.292   7.398
  314TP3     H212762   2.903   1.236   7.433
  315TP3      O12763   1.991   0.889   8.609
  315TP3     H112764   1.963   0.846   8.690
  315TP3     H212765   1.923   0.867   8.546
  316TP3      O12766   2.708   0.869   8.841
  316TP3     H112767   2.643   0.833   8.780
  316TP3     H212768   2.789   0.823   8.818
  317TP3      O12769   3.121   1.414   8.653
  317TP3     H112770   3.028   1.422   8.631
  317TP3     H212771   3.125   1.439   8.745
  318TP3      O12772   3.676   0.635   7.463
  318TP3     H112773   3.608   0.602   7.404
  318TP3     H212774   3.684   0.728   7.441
  319TP3      O12775   3.733   1.244   8.746
  319TP3     H112776   3.642   1.239   8.716
  319TP3     H212777   3.785   1.219   8.669
  320TP3      O12778   3.525   1.488   7.547
  320TP3     H112779   3.471   1.436   7.607
  320TP3     H212780   3.505   1.454   7.460
  321TP3      O12781   3.267   0.998   8.180
  321TP3     H112782   3.172   0.990   8.174
  321TP3     H212783   3.300   0.920   8.136
  322TP3      O12784   2.548   1.423   7.860
  322TP3     H112785   2.574   1.502   7.813
  322TP3     H212786   2.454   1.433   7.873
  323TP3      O12787   2.634   1.183   7.757
  323TP3     H112788   2.610   1.267   7.795
  323TP3     H212789   2.574   1.121   7.798
  324TP3      O12790   2.724   1.591   8.436
  324TP3     H112791   2.782   1.662   8.409
  324TP3     H212792   2.781   1.533   8.487
  325TP3      O12793   2.507   1.687   7.730
  325TP3     H112794   2.418   1.698   7.765
  325TP3     H212795   2.555   1.764   7.762
  326TP3      O12796   3.020   1.202   8.401
  326TP3     H112797   2.986   1.181   8.488
  326TP3     H212798   3.077   1.128   8.379
  327TP3      O12799   3.226   1.310   7.422
  327TP3     H112800   3.289   1.247   7.457
  327TP3     H212801   3.257   1.329   7.334
  328TP3      O12802   3.332   1.630   8.622
  328TP3     H112803   3.249   1.591   8.592
  328TP3     H212804   3.346   1.704   8.563
  329TP3      O12805   3.726   1.697   7.368
  329TP3     H112806   3.684   1.642   7.302
  329TP3     H212807   3.663   1.700   7.440
  330TP3      O12808   2.127   0.394   8.562
  330TP3     H112809   2.034   0.408   8.550
  330TP3     H212810   2.133   0.314   8.614
  331TP3      O12811   3.421   1.166   7.569
  331TP3     H112812   3.377   1.084   7.593
  331TP3     H212813   3.510   1.138   7.544
  332TP3      O12814   2.144   1.531   8.406
  332TP3     H112815   2.170   1.451   8.453
  332TP3     H212816   2.151   1.600   8.472
  333TP3      O12817   2.574   1.350   7.389
  333TP3     H112818   2.636   1.296   7.439
  333TP3     H212819   2.582   1.437   7.428
  334TP3      O12820   2.219   1.092   7.484
  334TP3     H112821   2.141   1.137   7.515
  334TP3     H212822   2.258   1.152   7.421
  335TP3      O12823   3.021   0.338   8.496
  335TP3     H112824   3.092   0.368   8.553
  335TP3     H212825   2.992   0.255   8.534
  336TP3      O12826   3.123   0.335   7.601
  336TP3     H112827   3.122   0.411   7.542
  336TP3     H212828   3.159   0.369   7.683
  337TP3      O12829   2.785   0.526   7.671
  337TP3     H112830   2.864   0.579   7.679
  337TP3     H212831   2.773   0.487   7.758
  338TP3      O12832   2.891   0.591   8.550
  338TP3     H112833   2.899   0.611   8.643
  338TP3     H212834   2.924   0.501   8.543
  339TP3      O12835   2.931   0.217   7.783
  339TP3     H112836   2.880   0.294   7.809
  339TP3     H212837   2.971   0.241   7.700
  340TP3      O12838   2.568   1.624   7.466
  340TP3     H112839   2.613   1.701   7.433
  340TP3     H212840   2.556   1.641   7.559
  341TP3      O12841   2.487   0.296   7.477
  341TP3     H112842   2.516   0.386   7.492
  341TP3     H212843   2.565   0.251   7.443
  342TP3      O12844   3.458   0.397   8.654
  342TP3     H112845   3.365   0.422   8.651
  342TP3     H212846   3.470   0.342   8.577
  343TP3      O12847   3.340   0.750   8.065
  343TP3     H112848   3.256   0.711   8.042
  343TP3     H212849   3.384   0.685   8.120
  344TP3      O12850   2.311   1.304   7.324
  344TP3     H112851   2.299   1.365   7.398
  344TP3     H212852   2.406   1.295   7.316
  345TP3      O12853   3.494   1.672   8.233
  345TP3     H112854   3.478   1.736   8.164
  345TP3     H212855   3.588   1.675   8.248
  346TP3      O12856   2.225   0.148   8.087
  346TP3     H112857   2.213   0.143   7.992
  346TP3     H212858   2.184   0.069   8.121
  347TP3      O12859   2.084   1.508   7.663
  347TP3     H112860   2.013   1.506   7.727
  347TP3     H212861   2.158   1.547   7.711
  348TP3      O12862   2.048   1.790   8.902
  348TP3     H112863   2.115   1.768   8.967
  348TP3     H212864   2.023   1.705   8.863
  349TP3      O12865   2.476   1.597   9.013
  349TP3     H112866   2.554   1.546   9.033
  349TP3     H212867   2.450   1.568   8.925
  350TP3      O12868   3.115   1.469   8.921
  350TP3     H112869   3.106   1.383   8.962
  350TP3     H212870   3.193   1.507   8.961
  351TP3      O12871   2.013   1.134   8.940
  351TP3     H112872   2.022   1.039   8.930
  351TP3     H212873   1.940   1.157   8.882
  352TP3      O12874   2.670   1.145   8.900
  352TP3     H112875   2.656   1.190   8.816
  352TP3     H212876   2.697   1.056   8.875
  353TP3      O12877   3.250   1.165   8.684
  353TP3     H112878   3.338   1.186   8.653
  353TP3     H212879   3.198   1.243   8.663
  354TP3      O12880   2.094   0.874   8.906
  354TP3     H112881   2.170   0.850   8.854
  354TP3     H212882   2.121   0.860   8.997
  355TP3      O12883   2.602   0.942   7.474
  355TP3     H112884   2.527   0.940   7.533
  355TP3     H212885   2.589   0.868   7.415
  356TP3      O12886   2.512   0.770   8.662
  356TP3     H112887   2.432   0.822   8.656
  356TP3     H212888   2.568   0.805   8.592
  357TP3      O12889   3.022   0.996   8.949
  357TP3     H112890   3.100   0.958   8.908
  357TP3     H212891   2.988   0.927   9.005
  358TP3      O12892   2.557   0.513   8.734
  358TP3     H112893   2.565   0.457   8.657
  358TP3     H212894   2.543   0.601   8.699
  359TP3      O12895   2.586   0.370   8.497
  359TP3     H112896   2.638   0.415   8.430
  359TP3     H212897   2.498   0.364   8.459
  360TP3      O12898   2.693   0.873   8.493
  360TP3     H112899   2.788   0.882   8.493
  360TP3     H212900   2.662   0.951   8.447
  361TP3      O12901   3.148   0.637   8.989
  361TP3     H112902   3.148   0.562   9.049
  361TP3     H212903   3.240   0.647   8.964
  362TP3      O12904   3.286   0.950   8.841
  362TP3     H112905   3.263   1.029   8.792
  362TP3     H212906   3.382   0.945   8.836
  363TP3      O12907   2.405   0.569   8.965
  363TP3     H112908   2.323   0.525   8.945
  363TP3     H212909   2.456   0.565   8.884
  364TP3      O12910   2.648   0.106   8.514
  364TP3     H112911   2.634   0.200   8.521
  364TP3     H212912   2.592   0.079   8.441
  365TP3      O12913   2.773   0.484   8.901
  365TP3     H112914   2.735   0.447   8.980
  365TP3     H212915   2.699   0.488   8.839
  366TP3      O12916   3.025   0.399   8.807
  366TP3     H112917   2.940   0.406   8.851
  366TP3     H212918   3.082   0.356   8.870
  367TP3      O12919   3.227   0.292   8.974
  367TP3     H112920   3.205   0.198   8.973
  367TP3     H212921   3.193   0.324   9.057
  368TP3      O12922   2.192   0.405   8.910
  368TP3     H112923   2.192   0.342   8.838
  368TP3     H212924   2.203   0.352   8.989
  369TP3      O12925   2.643   0.037   8.786
  369TP3     H112926   2.722  -0.016   8.792
  369TP3     H212927   2.633   0.056   8.693
  370TP3      O12928   2.744   0.185   8.998
  370TP3     H112929   2.706   0.133   8.927
  370TP3     H212930   2.676   0.247   9.021
  371TP3      O12931   2.703   1.841   7.347
  371TP3     H112932   2.797   1.828   7.340
  371TP3     H212933   2.693   1.935   7.365
  372TP3      O12934   1.968   1.294   7.270
  372TP3     H112935   2.055   1.264   7.248
  372TP3     H212936   1.909   1.230   7.231
  373TP3      O12937   1.920   1.838   7.806
  373TP3     H112938   1.857   1.804   7.743
  373TP3     H212939   1.935   1.766   7.867
  374TP3      O12940   1.997   1.632   7.972
  374TP3     H112941   1.959   1.551   8.007
  374TP3     H212942   2.030   1.678   8.049
  375TP3      O12943   3.753   1.699   8.302
  375TP3     H112944   3.743   1.698   8.398
  375TP3     H212945   3.811   1.773   8.286
  376TP3      O12946   3.693   1.665   8.570
  376TP3     H112947   3.631   1.600   8.536
  376TP3     H212948   3.734   1.623   8.645
  377TP3      O12949   3.545   1.262   9.074
  377TP3     H112950   3.457   1.282   9.108
  377TP3     H212951   3.594   1.344   9.087
  378TP3      O12952   3.705   1.084   7.575
  378TP3     H112953   3.787   1.131   7.586
  378TP3     H212954   3.706   1.019   7.646
  379TP3      O12955   3.724   0.892   7.769
  379TP3     H112956   3.638   0.858   7.796
  379TP3     H212957   3.772   0.902   7.851
  380TP3      O12958   3.717   1.198   8.285
  380TP3     H112959   3.766   1.130   8.239
  380TP3     H212960   3.734   1.277   8.233
  381TP3      O12961   3.517   1.465   8.491
  381TP3     H112962   3.441   1.510   8.528
  381TP3     H212963   3.491   1.444   8.402
  382TP3      O12964   3.680   0.889   7.385
  382TP3     H112965   3.604   0.914   7.333
  382TP3     H212966   3.690   0.961   7.448
  383TP3      O12967   3.485   0.774   7.835
  383TP3     H112968   3.469   0.688   7.794
  383TP3     H212969   3.439   0.769   7.919
  384TP3      O12970   1.967   0.957   8.231
  384TP3     H112971   1.977   0.944   8.137
  384TP3     H212972   2.051   0.931   8.268
  385TP3      O12973   3.562   0.962   8.812
  385TP3     H112974   3.621   0.889   8.794
  385TP3     H212975   3.582   1.026   8.744
  386TP3      O12976   3.711   0.737   8.781
  386TP3     H112977   3.625   0.695   8.780
  386TP3     H212978   3.769   0.673   8.823
  387TP3      O12979   3.481   0.301   7.124
  387TP3     H112980   3.570   0.311   7.158
  387TP3     H212981   3.441   0.235   7.181
  388TP3      O12982   3.470   0.546   7.657
  388TP3     H112983   3.493   0.454   7.652
  388TP3     H212984   3.542   0.591   7.613
  389TP3      O12985   3.501   0.567   8.208
  389TP3     H112986   3.593   0.580   8.187
  389TP3     H212987   3.495   0.586   8.302
  390TP3      O12988   3.528   0.662   8.470
  390TP3     H112989   3.446   0.693   8.508
  390TP3     H212990   3.578   0.742   8.453
  391TP3      O12991   1.950   0.516   8.872
  391TP3     H112992   2.040   0.483   8.878
  391TP3     H212993   1.897   0.438   8.853
  392TP3      O12994   3.763   0.134   9.010
  392TP3     H112995   3.826   0.074   8.970
  392TP3     H212996   3.740   0.195   8.940
  393TP3      O12997   3.527   0.278   7.644
  393TP3     H112998   3.545   0.238   7.729
  393TP3     H212999   3.455   0.227   7.607
  394TP3      O13000   2.050   0.352   8.145
  394TP3     H113001   2.110   0.278   8.135
  394TP3     H213002   2.107   0.427   8.156
  395TP3      O13003   1.885   0.634   8.189
  395TP3     H113004   1.954   0.630   8.123
  395TP3     H213005   1.914   0.701   8.250
  396TP3      O13006   3.686   0.299   8.805
  396TP3     H113007   3.605   0.331   8.843
  396TP3     H213008   3.659   0.234   8.740
  397TP3      O13009   3.721   0.284   7.264
  397TP3     H113010   3.743   0.193   7.283
  397TP3     H213011   3.784   0.335   7.315
  398TP3      O13012   1.892   0.243   7.555
  398TP3     H113013   1.840   0.279   7.627
  398TP3     H213014   1.941   0.318   7.521
  399TP3      O13015   3.407   1.728   7.848
  399TP3     H113016   3.480   1.730   7.786
  399TP3     H213017   3.438   1.779   7.923
  400TP3      O13018   1.955   0.131   8.465
  400TP3     H113019   1.894   0.125   8.539
  400TP3     H213020   1.913   0.194   8.406
  401TP3      O13021   2.134   1.487   8.865
  401TP3     H113022   2.045   1.483   8.828
  401TP3     H213023   2.124   1.450   8.953
  402TP3      O13024   2.463   1.573   8.508
  402TP3     H113025   2.434   1.660   8.478
  402TP3     H213026   2.557   1.572   8.490
  403TP3      O13027   2.845   1.690   8.788
  403TP3     H113028   2.859   1.661   8.878
  403TP3     H213029   2.923   1.740   8.767
  404TP3      O13030   3.076   1.829   8.741
  404TP3     H113031   3.142   1.787   8.686
  404TP3     H213032   3.123   1.857   8.819
  405TP3      O13033   3.607   0.100   8.624
  405TP3     H113034   3.545   0.135   8.560
  405TP3     H213035   3.626   0.012   8.593
  406TP3      O13036   2.187   1.896   8.518
  406TP3     H113037   2.106   1.933   8.482
  406TP3     H213038   2.190   1.929   8.608
  407TP3      O13039   2.432   1.835   8.428
  407TP3     H113040   2.344   1.855   8.458
  407TP3     H213041   2.439   1.878   8.343
  408TP3      O13042   2.885   1.786   8.337
  408TP3     H113043   2.913   1.784   8.246
  408TP3     H213044   2.904   1.875   8.366
  409TP3      O13045   3.123   1.687   8.427
  409TP3     H113046   3.032   1.710   8.411
  409TP3     H213047   3.173   1.742   8.367
  410TP3      O13048   3.406   1.827   8.445
  410TP3     H113049   3.345   1.883   8.397
  410TP3     H213050   3.441   1.767   8.379
  411TP3      O13051   2.156   1.740   8.174
  411TP3     H113052   2.115   1.698   8.250
  411TP3     H213053   2.232   1.686   8.155
  412TP3      O13054   2.364   1.593   8.074
  412TP3     H113055   2.348   1.502   8.101
  412TP3     H213056   2.451   1.613   8.110
  413TP3      O13057   2.615   1.625   8.182
  413TP3     H113058   2.631   1.535   8.151
  413TP3     H213059   2.645   1.624   8.272
  414TP3      O13060   2.924   0.241   8.097
  414TP3     H113061   2.855   0.177   8.115
  414TP3     H213062   2.974   0.203   8.025
  415TP3      O13063   3.398   0.056   8.029
  415TP3     H113064   3.468   0.093   7.975
  415TP3     H213065   3.318   0.097   7.996
  416TP3      O13066   3.601   0.129   7.864
  416TP3     H113067   3.630   0.068   7.797
  416TP3     H213068   3.679   0.182   7.884
  417TP3      O13069   2.154   0.121   7.813
  417TP3     H113070   2.063   0.090   7.807
  417TP3     H213071   2.207   0.042   7.810
  418TP3      O13072   2.049   0.077   7.390
  418TP3     H113073   2.121   0.138   7.371
  418TP3     H213074   1.995   0.123   7.453
  419TP3      O13075   2.685   0.085   7.848
  419TP3     H113076   2.764   0.126   7.815
  419TP3     H213077   2.692   0.092   7.943
  420TP3      O13078   3.146   0.128   7.939
  420TP3     H113079   3.089   0.150   7.866
  420TP3     H213080   3.114   0.043   7.971
  421TP3      O13081   3.304   0.135   7.547
  421TP3     H113082   3.236   0.201   7.561
  421TP3     H213083   3.262   0.052   7.573
  422TP3      O13084   2.246   0.260   7.340
  422TP3     H113085   2.266   0.288   7.251
  422TP3     H213086   2.329   0.266   7.387
  423TP3      O13087   2.971   1.790   7.344
  423TP3     H113088   3.052   1.836   7.321
  423TP3     H213089   2.985   1.701   7.314
  424TP3      O13090   3.579   1.742   7.616
  424TP3     H113091   3.556   1.651   7.598
  424TP3     H213092   3.503   1.792   7.585
  425TP3      O13093   2.180   0.180   8.753
  425TP3     H113094   2.116   0.113   8.775
  425TP3     H213095   2.263   0.147   8.787
  426TP3      O13096   2.393   0.073   8.906
  426TP3     H113097   2.478   0.072   8.862
  426TP3     H213098   2.389  -0.010   8.953
  427TP3      O13099   3.173   5.550   8.972
  427TP3     H113100   3.163   5.539   9.066
  427TP3     H213101   3.231   5.478   8.945
  428TP3      O13102   3.506   1.606   8.837
  428TP3     H113103   3.445   1.600   8.764
  428TP3     H213104   3.503   1.697   8.864
  429TP3      O13105   4.987   1.025   7.803
  429TP3     H113106   4.967   1.118   7.793
  429TP3     H213107   4.922   0.981   7.748
  430TP3      O13108   4.854   0.928   8.209
  430TP3     H113109   4.883   0.879   8.285
  430TP3     H213110   4.810   0.864   8.153
  431TP3      O13111   4.081   0.858   8.330
  431TP3     H113112   4.089   0.785   8.392
  431TP3     H213113   4.170   0.875   8.301
  432TP3      O13114   5.238   1.239   8.032
  432TP3     H113115   5.211   1.156   8.071
  432TP3     H213116   5.255   1.296   8.107
  433TP3      O13117   4.223   1.344   8.147
  433TP3     H113118   4.191   1.256   8.125
  433TP3     H213119   4.317   1.333   8.160
  434TP3      O13120   3.855   0.662   7.675
  434TP3     H113121   3.823   0.745   7.711
  434TP3     H213122   3.797   0.644   7.601
  435TP3      O13123   3.915   0.899   7.971
  435TP3     H113124   3.945   0.811   7.992
  435TP3     H213125   3.994   0.945   7.942
  436TP3      O13126   4.972   1.694   8.066
  436TP3     H113127   5.004   1.639   7.995
  436TP3     H213128   4.949   1.633   8.136
  437TP3      O13129   4.703   1.176   8.217
  437TP3     H113130   4.739   1.094   8.183
  437TP3     H213131   4.772   1.212   8.271
  438TP3      O13132   5.008   0.585   8.227
  438TP3     H113133   5.036   0.495   8.240
  438TP3     H213134   4.993   0.592   8.133
  439TP3      O13135   4.369   0.411   7.959
  439TP3     H113136   4.377   0.495   7.915
  439TP3     H213137   4.320   0.356   7.897
  440TP3      O13138   5.113   0.442   7.809
  440TP3     H113139   5.161   0.410   7.885
  440TP3     H213140   5.181   0.475   7.749
  441TP3      O13141   4.006   0.651   8.041
  441TP3     H113142   4.075   0.613   8.095
  441TP3     H213143   4.027   0.623   7.952
  442TP3      O13144   4.476   0.796   8.017
  442TP3     H113145   4.563   0.765   8.039
  442TP3     H213146   4.443   0.734   7.951
  443TP3      O13147   4.221   0.335   8.393
  443TP3     H113148   4.196   0.383   8.314
  443TP3     H213149   4.146   0.345   8.451
  444TP3      O13150   4.943   1.284   7.716
  444TP3     H113151   4.924   1.277   7.623
  444TP3     H213152   4.886   1.354   7.747
  445TP3      O13153   4.483   1.090   8.359
  445TP3     H113154   4.433   1.162   8.396
  445TP3     H213155   4.554   1.133   8.310
  446TP3      O13156   5.255   0.394   8.027
  446TP3     H113157   5.269   0.306   8.061
  446TP3     H213158   5.291   0.451   8.095
  447TP3      O13159   4.201   0.495   8.165
  447TP3     H113160   4.262   0.546   8.217
  447TP3     H213161   4.255   0.455   8.096
  448TP3      O13162   4.338   1.295   8.473
  448TP3     H113163   4.340   1.390   8.460
  448TP3     H213164   4.248   1.277   8.499
  449TP3      O13165   3.905   1.282   7.570
  449TP3     H113166   3.820   1.325   7.563
  449TP3     H213167   3.955   1.336   7.632
  450TP3      O13168   5.259   1.425   8.244
  450TP3     H113169   5.165   1.437   8.258
  450TP3     H213170   5.293   1.514   8.233
  451TP3      O13171   5.318   0.273   8.333
  451TP3     H113172   5.225   0.295   8.337
  451TP3     H213173   5.326   0.214   8.259
  452TP3      O13174   4.591   0.073   8.120
  452TP3     H113175   4.573  -0.021   8.125
  452TP3     H213176   4.518   0.113   8.166
  453TP3      O13177   5.092   1.577   7.840
  453TP3     H113178   5.137   1.494   7.824
  453TP3     H213179   5.162   1.642   7.844
  454TP3      O13180   5.206   1.333   7.776
  454TP3     H113181   5.118   1.302   7.757
  454TP3     H213182   5.228   1.293   7.860
  455TP3      O13183   5.378   1.170   8.607
  455TP3     H113184   5.378   1.118   8.527
  455TP3     H213185   5.402   1.258   8.578
  456TP3      O13186   4.811   0.936   7.614
  456TP3     H113187   4.733   0.990   7.605
  456TP3     H213188   4.849   0.934   7.526
  457TP3      O13189   5.222   0.984   7.671
  457TP3     H113190   5.143   1.002   7.722
  457TP3     H213191   5.270   0.919   7.722
  458TP3      O13192   5.144   0.752   8.597
  458TP3     H113193   5.129   0.823   8.658
  458TP3     H213194   5.078   0.765   8.528
  459TP3      O13195   4.341   0.989   7.862
  459TP3     H113196   4.306   0.946   7.784
  459TP3     H213197   4.393   0.921   7.905
  460TP3      O13198   4.505   1.357   8.121
  460TP3     H113199   4.499   1.356   8.025
  460TP3     H213200   4.576   1.295   8.140
  461TP3      O13201   4.339   0.894   8.233
  461TP3     H113202   4.390   0.866   8.158
  461TP3     H213203   4.393   0.961   8.276
  462TP3      O13204   4.998   1.470   8.312
  462TP3     H113205   4.998   1.516   8.395
  462TP3     H213206   4.967   1.382   8.333
  463TP3      O13207   4.487   1.326   8.702
  463TP3     H113208   4.424   1.384   8.745
  463TP3     H213209   4.444   1.298   8.622
  464TP3      O13210   5.147   0.859   7.441
  464TP3     H113211   5.162   0.903   7.525
  464TP3     H213212   5.057   0.884   7.417
  465TP3      O13213   4.150   0.903   8.668
  465TP3     H113214   4.160   0.988   8.709
  465TP3     H213215   4.061   0.903   8.632
  466TP3      O13216   4.829   1.531   7.780
  466TP3     H113217   4.919   1.546   7.808
  466TP3     H213218   4.802   1.615   7.742
  467TP3      O13219   4.287   1.505   8.773
  467TP3     H113220   4.284   1.531   8.680
  467TP3     H213221   4.195   1.493   8.797
  468TP3      O13222   5.418   0.066   7.383
  468TP3     H113223   5.355  -0.003   7.361
  468TP3     H213224   5.403   0.134   7.318
  469TP3      O13225   4.235   0.881   7.629
  469TP3     H113226   4.213   0.938   7.556
  469TP3     H213227   4.226   0.792   7.593
  470TP3      O13228   3.858   1.157   8.522
  470TP3     H113229   3.807   1.168   8.442
  470TP3     H213230   3.868   1.063   8.532
  471TP3      O13231   3.822   1.452   8.187
  471TP3     H113232   3.907   1.441   8.230
  471TP3     H213233   3.784   1.528   8.230
  472TP3      O13234   4.725   1.450   8.649
  472TP3     H113235   4.722   1.533   8.696
  472TP3     H213236   4.641   1.408   8.668
  473TP3      O13237   4.795   1.787   7.655
  473TP3     H113238   4.728   1.769   7.589
  473TP3     H213239   4.777   1.877   7.684
  474TP3      O13240   4.168   1.689   7.830
  474TP3     H113241   4.192   1.659   7.918
  474TP3     H213242   4.115   1.618   7.794
  475TP3      O13243   5.090   1.774   7.311
  475TP3     H113244   5.154   1.844   7.325
  475TP3     H213245   5.064   1.748   7.400
  476TP3      O13246   5.054   1.739   7.588
  476TP3     H113247   4.961   1.748   7.608
  476TP3     H213248   5.086   1.675   7.651
  477TP3      O13249   5.345   0.680   8.847
  477TP3     H113250   5.309   0.687   8.759
  477TP3     H213251   5.422   0.624   8.838
  478TP3      O13252   4.086   1.295   8.580
  478TP3     H113253   4.108   1.258   8.666
  478TP3     H213254   4.005   1.250   8.555
  479TP3      O13255   4.351   0.134   8.258
  479TP3     H113256   4.291   0.124   8.184
  479TP3     H213257   4.309   0.200   8.314
  480TP3      O13258   4.804   0.081   8.558
  480TP3     H113259   4.804   0.041   8.645
  480TP3     H213260   4.712   0.100   8.541
  481TP3      O13261   5.145   0.478   8.646
  481TP3     H113262   5.074   0.465   8.708
  481TP3     H213263   5.141   0.571   8.624
  482TP3      O13264   4.351   0.642   8.344
  482TP3     H113265   4.281   0.639   8.410
  482TP3     H213266   4.351   0.732   8.313
  483TP3      O13267   4.354   0.646   7.823
  483TP3     H113268   4.259   0.639   7.815
  483TP3     H213269   4.386   0.639   7.733
  484TP3      O13270   4.880   0.684   7.699
  484TP3     H113271   4.855   0.770   7.666
  484TP3     H213272   4.948   0.654   7.639
  485TP3      O13273   4.811   0.692   8.816
  485TP3     H113274   4.761   0.619   8.853
  485TP3     H213275   4.898   0.684   8.856
  486TP3      O13276   4.973   0.624   7.957
  486TP3     H113277   4.932   0.672   7.886
  486TP3     H213278   5.016   0.549   7.915
  487TP3      O13279   4.130   0.645   8.506
  487TP3     H113280   4.129   0.693   8.590
  487TP3     H213281   4.086   0.563   8.525
  488TP3      O13282   3.813   0.294   7.904
  488TP3     H113283   3.848   0.324   7.988
  488TP3     H213284   3.861   0.344   7.839
  489TP3      O13285   3.891   0.464   7.395
  489TP3     H113286   3.972   0.505   7.365
  489TP3     H213287   3.833   0.537   7.415
  490TP3      O13288   4.931   0.760   8.414
  490TP3     H113289   4.965   0.702   8.347
  490TP3     H213290   4.870   0.706   8.464
  491TP3      O13291   4.659   0.391   7.925
  491TP3     H113292   4.568   0.385   7.954
  491TP3     H213293   4.710   0.355   7.998
  492TP3      O13294   4.087   0.576   7.795
  492TP3     H113295   4.012   0.598   7.739
  492TP3     H213296   4.115   0.490   7.765
  493TP3      O13297   4.426   0.610   7.562
  493TP3     H113298   4.514   0.577   7.576
  493TP3     H213299   4.417   0.614   7.466
  494TP3      O13300   5.038   0.311   8.276
  494TP3     H113301   4.984   0.325   8.354
  494TP3     H213302   4.977   0.284   8.208
  495TP3      O13303   5.413   1.867   8.903
  495TP3     H113304   5.411   1.903   8.814
  495TP3     H213305   5.506   1.853   8.921
  496TP3      O13306   4.147   1.144   8.816
  496TP3     H113307   4.211   1.141   8.887
  496TP3     H213308   4.063   1.148   8.860
  497TP3      O13309   4.718   0.693   8.108
  497TP3     H113310   4.785   0.645   8.059
  497TP3     H213311   4.691   0.633   8.177
  498TP3      O13312   4.200   0.330   7.747
  498TP3     H113313   4.152   0.249   7.765
  498TP3     H213314   4.242   0.313   7.662
  499TP3      O13315   4.611   0.552   8.329
  499TP3     H113316   4.526   0.595   8.339
  499TP3     H213317   4.659   0.578   8.408
  500TP3      O13318   4.608   1.170   7.489
  500TP3     H113319   4.576   1.087   7.454
  500TP3     H213320   4.580   1.169   7.581
  501TP3      O13321   5.365   1.041   8.368
  501TP3     H113322   5.443   1.014   8.320
  501TP3     H213323   5.293   1.029   8.305
  502TP3      O13324   4.820   1.174   8.638
  502TP3     H113325   4.829   1.127   8.721
  502TP3     H213326   4.779   1.257   8.662
  503TP3      O13327   5.080   0.594   7.529
  503TP3     H113328   5.170   0.572   7.553
  503TP3     H213329   5.089   0.661   7.461
  504TP3      O13330   4.188   1.080   8.071
  504TP3     H113331   4.238   1.059   7.992
  504TP3     H213332   4.216   1.014   8.135
  505TP3      O13333   4.858   1.303   7.455
  505TP3     H113334   4.825   1.388   7.426
  505TP3     H213335   4.781   1.246   7.457
  506TP3      O13336   3.876   0.888   8.607
  506TP3     H113337   3.846   0.843   8.686
  506TP3     H213338   3.809   0.868   8.541
  507TP3      O13339   4.593   0.872   8.839
  507TP3     H113340   4.528   0.836   8.779
  507TP3     H213341   4.674   0.826   8.817
  508TP3      O13342   5.012   1.450   8.644
  508TP3     H113343   4.919   1.443   8.622
  508TP3     H213344   5.013   1.453   8.740
  509TP3      O13345   5.475   1.462   7.488
  509TP3     H113346   5.406   1.396   7.484
  509TP3     H213347   5.476   1.501   7.401
  510TP3      O13348   5.151   0.995   8.180
  510TP3     H113349   5.056   0.988   8.173
  510TP3     H213350   5.184   0.916   8.138
  511TP3      O13351   4.434   1.413   7.853
  511TP3     H113352   4.467   1.490   7.808
  511TP3     H213353   4.340   1.414   7.838
  512TP3      O13354   4.517   1.170   7.745
  512TP3     H113355   4.499   1.254   7.788
  512TP3     H213356   4.459   1.107   7.789
  513TP3      O13357   4.616   1.599   8.430
  513TP3     H113358   4.678   1.668   8.406
  513TP3     H213359   4.667   1.538   8.483
  514TP3      O13360   4.415   1.709   7.710
  514TP3     H113361   4.326   1.707   7.746
  514TP3     H213362   4.458   1.782   7.756
  515TP3      O13363   4.921   1.214   8.388
  515TP3     H113364   4.885   1.193   8.475
  515TP3     H213365   4.976   1.139   8.366
  516TP3      O13366   5.238   1.610   8.607
  516TP3     H113367   5.163   1.551   8.617
  516TP3     H213368   5.209   1.676   8.545
  517TP3      O13369   4.007   0.399   8.560
  517TP3     H113370   3.913   0.416   8.552
  517TP3     H213371   4.011   0.318   8.612
  518TP3      O13372   5.305   1.232   7.534
  518TP3     H113373   5.279   1.142   7.550
  518TP3     H213374   5.282   1.278   7.615
  519TP3      O13375   4.016   1.544   8.403
  519TP3     H113376   4.052   1.461   8.436
  519TP3     H213377   4.004   1.598   8.480
  520TP3      O13378   4.417   1.347   7.385
  520TP3     H113379   4.481   1.283   7.418
  520TP3     H213380   4.451   1.432   7.414
  521TP3      O13381   4.903   0.339   8.512
  521TP3     H113382   4.965   0.358   8.582
  521TP3     H213383   4.868   0.253   8.533
  522TP3      O13384   4.970   0.334   7.603
  522TP3     H113385   4.979   0.402   7.536
  522TP3     H213386   5.012   0.371   7.681
  523TP3      O13387   4.756   1.550   7.366
  523TP3     H113388   4.675   1.551   7.418
  523TP3     H213389   4.739   1.611   7.295
  524TP3      O13390   4.665   0.511   7.671
  524TP3     H113391   4.740   0.571   7.673
  524TP3     H213392   4.659   0.479   7.761
  525TP3      O13393   4.772   0.589   8.553
  525TP3     H113394   4.784   0.614   8.644
  525TP3     H213395   4.810   0.501   8.547
  526TP3      O13396   4.764   0.209   7.739
  526TP3     H113397   4.743   0.281   7.797
  526TP3     H213398   4.838   0.241   7.687
  527TP3      O13399   4.511   1.601   7.479
  527TP3     H113400   4.485   1.666   7.413
  527TP3     H213401   4.474   1.634   7.561
  528TP3      O13402   4.307   0.310   7.494
  528TP3     H113403   4.308   0.403   7.471
  528TP3     H213404   4.399   0.286   7.497
  529TP3      O13405   5.381   0.335   8.643
  529TP3     H113406   5.300   0.384   8.657
  529TP3     H213407   5.394   0.337   8.548
  530TP3      O13408   5.215   0.749   8.065
  530TP3     H113409   5.131   0.711   8.036
  530TP3     H213410   5.251   0.684   8.125
  531TP3      O13411   5.373   1.678   8.239
  531TP3     H113412   5.363   1.747   8.173
  531TP3     H213413   5.454   1.634   8.215
  532TP3      O13414   4.116   0.144   8.085
  532TP3     H113415   4.102   0.141   7.991
  532TP3     H213416   4.073   0.065   8.119
  533TP3      O13417   3.987   1.515   7.715
  533TP3     H113418   3.921   1.542   7.780
  533TP3     H213419   3.972   1.572   7.640
  534TP3      O13420   3.929   1.784   8.894
  534TP3     H113421   3.997   1.755   8.956
  534TP3     H213422   3.891   1.702   8.861
  535TP3      O13423   4.380   1.612   9.006
  535TP3     H113424   4.446   1.547   9.030
  535TP3     H213425   4.347   1.582   8.921
  536TP3      O13426   4.994   1.464   8.917
  536TP3     H113427   4.985   1.377   8.956
  536TP3     H213428   5.069   1.503   8.962
  537TP3      O13429   3.900   1.137   8.940
  537TP3     H113430   3.903   1.042   8.928
  537TP3     H213431   3.830   1.167   8.882
  538TP3      O13432   4.555   1.146   8.901
  538TP3     H113433   4.539   1.190   8.817
  538TP3     H213434   4.581   1.057   8.877
  539TP3      O13435   5.122   1.146   8.691
  539TP3     H113436   5.210   1.161   8.657
  539TP3     H213437   5.069   1.214   8.651
  540TP3      O13438   3.978   0.875   8.907
  540TP3     H113439   4.054   0.845   8.858
  540TP3     H213440   4.003   0.864   8.999
  541TP3      O13441   4.508   0.928   7.400
  541TP3     H113442   4.445   0.864   7.431
  541TP3     H213443   4.575   0.877   7.355
  542TP3      O13444   4.399   0.771   8.664
  542TP3     H113445   4.317   0.821   8.656
  542TP3     H213446   4.454   0.805   8.593
  543TP3      O13447   4.899   0.996   8.952
  543TP3     H113448   4.980   0.962   8.915
  543TP3     H213449   4.863   0.923   9.002
  544TP3      O13450   5.504   1.129   7.037
  544TP3     H113451   5.553   1.048   7.023
  544TP3     H213452   5.447   1.136   6.961
  545TP3      O13453   4.450   0.515   8.736
  545TP3     H113454   4.455   0.458   8.659
  545TP3     H213455   4.433   0.602   8.700
  546TP3      O13456   4.471   0.369   8.498
  546TP3     H113457   4.521   0.414   8.431
  546TP3     H213458   4.382   0.364   8.462
  547TP3      O13459   4.579   0.872   8.492
  547TP3     H113460   4.674   0.871   8.481
  547TP3     H213461   4.551   0.952   8.447
  548TP3      O13462   5.040   0.641   8.983
  548TP3     H113463   5.041   0.564   9.040
  548TP3     H213464   5.130   0.649   8.952
  549TP3      O13465   5.158   0.943   8.863
  549TP3     H113466   5.141   1.018   8.805
  549TP3     H213467   5.252   0.925   8.850
  550TP3      O13468   4.294   0.572   8.964
  550TP3     H113469   4.211   0.528   8.944
  550TP3     H213470   4.344   0.567   8.883
  551TP3      O13471   4.531   0.105   8.512
  551TP3     H113472   4.516   0.199   8.522
  551TP3     H213473   4.478   0.080   8.436
  552TP3      O13474   4.670   0.476   8.895
  552TP3     H113475   4.633   0.442   8.977
  552TP3     H213476   4.594   0.483   8.837
  553TP3      O13477   4.928   0.405   8.795
  553TP3     H113478   4.843   0.413   8.838
  553TP3     H213479   4.985   0.367   8.862
  554TP3      O13480   5.113   0.301   8.973
  554TP3     H113481   5.094   0.207   8.969
  554TP3     H213482   5.077   0.329   9.057
  555TP3      O13483   4.084   0.406   8.903
  555TP3     H113484   4.081   0.342   8.832
  555TP3     H213485   4.093   0.354   8.983
  556TP3      O13486   4.527   0.031   8.783
  556TP3     H113487   4.615  -0.005   8.790
  556TP3     H213488   4.515   0.050   8.690
  557TP3      O13489   4.617   0.174   9.002
  557TP3     H113490   4.578   0.125   8.929
  557TP3     H213491   4.554   0.243   9.020
  558TP3      O13492   3.797   1.823   7.769
  558TP3     H113493   3.722   1.796   7.716
  558TP3     H213494   3.805   1.755   7.836
  559TP3      O13495   3.858   1.630   7.958
  559TP3     H113496   3.817   1.554   8.001
  559TP3     H213497   3.908   1.672   8.028
  560TP3      O13498   5.424   1.254   9.056
  560TP3     H113499   5.338   1.265   9.098
  560TP3     H213500   5.466   1.340   9.066
  561TP3      O13501   5.403   1.415   8.488
  561TP3     H113502   5.356   1.488   8.527
  561TP3     H213503   5.366   1.406   8.401
  562TP3      O13504   5.356   0.567   7.134
  562TP3     H113505   5.266   0.554   7.106
  562TP3     H213506   5.409   0.549   7.056
  563TP3      O13507   5.330   0.774   7.814
  563TP3     H113508   5.305   0.687   7.782
  563TP3     H213509   5.301   0.775   7.905
  564TP3      O13510   3.854   0.963   8.227
  564TP3     H113511   3.864   0.948   8.133
  564TP3     H213512   3.938   0.936   8.265
  565TP3      O13513   5.437   0.996   8.814
  565TP3     H113514   5.491   0.938   8.761
  565TP3     H213515   5.412   1.067   8.754
  566TP3      O13516   5.368   0.271   7.195
  566TP3     H113517   5.367   0.366   7.203
  566TP3     H213518   5.314   0.253   7.117
  567TP3      O13519   5.329   0.527   7.651
  567TP3     H113520   5.346   0.433   7.659
  567TP3     H213521   5.413   0.565   7.627
  568TP3      O13522   5.347   0.557   8.226
  568TP3     H113523   5.433   0.597   8.219
  568TP3     H213524   5.357   0.489   8.293
  569TP3      O13525   5.415   0.697   8.518
  569TP3     H113526   5.321   0.714   8.525
  569TP3     H213527   5.434   0.702   8.424
  570TP3      O13528   3.840   0.519   8.890
  570TP3     H113529   3.930   0.485   8.886
  570TP3     H213530   3.785   0.445   8.865
  571TP3      O13531   5.356   0.256   7.699
  571TP3     H113532   5.389   0.209   7.775
  571TP3     H213533   5.282   0.204   7.668
  572TP3      O13534   3.945   0.351   8.143
  572TP3     H113535   4.001   0.274   8.132
  572TP3     H213536   4.005   0.424   8.156
  573TP3      O13537   3.770   0.630   8.196
  573TP3     H113538   3.840   0.626   8.131
  573TP3     H213539   3.797   0.699   8.256
  574TP3      O13540   3.826   0.273   7.590
  574TP3     H113541   3.732   0.276   7.608
  574TP3     H213542   3.841   0.349   7.534
  575TP3      O13543   5.276   1.770   7.824
  575TP3     H113544   5.335   1.750   7.752
  575TP3     H213545   5.334   1.799   7.895
  576TP3      O13546   3.841   0.132   8.463
  576TP3     H113547   3.780   0.126   8.536
  576TP3     H213548   3.802   0.196   8.404
  577TP3      O13549   4.028   1.483   8.868
  577TP3     H113550   3.940   1.489   8.831
  577TP3     H213551   4.015   1.444   8.955
  578TP3      O13552   4.353   1.573   8.503
  578TP3     H113553   4.321   1.659   8.478
  578TP3     H213554   4.447   1.576   8.484
  579TP3      O13555   4.729   1.689   8.789
  579TP3     H113556   4.743   1.657   8.878
  579TP3     H213557   4.809   1.738   8.769
  580TP3      O13558   4.958   1.830   8.742
  580TP3     H113559   5.008   1.784   8.674
  580TP3     H213560   5.022   1.848   8.811
  581TP3      O13561   5.435   0.054   8.626
  581TP3     H113562   5.405   0.142   8.652
  581TP3     H213563   5.354   0.006   8.608
  582TP3      O13564   4.060   1.892   8.517
  582TP3     H113565   3.975   1.920   8.483
  582TP3     H213566   4.062   1.928   8.606
  583TP3      O13567   4.312   1.837   8.435
  583TP3     H113568   4.221   1.853   8.462
  583TP3     H213569   4.319   1.879   8.349
  584TP3      O13570   4.771   1.812   8.342
  584TP3     H113571   4.724   1.844   8.265
  584TP3     H213572   4.779   1.888   8.399
  585TP3      O13573   5.008   1.729   8.467
  585TP3     H113574   4.931   1.747   8.414
  585TP3     H213575   5.077   1.783   8.428
  586TP3      O13576   5.245   1.859   8.407
  586TP3     H113577   5.260   1.945   8.368
  586TP3     H213578   5.289   1.798   8.348
  587TP3      O13579   4.024   1.721   8.180
  587TP3     H113580   4.009   1.670   8.260
  587TP3     H213581   4.103   1.683   8.142
  588TP3      O13582   4.242   1.602   8.076
  588TP3     H113583   4.225   1.511   8.100
  588TP3     H213584   4.328   1.621   8.112
  589TP3      O13585   4.499   1.627   8.180
  589TP3     H113586   4.508   1.537   8.147
  589TP3     H213587   4.530   1.623   8.270
  590TP3      O13588   4.840   0.228   8.088
  590TP3     H113589   4.771   0.161   8.098
  590TP3     H213590   4.904   0.188   8.030
  591TP3      O13591   5.293   0.123   8.095
  591TP3     H113592   5.359   0.116   8.026
  591TP3     H213593   5.210   0.111   8.050
  592TP3      O13594   5.482   0.114   7.897
  592TP3     H113595   5.494   0.023   7.871
  592TP3     H213596   5.567   0.143   7.929
  593TP3      O13597   4.052   0.113   7.817
  593TP3     H113598   3.963   0.112   7.782
  593TP3     H213599   4.086   0.025   7.800
  594TP3      O13600   4.039   0.126   7.491
  594TP3     H113601   4.115   0.184   7.483
  594TP3     H213602   3.970   0.181   7.526
  595TP3      O13603   4.552   0.070   7.844
  595TP3     H113604   4.627   0.113   7.801
  595TP3     H213605   4.569   0.081   7.937
  596TP3      O13606   5.054   0.111   7.942
  596TP3     H113607   5.077   0.120   7.850
  596TP3     H213608   5.030   0.019   7.952
  597TP3      O13609   5.123   0.108   7.661
  597TP3     H113610   5.069   0.174   7.618
  597TP3     H213611   5.096   0.025   7.621
  598TP3      O13612   3.960   1.715   7.504
  598TP3     H113613   3.882   1.697   7.451
  598TP3     H213614   3.929   1.777   7.570
  599TP3      O13615   4.582   0.289   7.524
  599TP3     H113616   4.632   0.219   7.566
  599TP3     H213617   4.618   0.369   7.562
  600TP3      O13618   5.447   1.708   7.618
  600TP3     H113619   5.458   1.626   7.570
  600TP3     H213620   5.443   1.775   7.549
  601TP3      O13621   4.066   0.182   8.748
  601TP3     H113622   4.001   0.115   8.770
  601TP3     H213623   4.148   0.147   8.783
  602TP3      O13624   4.275   0.070   8.904
  602TP3     H113625   4.361   0.064   8.861
  602TP3     H213626   4.267  -0.012   8.952
  603TP3      O13627   4.115   1.800   7.267
  603TP3     H113628   4.074   1.771   7.349
  603TP3     H213629   4.149   1.719   7.229
  604TP3      O13630   5.065   0.028   8.955
  604TP3     H113631   5.069   0.018   9.051
  604TP3     H213632   5.140  -0.022   8.923
  605TP3      O13633   5.365   1.596   8.859
  605TP3     H113634   5.332   1.591   8.769
  605TP3     H213635   5.386   1.689   8.872
  606TP3      O13636   1.181   2.914   7.784
  606TP3     H113637   1.166   3.003   7.752
  606TP3     H213638   1.136   2.910   7.868
  607TP3      O13639   1.091   2.802   8.198
  607TP3     H113640   1.117   2.765   8.282
  607TP3     H213641   1.038   2.734   8.157
  608TP3      O13642   0.317   2.751   8.360
  608TP3     H113643   0.324   2.667   8.406
  608TP3     H213644   0.401   2.761   8.315
  609TP3      O13645   1.471   3.113   8.027
  609TP3     H113646   1.433   3.043   8.080
  609TP3     H213647   1.493   3.182   8.090
  610TP3      O13648   0.451   3.235   8.184
  610TP3     H113649   0.421   3.150   8.152
  610TP3     H213650   0.547   3.230   8.179
  611TP3      O13651   0.076   2.546   7.754
  611TP3     H113652   0.004   2.610   7.758
  611TP3     H213653   0.040   2.468   7.796
  612TP3      O13654   0.155   2.795   8.002
  612TP3     H113655   0.188   2.705   8.004
  612TP3     H213656   0.183   2.829   7.917
  613TP3      O13657   1.205   3.596   8.047
  613TP3     H113658   1.247   3.542   7.981
  613TP3     H213659   1.166   3.534   8.108
  614TP3      O13660   0.924   3.055   8.223
  614TP3     H113661   0.963   2.979   8.180
  614TP3     H213662   0.993   3.087   8.281
  615TP3      O13663   1.796   2.257   8.278
  615TP3     H113664   1.832   2.281   8.363
  615TP3     H213665   1.873   2.242   8.223
  616TP3      O13666   1.243   2.484   8.224
  616TP3     H113667   1.267   2.393   8.240
  616TP3     H213668   1.219   2.486   8.131
  617TP3      O13669   0.591   2.300   7.958
  617TP3     H113670   0.597   2.383   7.912
  617TP3     H213671   0.539   2.244   7.900
  618TP3      O13672   1.365   2.313   7.824
  618TP3     H113673   1.408   2.285   7.904
  618TP3     H213674   1.435   2.350   7.770
  619TP3      O13675   0.250   2.539   8.039
  619TP3     H113676   0.313   2.490   8.092
  619TP3     H213677   0.265   2.509   7.949
  620TP3      O13678   0.698   2.679   8.013
  620TP3     H113679   0.785   2.647   8.037
  620TP3     H213680   0.669   2.619   7.944
  621TP3      O13681   1.847   2.360   8.538
  621TP3     H113682   1.781   2.425   8.513
  621TP3     H213683   1.806   2.311   8.609
  622TP3      O13684   0.455   2.203   8.384
  622TP3     H113685   0.429   2.258   8.311
  622TP3     H213686   0.385   2.214   8.449
  623TP3      O13687   1.117   3.159   7.687
  623TP3     H113688   1.107   3.198   7.600
  623TP3     H213689   1.088   3.228   7.747
  624TP3      O13690   0.706   2.967   8.366
  624TP3     H113691   0.655   3.039   8.403
  624TP3     H213692   0.776   3.010   8.317
  625TP3      O13693   1.485   2.272   8.059
  625TP3     H113694   1.426   2.245   8.129
  625TP3     H213695   1.548   2.330   8.101
  626TP3      O13696   0.432   2.370   8.166
  626TP3     H113697   0.489   2.425   8.220
  626TP3     H213698   0.489   2.338   8.096
  627TP3      O13699   0.560   3.172   8.485
  627TP3     H113700   0.570   3.266   8.466
  627TP3     H213701   0.469   3.163   8.512
  628TP3      O13702   0.192   3.170   7.535
  628TP3     H113703   0.101   3.164   7.505
  628TP3     H213704   0.192   3.243   7.597
  629TP3      O13705   1.510   3.316   8.227
  629TP3     H113706   1.417   3.317   8.247
  629TP3     H213707   1.531   3.406   8.202
  630TP3      O13708   1.521   2.129   8.428
  630TP3     H113709   1.470   2.178   8.362
  630TP3     H213710   1.590   2.086   8.377
  631TP3      O13711   0.805   1.892   8.126
  631TP3     H113712   0.781   1.799   8.131
  631TP3     H213713   0.728   1.938   8.160
  632TP3      O13714   1.331   3.461   7.841
  632TP3     H113715   1.365   3.374   7.818
  632TP3     H213716   1.408   3.516   7.848
  633TP3      O13717   1.458   3.231   7.773
  633TP3     H113718   1.470   3.165   7.705
  633TP3     H213719   1.467   3.182   7.855
  634TP3      O13720   1.615   3.106   8.587
  634TP3     H113721   1.608   3.047   8.512
  634TP3     H213722   1.628   3.193   8.549
  635TP3      O13723   1.076   2.780   7.562
  635TP3     H113724   1.096   2.841   7.634
  635TP3     H213725   1.159   2.770   7.515
  636TP3      O13726   1.790   2.773   8.418
  636TP3     H113727   1.715   2.832   8.409
  636TP3     H213728   1.847   2.796   8.345
  637TP3      O13729   1.415   2.819   7.669
  637TP3     H113730   1.343   2.851   7.723
  637TP3     H213731   1.476   2.779   7.730
  638TP3      O13732   1.389   2.642   8.615
  638TP3     H113733   1.382   2.714   8.678
  638TP3     H213734   1.326   2.664   8.547
  639TP3      O13735   0.560   2.885   7.870
  639TP3     H113736   0.523   2.852   7.789
  639TP3     H213737   0.612   2.812   7.904
  640TP3      O13738   0.724   3.241   8.119
  640TP3     H113739   0.720   3.243   8.023
  640TP3     H213740   0.795   3.180   8.138
  641TP3      O13741   0.563   2.773   8.235
  641TP3     H113742   0.611   2.751   8.155
  641TP3     H213743   0.615   2.842   8.276
  642TP3      O13744   1.254   3.324   8.306
  642TP3     H113745   1.232   3.398   8.363
  642TP3     H213746   1.204   3.251   8.343
  643TP3      O13747   0.722   3.209   8.704
  643TP3     H113748   0.661   3.270   8.745
  643TP3     H213749   0.677   3.178   8.625
  644TP3      O13750   1.315   2.711   7.442
  644TP3     H113751   1.363   2.754   7.513
  644TP3     H213752   1.346   2.754   7.363
  645TP3      O13753   0.412   2.815   8.641
  645TP3     H113754   0.404   2.888   8.701
  645TP3     H213755   0.361   2.842   8.564
  646TP3      O13756   1.059   3.410   7.794
  646TP3     H113757   1.150   3.432   7.814
  646TP3     H213758   1.029   3.480   7.736
  647TP3      O13759   0.525   3.393   8.766
  647TP3     H113760   0.531   3.421   8.675
  647TP3     H213761   0.431   3.386   8.783
  648TP3      O13762   1.695   1.950   7.441
  648TP3     H113763   1.600   1.956   7.451
  648TP3     H213764   1.711   1.981   7.352
  649TP3      O13765   0.446   2.805   7.633
  649TP3     H113766   0.437   2.880   7.574
  649TP3     H213767   0.390   2.737   7.596
  650TP3      O13768   0.150   2.981   8.515
  650TP3     H113769   0.116   2.970   8.426
  650TP3     H213770   0.118   2.904   8.563
  651TP3      O13771   0.061   3.360   8.188
  651TP3     H113772   0.076   3.267   8.169
  651TP3     H213773   0.111   3.377   8.268
  652TP3      O13774   1.871   3.390   8.785
  652TP3     H113775   1.860   3.295   8.782
  652TP3     H213776   1.787   3.423   8.818
  653TP3      O13777   0.959   3.334   8.653
  653TP3     H113778   0.955   3.418   8.698
  653TP3     H213779   0.875   3.293   8.671
  654TP3      O13780   1.027   3.679   7.600
  654TP3     H113781   1.034   3.692   7.505
  654TP3     H213782   1.006   3.766   7.634
  655TP3      O13783   0.397   3.562   7.826
  655TP3     H113784   0.412   3.529   7.915
  655TP3     H213785   0.335   3.499   7.788
  656TP3      O13786   1.298   3.659   7.639
  656TP3     H113787   1.205   3.655   7.619
  656TP3     H213788   1.315   3.578   7.689
  657TP3      O13789   1.578   2.516   8.800
  657TP3     H113790   1.516   2.554   8.738
  657TP3     H213791   1.583   2.424   8.776
  658TP3      O13792   0.307   3.180   8.608
  658TP3     H113793   0.346   3.131   8.681
  658TP3     H213794   0.244   3.119   8.569
  659TP3      O13795   0.568   2.006   8.221
  659TP3     H113796   0.492   1.997   8.163
  659TP3     H213797   0.545   2.078   8.279
  660TP3      O13798   1.042   1.981   8.558
  660TP3     H113799   1.088   1.934   8.628
  660TP3     H213800   0.950   1.973   8.581
  661TP3      O13801   1.333   2.371   8.640
  661TP3     H113802   1.266   2.354   8.706
  661TP3     H213803   1.336   2.467   8.632
  662TP3      O13804   1.404   2.833   7.226
  662TP3     H113805   1.353   2.873   7.155
  662TP3     H213806   1.495   2.852   7.203
  663TP3      O13807   0.581   2.521   8.339
  663TP3     H113808   0.515   2.522   8.409
  663TP3     H213809   0.581   2.611   8.306
  664TP3      O13810   0.585   2.527   7.811
  664TP3     H113811   0.490   2.518   7.808
  664TP3     H213812   0.614   2.516   7.720
  665TP3      O13813   1.115   2.543   7.691
  665TP3     H113814   1.090   2.629   7.655
  665TP3     H213815   1.188   2.516   7.635
  666TP3      O13816   1.039   2.568   8.820
  666TP3     H113817   0.986   2.496   8.854
  666TP3     H213818   1.123   2.559   8.865
  667TP3      O13819   1.199   2.493   7.955
  667TP3     H113820   1.157   2.534   7.880
  667TP3     H213821   1.252   2.423   7.918
  668TP3      O13822   0.363   2.519   8.513
  668TP3     H113823   0.412   2.549   8.590
  668TP3     H213824   0.329   2.433   8.539
  669TP3      O13825   0.042   2.292   7.871
  669TP3     H113826   0.106   2.278   7.941
  669TP3     H213827   0.089   2.270   7.791
  670TP3      O13828   0.062   2.353   7.315
  670TP3     H113829   0.116   2.384   7.242
  670TP3     H213830  -0.027   2.378   7.291
  671TP3      O13831   1.173   2.651   8.423
  671TP3     H113832   1.207   2.595   8.354
  671TP3     H213833   1.109   2.597   8.470
  672TP3      O13834   0.860   2.277   7.891
  672TP3     H113835   0.772   2.280   7.929
  672TP3     H213836   0.908   2.216   7.946
  673TP3      O13837   0.327   2.443   7.790
  673TP3     H113838   0.246   2.475   7.749
  673TP3     H213839   0.339   2.355   7.755
  674TP3      O13840   0.653   2.466   7.548
  674TP3     H113841   0.746   2.451   7.566
  674TP3     H213842   0.653   2.521   7.470
  675TP3      O13843   1.290   2.207   8.244
  675TP3     H113844   1.240   2.211   8.326
  675TP3     H213845   1.246   2.141   8.191
  676TP3      O13846   0.569   2.591   7.263
  676TP3     H113847   0.500   2.647   7.298
  676TP3     H213848   0.535   2.560   7.180
  677TP3      O13849   1.611   3.760   8.888
  677TP3     H113850   1.632   3.802   8.805
  677TP3     H213851   1.684   3.784   8.946
  678TP3      O13852   0.391   3.028   8.820
  678TP3     H113853   0.456   3.021   8.890
  678TP3     H213854   0.307   3.035   8.866
  679TP3      O13855   0.941   2.571   8.112
  679TP3     H113856   1.004   2.518   8.062
  679TP3     H213857   0.912   2.514   8.182
  680TP3      O13858   0.445   2.172   7.767
  680TP3     H113859   0.395   2.094   7.790
  680TP3     H213860   0.497   2.145   7.691
  681TP3      O13861   0.840   2.427   8.333
  681TP3     H113862   0.754   2.469   8.342
  681TP3     H213863   0.889   2.455   8.410
  682TP3      O13864   1.591   2.954   8.360
  682TP3     H113865   1.652   3.010   8.311
  682TP3     H213866   1.517   2.941   8.301
  683TP3      O13867   1.028   3.044   8.650
  683TP3     H113868   1.061   3.010   8.733
  683TP3     H213869   1.006   3.135   8.669
  684TP3      O13870   1.317   2.449   7.509
  684TP3     H113871   1.403   2.442   7.552
  684TP3     H213872   1.315   2.538   7.473
  685TP3      O13873   0.420   2.984   8.084
  685TP3     H113874   0.462   2.963   8.001
  685TP3     H213875   0.428   2.904   8.136
  686TP3      O13876   0.089   2.747   8.655
  686TP3     H113877   0.141   2.744   8.736
  686TP3     H213878   0.110   2.665   8.610
  687TP3      O13879   0.829   2.753   8.836
  687TP3     H113880   0.776   2.730   8.760
  687TP3     H213881   0.912   2.706   8.824
  688TP3      O13882   1.239   3.305   8.650
  688TP3     H113883   1.147   3.316   8.627
  688TP3     H213884   1.243   3.327   8.744
  689TP3      O13885   1.834   3.099   8.748
  689TP3     H113886   1.747   3.112   8.711
  689TP3     H213887   1.891   3.086   8.672
  690TP3      O13888   1.648   3.369   7.513
  690TP3     H113889   1.603   3.335   7.590
  690TP3     H213890   1.601   3.332   7.438
  691TP3      O13891   1.374   2.895   8.184
  691TP3     H113892   1.279   2.882   8.185
  691TP3     H213893   1.408   2.816   8.142
  692TP3      O13894   0.665   3.304   7.848
  692TP3     H113895   0.703   3.383   7.811
  692TP3     H213896   0.574   3.305   7.818
  693TP3      O13897   0.282   2.815   7.282
  693TP3     H113898   0.278   2.882   7.351
  693TP3     H213899   0.192   2.786   7.271
  694TP3      O13900   0.771   3.049   7.789
  694TP3     H113901   0.744   3.141   7.802
  694TP3     H213902   0.694   2.999   7.817
  695TP3      O13903   0.852   3.477   8.426
  695TP3     H113904   0.907   3.552   8.402
  695TP3     H213905   0.907   3.423   8.481
  696TP3      O13906   0.654   3.579   7.729
  696TP3     H113907   0.562   3.582   7.756
  696TP3     H213908   0.690   3.663   7.760
  697TP3      O13909   1.136   3.088   8.402
  697TP3     H113910   1.098   3.068   8.488
  697TP3     H213911   1.215   3.033   8.399
  698TP3      O13912   1.506   3.205   7.333
  698TP3     H113913   1.504   3.146   7.408
  698TP3     H213914   1.432   3.178   7.279
  699TP3      O13915   1.447   3.510   8.616
  699TP3     H113916   1.365   3.463   8.601
  699TP3     H213917   1.445   3.583   8.554
  700TP3      O13918   1.931   3.703   7.333
  700TP3     H113919   1.989   3.778   7.317
  700TP3     H213920   1.846   3.743   7.351
  701TP3      O13921   0.264   2.260   8.583
  701TP3     H113922   0.170   2.276   8.581
  701TP3     H213923   0.274   2.178   8.631
  702TP3      O13924   1.523   3.051   7.564
  702TP3     H113925   1.480   2.970   7.591
  702TP3     H213926   1.616   3.031   7.565
  703TP3      O13927   0.242   3.418   8.393
  703TP3     H113928   0.316   3.361   8.371
  703TP3     H213929   0.225   3.399   8.485
  704TP3      O13930   0.615   3.231   7.372
  704TP3     H113931   0.656   3.276   7.446
  704TP3     H213932   0.629   3.290   7.298
  705TP3      O13933   0.406   3.023   7.461
  705TP3     H113934   0.331   3.074   7.491
  705TP3     H213935   0.474   3.088   7.444
  706TP3      O13936   1.155   2.222   8.479
  706TP3     H113937   1.221   2.247   8.544
  706TP3     H213938   1.116   2.141   8.514
  707TP3      O13939   1.231   2.202   7.614
  707TP3     H113940   1.240   2.282   7.562
  707TP3     H213941   1.271   2.223   7.699
  708TP3      O13942   0.985   3.332   7.433
  708TP3     H113943   0.911   3.367   7.483
  708TP3     H213944   0.971   3.362   7.343
  709TP3      O13945   0.902   2.379   7.640
  709TP3     H113946   0.974   2.439   7.657
  709TP3     H213947   0.880   2.343   7.725
  710TP3      O13948   1.009   2.471   8.551
  710TP3     H113949   1.018   2.493   8.644
  710TP3     H213950   1.049   2.384   8.544
  711TP3      O13951   1.014   2.058   7.715
  711TP3     H113952   1.008   2.082   7.807
  711TP3     H213953   1.089   2.108   7.682
  712TP3      O13954   0.741   3.445   7.507
  712TP3     H113955   0.740   3.504   7.432
  712TP3     H213956   0.716   3.499   7.582
  713TP3      O13957   1.579   2.264   8.660
  713TP3     H113958   1.489   2.296   8.663
  713TP3     H213959   1.582   2.211   8.581
  714TP3      O13960   1.446   2.653   8.066
  714TP3     H113961   1.363   2.606   8.061
  714TP3     H213962   1.503   2.596   8.118
  715TP3      O13963   1.584   3.585   8.218
  715TP3     H113964   1.567   3.655   8.155
  715TP3     H213965   1.679   3.585   8.229
  716TP3      O13966   0.327   1.982   8.094
  716TP3     H113967   0.327   1.967   7.999
  716TP3     H213968   0.293   1.901   8.132
  717TP3      O13969   0.200   3.406   7.698
  717TP3     H113970   0.120   3.423   7.748
  717TP3     H213971   0.192   3.462   7.621
  718TP3      O13972   0.129   3.653   8.887
  718TP3     H113973   0.201   3.632   8.946
  718TP3     H213974   0.091   3.569   8.864
  719TP3      O13975   0.579   3.489   9.016
  719TP3     H113976   0.660   3.447   9.044
  719TP3     H213977   0.566   3.458   8.926
  720TP3      O13978   1.232   3.354   8.918
  720TP3     H113979   1.222   3.269   8.961
  720TP3     H213980   1.309   3.393   8.959
  721TP3      O13981   0.142   3.039   8.932
  721TP3     H113982   0.143   2.946   8.912
  721TP3     H213983   0.051   3.065   8.922
  722TP3      O13984   0.791   3.030   8.901
  722TP3     H113985   0.779   3.076   8.818
  722TP3     H213986   0.820   2.942   8.876
  723TP3      O13987   1.361   3.054   8.674
  723TP3     H113988   1.451   3.074   8.649
  723TP3     H213989   1.313   3.136   8.660
  724TP3      O13990   0.217   2.748   8.897
  724TP3     H113991   0.283   2.681   8.878
  724TP3     H213992   0.215   2.752   8.993
  725TP3      O13993   0.608   2.630   8.636
  725TP3     H113994   0.544   2.700   8.644
  725TP3     H213995   0.679   2.668   8.584
  726TP3      O13996   1.137   2.882   8.943
  726TP3     H113997   1.217   2.845   8.905
  726TP3     H213998   1.106   2.815   9.004
  727TP3      O13999   1.659   2.895   7.157
  727TP3     H114000   1.708   2.844   7.093
  727TP3     H214001   1.649   2.982   7.117
  728TP3      O14002   0.664   2.380   8.729
  728TP3     H114003   0.678   2.322   8.654
  728TP3     H214004   0.651   2.467   8.690
  729TP3      O14005   0.703   2.227   8.495
  729TP3     H114006   0.757   2.273   8.430
  729TP3     H214007   0.617   2.222   8.454
  730TP3      O14008   0.809   2.762   8.517
  730TP3     H114009   0.904   2.776   8.516
  730TP3     H214010   0.774   2.835   8.465
  731TP3      O14011   1.260   2.521   8.991
  731TP3     H114012   1.260   2.445   9.050
  731TP3     H214013   1.353   2.537   8.973
  732TP3      O14014   1.406   2.836   8.826
  732TP3     H114015   1.382   2.915   8.778
  732TP3     H214016   1.501   2.834   8.824
  733TP3      O14017   0.493   2.431   8.949
  733TP3     H114018   0.410   2.387   8.932
  733TP3     H214019   0.543   2.420   8.868
  734TP3      O14020   0.761   1.964   8.563
  734TP3     H114021   0.741   2.055   8.541
  734TP3     H214022   0.693   1.913   8.518
  735TP3      O14023   0.885   2.356   8.896
  735TP3     H114024   0.845   2.329   8.978
  735TP3     H214025   0.813   2.360   8.834
  736TP3      O14026   1.143   2.282   8.805
  736TP3     H114027   1.059   2.288   8.850
  736TP3     H214028   1.201   2.237   8.866
  737TP3      O14029   1.335   2.167   8.975
  737TP3     H114030   1.328   2.072   8.984
  737TP3     H214031   1.305   2.201   9.059
  738TP3      O14032   0.270   2.257   8.910
  738TP3     H114033   0.276   2.182   8.851
  738TP3     H214034   0.281   2.220   8.998
  739TP3      O14035   0.752   1.880   8.822
  739TP3     H114036   0.811   1.805   8.818
  739TP3     H214037   0.751   1.914   8.732
  740TP3      O14038   0.812   2.030   9.045
  740TP3     H114039   0.796   1.981   8.964
  740TP3     H214040   0.765   2.112   9.033
  741TP3      O14041   0.062   3.717   7.782
  741TP3     H114042   0.020   3.672   7.709
  741TP3     H214043   0.071   3.650   7.850
  742TP3      O14044   0.084   3.540   7.983
  742TP3     H114045   0.060   3.460   8.029
  742TP3     H214046   0.142   3.586   8.044
  743TP3      O14047   1.850   3.590   8.288
  743TP3     H114048   1.844   3.595   8.384
  743TP3     H214049   1.918   3.654   8.265
  744TP3      O14050   1.791   3.564   8.562
  744TP3     H114051   1.738   3.492   8.527
  744TP3     H214052   1.840   3.525   8.635
  745TP3      O14053   1.659   3.154   9.063
  745TP3     H114054   1.574   3.170   9.104
  745TP3     H214055   1.710   3.233   9.081
  746TP3      O14056   1.786   2.975   7.587
  746TP3     H114057   1.866   3.026   7.582
  746TP3     H214058   1.809   2.900   7.642
  747TP3      O14059   1.841   2.758   7.760
  747TP3     H114060   1.754   2.741   7.796
  747TP3     H214061   1.893   2.785   7.835
  748TP3      O14062   1.827   3.083   8.285
  748TP3     H114063   1.879   3.019   8.238
  748TP3     H214064   1.852   3.167   8.247
  749TP3      O14065   1.630   3.355   8.476
  749TP3     H114066   1.557   3.401   8.518
  749TP3     H214067   1.600   3.339   8.387
  750TP3      O14068   1.584   2.669   7.832
  750TP3     H114069   1.567   2.578   7.806
  750TP3     H214070   1.545   2.676   7.919
  751TP3      O14071   0.088   2.857   8.257
  751TP3     H114072   0.103   2.858   8.163
  751TP3     H214073   0.171   2.827   8.294
  752TP3      O14074   1.684   2.846   8.823
  752TP3     H114075   1.741   2.772   8.803
  752TP3     H214076   1.728   2.921   8.783
  753TP3      O14077   1.832   2.617   8.787
  753TP3     H114078   1.745   2.577   8.785
  753TP3     H214079   1.889   2.550   8.824
  754TP3      O14080   1.562   2.422   7.650
  754TP3     H114081   1.582   2.329   7.650
  754TP3     H214082   1.647   2.465   7.641
  755TP3      O14083   1.612   2.482   8.194
  755TP3     H114084   1.704   2.493   8.169
  755TP3     H214085   1.615   2.469   8.289
  756TP3      O14086   1.646   2.544   8.474
  756TP3     H114087   1.563   2.576   8.509
  756TP3     H214088   1.697   2.623   8.456
  757TP3      O14089   0.056   2.419   8.809
  757TP3     H114090   0.126   2.368   8.851
  757TP3     H214091   0.005   2.353   8.761
  758TP3      O14092   1.858   1.972   8.987
  758TP3     H114093   1.924   1.908   8.963
  758TP3     H214094   1.863   2.039   8.919
  759TP3      O14095   1.607   2.162   7.665
  759TP3     H114096   1.651   2.118   7.738
  759TP3     H214097   1.556   2.093   7.623
  760TP3      O14098   0.206   2.226   8.079
  760TP3     H114099   0.239   2.137   8.092
  760TP3     H214100   0.272   2.283   8.118
  761TP3      O14101   0.037   2.577   8.220
  761TP3     H114102   0.106   2.553   8.157
  761TP3     H214103   0.043   2.672   8.227
  762TP3      O14104   1.808   2.154   8.783
  762TP3     H114105   1.722   2.194   8.795
  762TP3     H214106   1.792   2.082   8.722
  763TP3      O14107   1.778   2.078   7.199
  763TP3     H114108   1.710   2.045   7.140
  763TP3     H214109   1.846   2.113   7.140
  764TP3      O14110   0.097   2.244   7.593
  764TP3     H114111   0.014   2.197   7.596
  764TP3     H214112   0.096   2.287   7.507
  765TP3      O14113   1.550   3.615   7.839
  765TP3     H114114   1.605   3.625   7.762
  765TP3     H214115   1.574   3.689   7.895
  766TP3      O14116   0.069   2.027   8.455
  766TP3     H114117   0.004   2.013   8.525
  766TP3     H214118   0.017   2.058   8.381
  767TP3      O14119   0.258   3.361   8.839
  767TP3     H114120   0.232   3.295   8.775
  767TP3     H214121   0.225   3.327   8.922
  768TP3      O14122   0.590   3.448   8.497
  768TP3     H114123   0.560   3.533   8.464
  768TP3     H214124   0.684   3.447   8.481
  769TP3      O14125   0.959   3.577   8.789
  769TP3     H114126   0.972   3.546   8.879
  769TP3     H214127   1.038   3.626   8.769
  770TP3      O14128   1.192   3.715   8.750
  770TP3     H114129   1.261   3.672   8.699
  770TP3     H214130   1.236   3.745   8.829
  771TP3      O14131   1.742   1.918   8.626
  771TP3     H114132   1.701   1.934   8.541
  771TP3     H214133   1.773   1.828   8.620
  772TP3      O14134   0.325   3.834   8.487
  772TP3     H114135   0.359   3.912   8.442
  772TP3     H214136   0.360   3.840   8.576
  773TP3      O14137   0.552   3.701   8.405
  773TP3     H114138   0.462   3.728   8.425
  773TP3     H214139   0.574   3.747   8.324
  774TP3      O14140   0.995   3.696   8.339
  774TP3     H114141   0.958   3.736   8.261
  774TP3     H214142   1.010   3.769   8.399
  775TP3      O14143   1.218   3.566   8.436
  775TP3     H114144   1.141   3.610   8.399
  775TP3     H214145   1.290   3.626   8.419
  776TP3      O14146   1.457   3.710   8.425
  776TP3     H114147   1.480   3.802   8.413
  776TP3     H214148   1.498   3.665   8.351
  777TP3      O14149   0.254   3.620   8.189
  777TP3     H114150   0.236   3.572   8.270
  777TP3     H214151   0.330   3.575   8.151
  778TP3      O14152   0.461   3.485   8.083
  778TP3     H114153   0.449   3.395   8.113
  778TP3     H214154   0.550   3.508   8.109
  779TP3      O14155   0.725   3.512   8.176
  779TP3     H114156   0.734   3.422   8.144
  779TP3     H214157   0.759   3.509   8.266
  780TP3      O14158   0.998   2.065   8.000
  780TP3     H114159   0.946   2.007   8.056
  780TP3     H214160   1.087   2.032   8.006
  781TP3      O14161   1.545   1.904   8.035
  781TP3     H114162   1.607   1.909   8.107
  781TP3     H214163   1.470   1.957   8.063
  782TP3      O14164   1.778   2.069   7.856
  782TP3     H114165   1.828   1.988   7.846
  782TP3     H214166   1.749   2.069   7.947
  783TP3      O14167   0.321   1.938   7.824
  783TP3     H114168   0.229   1.926   7.799
  783TP3     H214169   0.360   1.851   7.816
  784TP3      O14170   0.178   1.947   7.428
  784TP3     H114171   0.182   2.038   7.400
  784TP3     H214172   0.086   1.934   7.453
  785TP3      O14173   0.765   1.915   7.838
  785TP3     H114174   0.836   1.970   7.804
  785TP3     H214175   0.779   1.915   7.933
  786TP3      O14176   1.250   1.959   8.000
  786TP3     H114177   1.308   1.946   7.925
  786TP3     H214178   1.231   1.870   8.030
  787TP3      O14179   1.424   2.003   7.535
  787TP3     H114180   1.349   2.059   7.558
  787TP3     H214181   1.391   1.914   7.543
  788TP3      O14182   0.185   3.569   7.474
  788TP3     H114183   0.231   3.537   7.397
  788TP3     H214184   0.175   3.663   7.458
  789TP3      O14185   0.888   2.145   7.487
  789TP3     H114186   0.925   2.094   7.559
  789TP3     H214187   0.881   2.234   7.521
  790TP3      O14188   1.079   3.708   7.320
  790TP3     H114189   1.170   3.729   7.297
  790TP3     H214190   1.063   3.624   7.278
  791TP3      O14191   1.720   3.622   7.613
  791TP3     H114192   1.700   3.537   7.573
  791TP3     H214193   1.705   3.686   7.542
  792TP3      O14194   0.285   2.011   8.768
  792TP3     H114195   0.222   1.948   8.804
  792TP3     H214196   0.368   1.989   8.811
  793TP3      O14197   0.494   1.926   8.926
  793TP3     H114198   0.582   1.906   8.894
  793TP3     H214199   0.469   1.848   8.976
  794TP3      O14200   0.354   3.567   7.222
  794TP3     H114201   0.370   3.660   7.242
  794TP3     H214202   0.438   3.535   7.189
  795TP3      O14203   1.349   1.889   8.974
  795TP3     H114204   1.341   1.843   9.058
  795TP3     H214205   1.441   1.878   8.950
  796TP3      O14206   1.619   3.492   8.835
  796TP3     H114207   1.560   3.487   8.760
  796TP3     H214208   1.618   3.584   8.861
  797TP3      O14209   3.087   2.896   7.812
  797TP3     H114210   3.080   2.991   7.808
  797TP3     H214211   3.025   2.865   7.746
  798TP3      O14212   2.983   2.809   8.200
  798TP3     H114213   3.004   2.773   8.286
  798TP3     H214214   2.945   2.735   8.152
  799TP3      O14215   2.191   2.754   8.345
  799TP3     H114216   2.198   2.667   8.385
  799TP3     H214217   2.245   2.810   8.401
  800TP3      O14218   3.358   3.117   8.029
  800TP3     H114219   3.324   3.042   8.077
  800TP3     H214220   3.365   3.186   8.094
  801TP3      O14221   2.332   3.216   8.137
  801TP3     H114222   2.296   3.129   8.122
  801TP3     H214223   2.424   3.201   8.156
  802TP3      O14224   1.939   2.515   7.665
  802TP3     H114225   1.911   2.601   7.698
  802TP3     H214226   1.927   2.456   7.739
  803TP3      O14227   2.034   2.806   7.962
  803TP3     H114228   2.067   2.717   7.975
  803TP3     H214229   2.111   2.862   7.973
  804TP3      O14230   3.071   3.564   8.085
  804TP3     H114231   3.118   3.532   8.008
  804TP3     H214232   3.140   3.585   8.148
  805TP3      O14233   2.824   3.051   8.215
  805TP3     H114234   2.865   2.974   8.176
  805TP3     H214235   2.888   3.082   8.280
  806TP3      O14236   3.722   2.199   8.298
  806TP3     H114237   3.726   2.267   8.365
  806TP3     H214238   3.779   2.231   8.228
  807TP3      O14239   3.113   2.478   8.224
  807TP3     H114240   3.143   2.390   8.248
  807TP3     H214241   3.117   2.480   8.129
  808TP3      O14242   2.449   2.326   7.969
  808TP3     H114243   2.453   2.401   7.910
  808TP3     H214244   2.411   2.255   7.916
  809TP3      O14245   3.239   2.315   7.804
  809TP3     H114246   3.276   2.277   7.883
  809TP3     H214247   3.315   2.348   7.755
  810TP3      O14248   2.116   2.550   8.011
  810TP3     H114249   2.161   2.494   8.073
  810TP3     H214250   2.136   2.512   7.925
  811TP3      O14251   2.607   2.628   7.998
  811TP3     H114252   2.693   2.650   7.962
  811TP3     H214253   2.557   2.598   7.923
  812TP3      O14254   3.722   2.354   8.531
  812TP3     H114255   3.665   2.426   8.505
  812TP3     H214256   3.673   2.308   8.599
  813TP3      O14257   2.329   2.209   8.381
  813TP3     H114258   2.292   2.255   8.305
  813TP3     H214259   2.262   2.214   8.448
  814TP3      O14260   3.065   3.159   7.727
  814TP3     H114261   3.038   3.145   7.636
  814TP3     H214262   3.017   3.237   7.755
  815TP3      O14263   2.601   2.976   8.362
  815TP3     H114264   2.548   3.046   8.400
  815TP3     H214265   2.671   3.021   8.316
  816TP3      O14266   3.350   2.280   8.050
  816TP3     H114267   3.294   2.239   8.117
  816TP3     H214268   3.413   2.331   8.100
  817TP3      O14269   2.263   2.370   8.164
  817TP3     H114270   2.316   2.432   8.214
  817TP3     H214271   2.321   2.340   8.094
  818TP3      O14272   2.449   3.176   8.474
  818TP3     H114273   2.459   3.270   8.461
  818TP3     H214274   2.358   3.164   8.501
  819TP3      O14275   2.003   3.164   7.547
  819TP3     H114276   1.932   3.215   7.508
  819TP3     H214277   2.037   3.221   7.616
  820TP3      O14278   3.360   3.326   8.217
  820TP3     H114279   3.267   3.336   8.241
  820TP3     H214280   3.391   3.416   8.208
  821TP3      O14281   3.467   2.146   8.410
  821TP3     H114282   3.390   2.134   8.354
  821TP3     H214283   3.540   2.153   8.349
  822TP3      O14284   2.675   1.896   8.099
  822TP3     H114285   2.671   1.803   8.123
  822TP3     H214286   2.602   1.936   8.146
  823TP3      O14287   3.214   3.473   7.866
  823TP3     H114288   3.248   3.386   7.843
  823TP3     H214289   3.291   3.530   7.865
  824TP3      O14290   3.327   3.236   7.783
  824TP3     H114291   3.244   3.198   7.753
  824TP3     H214292   3.348   3.189   7.863
  825TP3      O14293   3.502   3.101   8.584
  825TP3     H114294   3.492   3.038   8.512
  825TP3     H214295   3.519   3.184   8.540
  826TP3      O14296   2.954   2.807   7.583
  826TP3     H114297   2.870   2.852   7.578
  826TP3     H214298   3.003   2.840   7.508
  827TP3      O14299   2.940   2.668   7.295
  827TP3     H114300   2.990   2.636   7.371
  827TP3     H214301   2.850   2.640   7.312
  828TP3      O14302   3.679   2.768   8.413
  828TP3     H114303   3.604   2.827   8.406
  828TP3     H214304   3.736   2.794   8.340
  829TP3      O14305   3.314   2.814   7.690
  829TP3     H114306   3.241   2.840   7.746
  829TP3     H214307   3.371   2.763   7.747
  830TP3      O14308   3.277   2.644   8.613
  830TP3     H114309   3.272   2.714   8.679
  830TP3     H214310   3.212   2.669   8.547
  831TP3      O14311   2.445   2.863   7.861
  831TP3     H114312   2.417   2.853   7.770
  831TP3     H214313   2.478   2.777   7.886
  832TP3      O14314   2.612   3.215   8.127
  832TP3     H114315   2.605   3.224   8.032
  832TP3     H214316   2.689   3.160   8.140
  833TP3      O14317   2.482   2.781   8.213
  833TP3     H114318   2.544   2.763   8.142
  833TP3     H214319   2.524   2.850   8.265
  834TP3      O14320   3.041   3.337   8.321
  834TP3     H114321   3.091   3.385   8.387
  834TP3     H214322   3.039   3.247   8.353
  835TP3      O14323   2.601   3.208   8.705
  835TP3     H114324   2.538   3.266   8.746
  835TP3     H214325   2.557   3.179   8.624
  836TP3      O14326   3.251   2.768   7.431
  836TP3     H114327   3.274   2.789   7.521
  836TP3     H214328   3.198   2.843   7.401
  837TP3      O14329   2.271   2.798   8.638
  837TP3     H114330   2.282   2.875   8.693
  837TP3     H214331   2.176   2.788   8.629
  838TP3      O14332   2.958   3.407   7.783
  838TP3     H114333   3.039   3.443   7.818
  838TP3     H214334   2.918   3.481   7.736
  839TP3      O14335   2.396   3.383   8.768
  839TP3     H114336   2.393   3.413   8.676
  839TP3     H214337   2.304   3.374   8.793
  840TP3      O14338   2.368   2.818   7.599
  840TP3     H114339   2.324   2.891   7.554
  840TP3     H214340   2.313   2.742   7.581
  841TP3      O14341   3.752   3.360   7.243
  841TP3     H114342   3.694   3.382   7.315
  841TP3     H214343   3.756   3.439   7.189
  842TP3      O14344   1.971   3.038   8.523
  842TP3     H114345   1.919   3.050   8.444
  842TP3     H214346   1.980   2.943   8.532
  843TP3      O14347   1.932   3.334   8.207
  843TP3     H114348   2.017   3.339   8.250
  843TP3     H214349   1.886   3.414   8.235
  844TP3      O14350   3.792   3.359   8.803
  844TP3     H114351   3.760   3.269   8.797
  844TP3     H214352   3.713   3.411   8.819
  845TP3      O14353   2.843   3.323   8.655
  845TP3     H114354   2.849   3.398   8.715
  845TP3     H214355   2.759   3.283   8.677
  846TP3      O14356   2.930   3.675   7.658
  846TP3     H114357   2.896   3.677   7.569
  846TP3     H214358   2.909   3.761   7.694
  847TP3      O14359   2.257   3.569   7.809
  847TP3     H114360   2.278   3.538   7.898
  847TP3     H214361   2.204   3.500   7.771
  848TP3      O14362   3.198   3.643   7.614
  848TP3     H114363   3.103   3.648   7.620
  848TP3     H214364   3.222   3.572   7.673
  849TP3      O14365   3.466   2.512   8.803
  849TP3     H114366   3.399   2.550   8.746
  849TP3     H214367   3.469   2.420   8.779
  850TP3      O14368   2.197   3.181   8.580
  850TP3     H114369   2.221   3.144   8.666
  850TP3     H214370   2.116   3.136   8.557
  851TP3      O14371   2.443   2.015   8.216
  851TP3     H114372   2.367   2.005   8.158
  851TP3     H214373   2.415   2.079   8.281
  852TP3      O14374   2.923   1.983   8.555
  852TP3     H114375   2.967   1.930   8.621
  852TP3     H214376   2.830   1.965   8.568
  853TP3      O14377   3.228   2.373   8.649
  853TP3     H114378   3.159   2.355   8.713
  853TP3     H214379   3.224   2.468   8.635
  854TP3      O14380   2.448   2.526   8.291
  854TP3     H114381   2.393   2.522   8.369
  854TP3     H214382   2.450   2.619   8.268
  855TP3      O14383   2.455   2.541   7.798
  855TP3     H114384   2.363   2.521   7.780
  855TP3     H214385   2.498   2.537   7.713
  856TP3      O14386   3.004   2.564   7.696
  856TP3     H114387   2.980   2.650   7.662
  856TP3     H214388   3.076   2.534   7.640
  857TP3      O14389   2.923   2.568   8.820
  857TP3     H114390   2.871   2.495   8.854
  857TP3     H214391   3.006   2.562   8.866
  858TP3      O14392   3.100   2.502   7.950
  858TP3     H114393   3.064   2.548   7.874
  858TP3     H214394   3.143   2.424   7.913
  859TP3      O14395   2.252   2.518   8.488
  859TP3     H114396   2.260   2.563   8.571
  859TP3     H214397   2.205   2.437   8.509
  860TP3      O14398   1.937   2.323   7.866
  860TP3     H114399   1.954   2.302   7.957
  860TP3     H214400   1.912   2.240   7.825
  861TP3      O14401   3.057   2.653   8.423
  861TP3     H114402   3.091   2.594   8.357
  861TP3     H214403   2.996   2.600   8.475
  862TP3      O14404   2.735   2.287   7.966
  862TP3     H114405   2.657   2.244   7.932
  862TP3     H214406   2.798   2.217   7.980
  863TP3      O14407   2.203   2.444   7.767
  863TP3     H114408   2.122   2.452   7.718
  863TP3     H214409   2.228   2.352   7.758
  864TP3      O14410   2.590   2.521   7.570
  864TP3     H114411   2.662   2.466   7.603
  864TP3     H214412   2.614   2.539   7.479
  865TP3      O14413   3.179   2.220   8.271
  865TP3     H114414   3.124   2.223   8.349
  865TP3     H214415   3.183   2.128   8.249
  866TP3      O14416   3.487   3.807   8.915
  866TP3     H114417   3.508   3.780   8.825
  866TP3     H214418   3.572   3.814   8.958
  867TP3      O14419   2.267   3.023   8.811
  867TP3     H114420   2.332   3.023   8.881
  867TP3     H214421   2.182   3.025   8.856
  868TP3      O14422   2.864   2.534   8.112
  868TP3     H114423   2.921   2.515   8.037
  868TP3     H214424   2.917   2.511   8.189
  869TP3      O14425   2.323   2.190   7.752
  869TP3     H114426   2.279   2.106   7.765
  869TP3     H214427   2.361   2.185   7.665
  870TP3      O14428   2.708   2.428   8.365
  870TP3     H114429   2.647   2.496   8.395
  870TP3     H214430   2.783   2.436   8.424
  871TP3      O14431   2.747   2.972   7.526
  871TP3     H114432   2.680   2.927   7.474
  871TP3     H214433   2.701   3.005   7.602
  872TP3      O14434   3.480   2.947   8.358
  872TP3     H114435   3.540   3.003   8.310
  872TP3     H214436   3.407   2.933   8.298
  873TP3      O14437   3.079   2.315   7.367
  873TP3     H114438   2.986   2.330   7.385
  873TP3     H214439   3.124   2.386   7.412
  874TP3      O14440   2.912   3.036   8.653
  874TP3     H114441   2.945   3.000   8.735
  874TP3     H214442   2.895   3.128   8.672
  875TP3      O14443   3.209   2.508   7.518
  875TP3     H114444   3.290   2.476   7.558
  875TP3     H214445   3.233   2.592   7.480
  876TP3      O14446   2.280   2.936   8.071
  876TP3     H114447   2.339   2.923   7.997
  876TP3     H214448   2.315   2.879   8.140
  877TP3      O14449   2.969   3.117   7.474
  877TP3     H114450   2.940   3.206   7.452
  877TP3     H214451   2.888   3.068   7.488
  878TP3      O14452   1.994   2.766   8.609
  878TP3     H114453   1.966   2.723   8.689
  878TP3     H214454   1.925   2.747   8.545
  879TP3      O14455   2.706   2.748   8.835
  879TP3     H114456   2.643   2.708   8.776
  879TP3     H214457   2.788   2.701   8.819
  880TP3      O14458   3.121   3.288   8.609
  880TP3     H114459   3.029   3.301   8.632
  880TP3     H214460   3.168   3.349   8.667
  881TP3      O14461   3.674   2.464   7.489
  881TP3     H114462   3.632   2.408   7.423
  881TP3     H214463   3.656   2.553   7.460
  882TP3      O14464   3.717   3.085   8.749
  882TP3     H114465   3.630   3.103   8.712
  882TP3     H214466   3.774   3.076   8.672
  883TP3      O14467   3.544   3.354   7.541
  883TP3     H114468   3.505   3.320   7.621
  883TP3     H214469   3.479   3.335   7.473
  884TP3      O14470   3.270   2.890   8.177
  884TP3     H114471   3.174   2.883   8.176
  884TP3     H214472   3.300   2.808   8.135
  885TP3      O14473   2.540   3.284   7.868
  885TP3     H114474   2.566   3.373   7.847
  885TP3     H214475   2.447   3.280   7.844
  886TP3      O14476   2.625   3.048   7.753
  886TP3     H114477   2.612   3.136   7.787
  886TP3     H214478   2.563   2.994   7.802
  887TP3      O14479   2.760   3.481   8.447
  887TP3     H114480   2.783   3.568   8.479
  887TP3     H214481   2.798   3.421   8.512
  888TP3      O14482   2.538   3.554   7.830
  888TP3     H114483   2.456   3.581   7.790
  888TP3     H214484   2.590   3.635   7.834
  889TP3      O14485   3.023   3.073   8.405
  889TP3     H114486   2.984   3.059   8.491
  889TP3     H214487   3.109   3.029   8.410
  890TP3      O14488   3.377   3.501   8.541
  890TP3     H114489   3.337   3.497   8.628
  890TP3     H214490   3.367   3.592   8.514
  891TP3      O14491   3.716   3.638   7.313
  891TP3     H114492   3.750   3.700   7.248
  891TP3     H214493   3.644   3.684   7.356
  892TP3      O14494   2.112   2.279   8.546
  892TP3     H114495   2.025   2.318   8.540
  892TP3     H214496   2.096   2.189   8.575
  893TP3      O14497   3.439   3.016   7.548
  893TP3     H114498   3.393   2.962   7.613
  893TP3     H214499   3.531   2.993   7.559
  894TP3      O14500   2.130   3.449   8.409
  894TP3     H114501   2.157   3.371   8.457
  894TP3     H214502   2.141   3.521   8.471
  895TP3      O14503   2.233   3.022   7.466
  895TP3     H114504   2.150   3.057   7.499
  895TP3     H214505   2.279   3.098   7.431
  896TP3      O14506   3.027   2.228   8.499
  896TP3     H114507   3.096   2.236   8.564
  896TP3     H214508   2.988   2.142   8.516
  897TP3      O14509   3.069   2.184   7.623
  897TP3     H114510   3.105   2.207   7.537
  897TP3     H214511   3.130   2.221   7.686
  898TP3      O14512   2.866   3.359   7.413
  898TP3     H114513   2.787   3.404   7.383
  898TP3     H214514   2.938   3.410   7.375
  899TP3      O14515   2.795   2.382   7.686
  899TP3     H114516   2.872   2.439   7.686
  899TP3     H214517   2.795   2.343   7.774
  900TP3      O14518   2.903   2.468   8.553
  900TP3     H114519   2.907   2.491   8.646
  900TP3     H214520   2.944   2.382   8.548
  901TP3      O14521   2.871   2.030   7.716
  901TP3     H114522   2.886   2.037   7.811
  901TP3     H214523   2.943   2.078   7.677
  902TP3      O14524   2.442   2.208   7.469
  902TP3     H114525   2.449   2.276   7.401
  902TP3     H214526   2.532   2.183   7.487
  903TP3      O14527   3.471   2.264   8.652
  903TP3     H114528   3.381   2.294   8.657
  903TP3     H214529   3.476   2.215   8.570
  904TP3      O14530   3.340   2.639   8.063
  904TP3     H114531   3.259   2.595   8.041
  904TP3     H214532   3.388   2.577   8.118
  905TP3      O14533   2.313   3.280   7.349
  905TP3     H114534   2.272   3.346   7.405
  905TP3     H214535   2.388   3.324   7.311
  906TP3      O14536   3.462   3.588   8.214
  906TP3     H114537   3.455   3.657   8.148
  906TP3     H214538   3.556   3.581   8.232
  907TP3      O14539   2.199   1.995   8.084
  907TP3     H114540   2.196   1.982   7.989
  907TP3     H214541   2.176   1.910   8.121
  908TP3      O14542   2.069   3.378   7.716
  908TP3     H114543   2.017   3.415   7.787
  908TP3     H214544   2.057   3.440   7.644
  909TP3      O14545   2.046   3.677   8.892
  909TP3     H114546   2.113   3.657   8.957
  909TP3     H214547   2.015   3.592   8.862
  910TP3      O14548   2.471   3.484   9.011
  910TP3     H114549   2.543   3.426   9.035
  910TP3     H214550   2.446   3.456   8.923
  911TP3      O14551   3.003   3.505   7.221
  911TP3     H114552   2.912   3.496   7.191
  911TP3     H214553   3.055   3.460   7.155
  912TP3      O14554   3.036   3.305   8.903
  912TP3     H114555   3.066   3.231   8.956
  912TP3     H214556   3.115   3.353   8.882
  913TP3      O14557   2.020   3.013   8.935
  913TP3     H114558   2.028   2.919   8.924
  913TP3     H214559   1.946   3.039   8.880
  914TP3      O14560   2.673   3.029   8.902
  914TP3     H114561   2.661   3.076   8.820
  914TP3     H214562   2.701   2.941   8.876
  915TP3      O14563   3.244   3.044   8.660
  915TP3     H114564   3.334   3.071   8.642
  915TP3     H214565   3.192   3.124   8.645
  916TP3      O14566   2.106   2.751   8.906
  916TP3     H114567   2.181   2.702   8.872
  916TP3     H214568   2.115   2.745   9.001
  917TP3      O14569   2.574   2.813   7.387
  917TP3     H114570   2.513   2.794   7.458
  917TP3     H214571   2.615   2.728   7.367
  918TP3      O14572   2.511   2.646   8.637
  918TP3     H114573   2.436   2.704   8.636
  918TP3     H214574   2.574   2.686   8.577
  919TP3      O14575   3.018   2.869   8.947
  919TP3     H114576   3.095   2.830   8.907
  919TP3     H214577   2.987   2.803   9.009
  920TP3      O14578   2.554   2.393   8.734
  920TP3     H114579   2.556   2.329   8.663
  920TP3     H214580   2.540   2.477   8.690
  921TP3      O14581   2.569   2.224   8.511
  921TP3     H114582   2.625   2.271   8.450
  921TP3     H214583   2.485   2.217   8.466
  922TP3      O14584   2.704   2.755   8.483
  922TP3     H114585   2.792   2.778   8.512
  922TP3     H214586   2.670   2.835   8.443
  923TP3      O14587   3.145   2.526   8.991
  923TP3     H114588   3.143   2.448   9.046
  923TP3     H214589   3.238   2.546   8.980
  924TP3      O14590   3.294   2.833   8.822
  924TP3     H114591   3.267   2.911   8.772
  924TP3     H214592   3.390   2.836   8.820
  925TP3      O14593   2.386   2.445   8.950
  925TP3     H114594   2.310   2.389   8.934
  925TP3     H214595   2.441   2.435   8.872
  926TP3      O14596   2.643   1.959   8.567
  926TP3     H114597   2.617   2.050   8.550
  926TP3     H214598   2.580   1.906   8.518
  927TP3      O14599   2.775   2.355   8.896
  927TP3     H114600   2.735   2.326   8.978
  927TP3     H214601   2.701   2.361   8.835
  928TP3      O14602   3.035   2.284   8.809
  928TP3     H114603   2.949   2.287   8.851
  928TP3     H214604   3.090   2.236   8.871
  929TP3      O14605   3.235   2.167   8.975
  929TP3     H114606   3.220   2.072   8.981
  929TP3     H214607   3.199   2.202   9.056
  930TP3      O14608   2.192   2.251   8.903
  930TP3     H114609   2.189   2.180   8.839
  930TP3     H214610   2.199   2.206   8.987
  931TP3      O14611   2.638   1.877   8.825
  931TP3     H114612   2.696   1.801   8.820
  931TP3     H214613   2.635   1.910   8.736
  932TP3      O14614   2.702   2.034   9.041
  932TP3     H114615   2.684   1.982   8.962
  932TP3     H214616   2.651   2.114   9.030
  933TP3      O14617   2.098   3.199   7.182
  933TP3     H114618   2.168   3.230   7.240
  933TP3     H214619   2.048   3.137   7.235
  934TP3      O14620   1.905   3.714   7.794
  934TP3     H114621   1.849   3.682   7.724
  934TP3     H214622   1.920   3.637   7.849
  935TP3      O14623   1.971   3.499   7.959
  935TP3     H114624   1.929   3.427   8.007
  935TP3     H214625   2.024   3.544   8.025
  936TP3      O14626   3.729   3.588   8.288
  936TP3     H114627   3.722   3.584   8.383
  936TP3     H214628   3.792   3.658   8.271
  937TP3      O14629   3.680   3.545   8.559
  937TP3     H114630   3.645   3.466   8.518
  937TP3     H214631   3.664   3.533   8.652
  938TP3      O14632   3.545   3.158   9.052
  938TP3     H114633   3.457   3.177   9.083
  938TP3     H214634   3.597   3.235   9.077
  939TP3      O14635   3.708   2.939   7.541
  939TP3     H114636   3.773   3.006   7.559
  939TP3     H214637   3.716   2.877   7.614
  940TP3      O14638   3.730   2.762   7.753
  940TP3     H114639   3.646   2.732   7.789
  940TP3     H214640   3.783   2.783   7.830
  941TP3      O14641   3.712   3.079   8.279
  941TP3     H114642   3.766   3.015   8.233
  941TP3     H214643   3.739   3.164   8.243
  942TP3      O14644   3.542   3.327   8.437
  942TP3     H114645   3.477   3.386   8.476
  942TP3     H214646   3.506   3.307   8.350
  943TP3      O14647   3.485   2.648   7.832
  943TP3     H114648   3.472   2.557   7.806
  943TP3     H214649   3.446   2.654   7.918
  944TP3      O14650   1.967   2.849   8.225
  944TP3     H114651   1.976   2.837   8.130
  944TP3     H214652   2.052   2.824   8.261
  945TP3      O14653   3.573   2.845   8.819
  945TP3     H114654   3.630   2.771   8.799
  945TP3     H214655   3.620   2.921   8.787
  946TP3      O14656   3.718   2.614   8.780
  946TP3     H114657   3.630   2.575   8.783
  946TP3     H214658   3.775   2.548   8.818
  947TP3      O14659   3.453   2.403   7.653
  947TP3     H114660   3.467   2.308   7.652
  947TP3     H214661   3.534   2.439   7.617
  948TP3      O14662   3.499   2.457   8.201
  948TP3     H114663   3.593   2.465   8.183
  948TP3     H214664   3.493   2.469   8.296
  949TP3      O14665   3.527   2.545   8.466
  949TP3     H114666   3.448   2.573   8.512
  949TP3     H214667   3.578   2.625   8.454
  950TP3      O14668   1.958   2.387   8.881
  950TP3     H114669   2.045   2.349   8.882
  950TP3     H214670   1.900   2.314   8.859
  951TP3      O14671   3.750   1.970   8.990
  951TP3     H114672   3.812   1.903   8.962
  951TP3     H214673   3.751   2.036   8.921
  952TP3      O14674   3.518   2.139   7.651
  952TP3     H114675   3.540   2.102   7.736
  952TP3     H214676   3.459   2.075   7.611
  953TP3      O14677   2.031   2.220   8.118
  953TP3     H114678   2.072   2.133   8.113
  953TP3     H214679   2.103   2.278   8.143
  954TP3      O14680   1.875   2.551   8.157
  954TP3     H114681   1.949   2.545   8.096
  954TP3     H214682   1.911   2.595   8.233
  955TP3      O14683   3.698   2.155   8.795
  955TP3     H114684   3.619   2.191   8.837
  955TP3     H214685   3.664   2.098   8.726
  956TP3      O14686   1.889   2.157   7.577
  956TP3     H114687   1.827   2.160   7.650
  956TP3     H214688   1.849   2.098   7.514
  957TP3      O14689   3.439   3.610   7.841
  957TP3     H114690   3.504   3.625   7.773
  957TP3     H214691   3.455   3.680   7.905
  958TP3      O14692   1.951   2.026   8.467
  958TP3     H114693   1.894   1.992   8.536
  958TP3     H214694   1.900   2.018   8.387
  959TP3      O14695   2.136   3.366   8.861
  959TP3     H114696   2.049   3.372   8.822
  959TP3     H214697   2.121   3.330   8.948
  960TP3      O14698   2.483   3.448   8.487
  960TP3     H114699   2.452   3.536   8.464
  960TP3     H214700   2.578   3.453   8.478
  961TP3      O14701   2.842   3.575   8.784
  961TP3     H114702   2.849   3.544   8.874
  961TP3     H214703   2.920   3.629   8.771
  962TP3      O14704   3.065   3.732   8.763
  962TP3     H114705   3.127   3.659   8.760
  962TP3     H214706   3.092   3.782   8.840
  963TP3      O14707   3.601   1.926   8.626
  963TP3     H114708   3.525   1.930   8.569
  963TP3     H214709   3.634   1.837   8.615
  964TP3      O14710   2.172   3.745   8.519
  964TP3     H114711   2.093   3.781   8.478
  964TP3     H214712   2.181   3.793   8.601
  965TP3      O14713   2.426   3.708   8.422
  965TP3     H114714   2.336   3.721   8.453
  965TP3     H214715   2.432   3.762   8.343
  966TP3      O14716   2.873   3.720   8.318
  966TP3     H114717   2.815   3.764   8.256
  966TP3     H214718   2.884   3.783   8.389
  967TP3      O14719   3.125   3.609   8.368
  967TP3     H114720   3.054   3.673   8.367
  967TP3     H214721   3.199   3.656   8.405
  968TP3      O14722   3.368   3.745   8.424
  968TP3     H114723   3.381   3.837   8.401
  968TP3     H214724   3.400   3.697   8.348
  969TP3      O14725   2.135   3.601   8.172
  969TP3     H114726   2.128   3.556   8.256
  969TP3     H214727   2.213   3.563   8.131
  970TP3      O14728   2.344   3.475   8.054
  970TP3     H114729   2.336   3.385   8.085
  970TP3     H214730   2.436   3.483   8.029
  971TP3      O14731   2.672   3.479   8.167
  971TP3     H114732   2.642   3.389   8.154
  971TP3     H214733   2.611   3.515   8.232
  972TP3      O14734   2.884   2.064   7.991
  972TP3     H114735   2.844   1.994   8.042
  972TP3     H214736   2.976   2.039   7.983
  973TP3      O14737   3.482   1.881   8.057
  973TP3     H114738   3.516   1.958   8.012
  973TP3     H214739   3.404   1.913   8.103
  974TP3      O14740   3.628   2.035   7.877
  974TP3     H114741   3.690   1.967   7.853
  974TP3     H214742   3.683   2.112   7.895
  975TP3      O14743   2.180   1.947   7.808
  975TP3     H114744   2.086   1.932   7.797
  975TP3     H214745   2.218   1.859   7.809
  976TP3      O14746   2.630   1.912   7.826
  976TP3     H114747   2.710   1.947   7.785
  976TP3     H214748   2.651   1.907   7.919
  977TP3      O14749   3.137   1.989   7.919
  977TP3     H114750   3.174   1.923   7.860
  977TP3     H214751   3.174   1.968   8.005
  978TP3      O14752   3.358   1.945   7.544
  978TP3     H114753   3.320   1.958   7.457
  978TP3     H214754   3.297   1.886   7.589
  979TP3      O14755   2.072   3.549   7.506
  979TP3     H114756   2.006   3.589   7.449
  979TP3     H214757   2.149   3.606   7.497
  980TP3      O14758   2.709   2.158   7.529
  980TP3     H114759   2.757   2.097   7.586
  980TP3     H214760   2.737   2.245   7.558
  981TP3      O14761   2.864   3.682   7.394
  981TP3     H114762   2.934   3.642   7.343
  981TP3     H214763   2.783   3.649   7.354
  982TP3      O14764   3.615   3.623   7.628
  982TP3     H114765   3.598   3.535   7.594
  982TP3     H214766   3.586   3.682   7.559
  983TP3      O14767   2.180   1.998   8.776
  983TP3     H114768   2.118   1.934   8.811
  983TP3     H214769   2.262   1.980   8.820
  984TP3      O14770   2.384   1.920   8.939
  984TP3     H114771   2.471   1.899   8.905
  984TP3     H214772   2.357   1.841   8.985
  985TP3      O14773   3.232   1.888   8.970
  985TP3     H114774   3.222   1.842   9.053
  985TP3     H214775   3.325   1.877   8.948
  986TP3      O14776   3.575   3.526   8.826
  986TP3     H114777   3.483   3.507   8.810
  986TP3     H214778   3.578   3.559   8.916
  987TP3      O14779   4.970   2.875   7.806
  987TP3     H114780   4.945   2.967   7.811
  987TP3     H214781   4.917   2.839   7.735
  988TP3      O14782   4.850   2.810   8.206
  988TP3     H114783   4.881   2.764   8.284
  988TP3     H214784   4.805   2.743   8.155
  989TP3      O14785   4.078   2.745   8.329
  989TP3     H114786   4.082   2.674   8.392
  989TP3     H214787   4.169   2.767   8.310
  990TP3      O14788   5.240   3.125   8.024
  990TP3     H114789   5.214   3.043   8.066
  990TP3     H214790   5.256   3.185   8.097
  991TP3      O14791   4.223   3.217   8.127
  991TP3     H114792   4.186   3.130   8.116
  991TP3     H214793   4.316   3.202   8.148
  992TP3      O14794   3.881   2.537   7.667
  992TP3     H114795   3.848   2.619   7.705
  992TP3     H214796   3.808   2.504   7.614
  993TP3      O14797   3.922   2.792   7.958
  993TP3     H114798   3.953   2.704   7.981
  993TP3     H214799   4.000   2.847   7.966
  994TP3      O14800   4.963   3.573   8.057
  994TP3     H114801   5.002   3.517   7.989
  994TP3     H214802   4.948   3.513   8.131
  995TP3      O14803   4.705   3.058   8.222
  995TP3     H114804   4.743   2.977   8.190
  995TP3     H214805   4.773   3.096   8.277
  996TP3      O14806   5.017   2.471   8.225
  996TP3     H114807   5.034   2.377   8.237
  996TP3     H214808   5.001   2.481   8.132
  997TP3      O14809   4.367   2.296   7.960
  997TP3     H114810   4.376   2.377   7.910
  997TP3     H214811   4.308   2.242   7.907
  998TP3      O14812   5.117   2.324   7.808
  998TP3     H114813   5.162   2.292   7.887
  998TP3     H214814   5.187   2.357   7.753
  999TP3      O14815   4.008   2.542   8.036
  999TP3     H114816   4.069   2.502   8.098
  999TP3     H214817   4.034   2.505   7.951
 1000TP3      O14818   4.478   2.681   8.012
 1000TP3     H114819   4.565   2.649   8.036
 1000TP3     H214820   4.448   2.619   7.945
 1001TP3      O14821   4.221   2.206   8.382
 1001TP3     H114822   4.200   2.264   8.309
 1001TP3     H214823   4.146   2.213   8.440
 1002TP3      O14824   4.899   3.134   7.725
 1002TP3     H114825   4.987   3.156   7.697
 1002TP3     H214826   4.855   3.218   7.737
 1003TP3      O14827   4.482   2.976   8.361
 1003TP3     H114828   4.432   3.049   8.398
 1003TP3     H214829   4.555   3.018   8.315
 1004TP3      O14830   5.231   2.257   8.038
 1004TP3     H114831   5.211   2.175   8.083
 1004TP3     H214832   5.287   2.305   8.099
 1005TP3      O14833   4.200   2.376   8.165
 1005TP3     H114834   4.254   2.433   8.220
 1005TP3     H214835   4.260   2.344   8.097
 1006TP3      O14836   4.337   3.181   8.473
 1006TP3     H114837   4.342   3.276   8.463
 1006TP3     H214838   4.246   3.165   8.500
 1007TP3      O14839   3.896   3.183   7.545
 1007TP3     H114840   3.811   3.223   7.527
 1007TP3     H214841   3.936   3.240   7.611
 1008TP3      O14842   5.260   3.308   8.241
 1008TP3     H114843   5.165   3.320   8.251
 1008TP3     H214844   5.294   3.397   8.230
 1009TP3      O14845   5.283   2.125   8.326
 1009TP3     H114846   5.191   2.148   8.312
 1009TP3     H214847   5.331   2.205   8.305
 1010TP3      O14848   4.580   1.893   8.124
 1010TP3     H114849   4.556   1.801   8.130
 1010TP3     H214850   4.502   1.939   8.156
 1011TP3      O14851   5.094   3.453   7.842
 1011TP3     H114852   5.135   3.370   7.818
 1011TP3     H214853   5.166   3.516   7.845
 1012TP3      O14854   5.208   3.217   7.764
 1012TP3     H114855   5.257   3.162   7.702
 1012TP3     H214856   5.225   3.178   7.849
 1013TP3      O14857   5.378   3.051   8.605
 1013TP3     H114858   5.379   2.998   8.525
 1013TP3     H214859   5.402   3.139   8.576
 1014TP3      O14860   4.846   2.810   7.564
 1014TP3     H114861   4.818   2.900   7.547
 1014TP3     H214862   4.921   2.796   7.506
 1015TP3      O14863   5.207   2.842   7.662
 1015TP3     H114864   5.133   2.854   7.721
 1015TP3     H214865   5.264   2.779   7.707
 1016TP3      O14866   5.150   2.638   8.602
 1016TP3     H114867   5.141   2.708   8.666
 1016TP3     H214868   5.083   2.656   8.536
 1017TP3      O14869   4.353   2.891   7.876
 1017TP3     H114870   4.312   2.852   7.799
 1017TP3     H214871   4.405   2.819   7.914
 1018TP3      O14872   4.508   3.232   8.118
 1018TP3     H114873   4.514   3.233   8.022
 1018TP3     H214874   4.580   3.175   8.145
 1019TP3      O14875   4.341   2.781   8.233
 1019TP3     H114876   4.393   2.754   8.157
 1019TP3     H214877   4.394   2.848   8.276
 1020TP3      O14878   4.996   3.353   8.293
 1020TP3     H114879   4.995   3.415   8.366
 1020TP3     H214880   4.963   3.271   8.332
 1021TP3      O14881   4.492   3.206   8.701
 1021TP3     H114882   4.431   3.267   8.743
 1021TP3     H214883   4.447   3.179   8.621
 1022TP3      O14884   5.072   2.775   7.425
 1022TP3     H114885   5.133   2.798   7.494
 1022TP3     H214886   5.127   2.740   7.355
 1023TP3      O14887   4.152   2.784   8.666
 1023TP3     H114888   4.164   2.869   8.708
 1023TP3     H214889   4.061   2.785   8.635
 1024TP3      O14890   4.846   3.411   7.735
 1024TP3     H114891   4.930   3.420   7.780
 1024TP3     H214892   4.813   3.501   7.729
 1025TP3      O14893   4.299   3.386   8.771
 1025TP3     H114894   4.292   3.419   8.682
 1025TP3     H214895   4.208   3.372   8.799
 1026TP3      O14896   5.434   1.927   7.460
 1026TP3     H114897   5.347   1.966   7.475
 1026TP3     H214898   5.437   1.913   7.365
 1027TP3      O14899   4.232   2.797   7.650
 1027TP3     H114900   4.187   2.856   7.591
 1027TP3     H214901   4.260   2.724   7.594
 1028TP3      O14902   3.856   3.038   8.521
 1028TP3     H114903   3.802   3.050   8.442
 1028TP3     H214904   3.869   2.943   8.527
 1029TP3      O14905   3.816   3.334   8.203
 1029TP3     H114906   3.896   3.339   8.256
 1029TP3     H214907   3.765   3.410   8.230
 1030TP3      O14908   4.728   3.334   8.648
 1030TP3     H114909   4.725   3.418   8.695
 1030TP3     H214910   4.643   3.293   8.668
 1031TP3      O14911   4.783   3.681   7.671
 1031TP3     H114912   4.688   3.669   7.672
 1031TP3     H214913   4.797   3.770   7.705
 1032TP3      O14914   4.172   3.567   7.813
 1032TP3     H114915   4.187   3.539   7.903
 1032TP3     H214916   4.109   3.503   7.779
 1033TP3      O14917   5.054   3.664   7.607
 1033TP3     H114918   4.962   3.658   7.633
 1033TP3     H214919   5.101   3.614   7.674
 1034TP3      O14920   5.345   2.559   8.843
 1034TP3     H114921   5.306   2.562   8.756
 1034TP3     H214922   5.428   2.515   8.831
 1035TP3      O14923   4.084   3.179   8.577
 1035TP3     H114924   4.106   3.145   8.664
 1035TP3     H214925   4.002   3.135   8.554
 1036TP3      O14926   4.334   2.005   8.216
 1036TP3     H114927   4.257   1.993   8.161
 1036TP3     H214928   4.309   2.076   8.276
 1037TP3      O14929   4.807   1.985   8.562
 1037TP3     H114930   4.852   1.931   8.627
 1037TP3     H214931   4.714   1.969   8.579
 1038TP3      O14932   5.130   2.356   8.623
 1038TP3     H114933   5.071   2.344   8.697
 1038TP3     H214934   5.135   2.451   8.610
 1039TP3      O14935   4.768   2.152   7.255
 1039TP3     H114936   4.725   2.172   7.338
 1039TP3     H214937   4.810   2.068   7.268
 1040TP3      O14938   4.345   2.527   8.341
 1040TP3     H114939   4.277   2.527   8.409
 1040TP3     H214940   4.348   2.618   8.311
 1041TP3      O14941   4.363   2.525   7.811
 1041TP3     H114942   4.268   2.516   7.805
 1041TP3     H214943   4.392   2.533   7.720
 1042TP3      O14944   4.883   2.558   7.680
 1042TP3     H114945   4.865   2.644   7.642
 1042TP3     H214946   4.952   2.521   7.625
 1043TP3      O14947   4.812   2.556   8.820
 1043TP3     H114948   4.780   2.467   8.835
 1043TP3     H214949   4.902   2.555   8.852
 1044TP3      O14950   4.977   2.510   7.955
 1044TP3     H114951   4.940   2.566   7.887
 1044TP3     H214952   5.016   2.436   7.908
 1045TP3      O14953   4.124   2.528   8.504
 1045TP3     H114954   4.116   2.577   8.585
 1045TP3     H214955   4.079   2.445   8.521
 1046TP3      O14956   3.809   2.233   7.895
 1046TP3     H114957   3.856   2.242   7.978
 1046TP3     H214958   3.877   2.236   7.828
 1047TP3      O14959   4.938   2.646   8.415
 1047TP3     H114960   4.974   2.587   8.348
 1047TP3     H214961   4.871   2.593   8.459
 1048TP3      O14962   4.650   2.243   7.908
 1048TP3     H114963   4.563   2.254   7.945
 1048TP3     H214964   4.703   2.211   7.980
 1049TP3      O14965   4.100   2.437   7.799
 1049TP3     H114966   4.027   2.464   7.743
 1049TP3     H214967   4.116   2.345   7.774
 1050TP3      O14968   4.440   2.532   7.540
 1050TP3     H114969   4.521   2.488   7.569
 1050TP3     H214970   4.455   2.549   7.447
 1051TP3      O14971   5.019   2.193   8.258
 1051TP3     H114972   4.969   2.207   8.338
 1051TP3     H214973   4.956   2.157   8.196
 1052TP3      O14974   5.378   3.762   8.910
 1052TP3     H114975   5.385   3.798   8.822
 1052TP3     H214976   5.468   3.761   8.943
 1053TP3      O14977   4.150   3.024   8.813
 1053TP3     H114978   4.215   3.026   8.884
 1053TP3     H214979   4.066   3.032   8.858
 1054TP3      O14980   4.717   2.571   8.107
 1054TP3     H114981   4.790   2.526   8.064
 1054TP3     H214982   4.688   2.510   8.175
 1055TP3      O14983   4.194   2.165   7.778
 1055TP3     H114984   4.137   2.091   7.799
 1055TP3     H214985   4.263   2.128   7.723
 1056TP3      O14986   4.602   2.426   8.325
 1056TP3     H114987   4.517   2.469   8.334
 1056TP3     H214988   4.652   2.454   8.402
 1057TP3      O14989   4.617   3.047   7.495
 1057TP3     H114990   4.601   2.953   7.482
 1057TP3     H214991   4.597   3.062   7.587
 1058TP3      O14992   5.367   2.910   8.371
 1058TP3     H114993   5.447   2.895   8.321
 1058TP3     H214994   5.297   2.905   8.307
 1059TP3      O14995   4.799   3.052   8.638
 1059TP3     H114996   4.831   3.021   8.723
 1059TP3     H214997   4.770   3.142   8.654
 1060TP3      O14998   5.072   2.448   7.509
 1060TP3     H114999   5.161   2.444   7.543
 1060TP3     H215000   5.082   2.485   7.421
 1061TP3      O15001   4.165   2.941   8.066
 1061TP3     H115002   4.229   2.936   7.995
 1061TP3     H215003   4.202   2.885   8.135
 1062TP3      O15004   3.879   2.764   8.605
 1062TP3     H115005   3.846   2.722   8.685
 1062TP3     H215006   3.812   2.748   8.540
 1063TP3      O15007   4.593   2.747   8.835
 1063TP3     H115008   4.526   2.717   8.774
 1063TP3     H215009   4.673   2.702   8.808
 1064TP3      O15010   5.015   3.317   8.649
 1064TP3     H115011   4.923   3.323   8.622
 1064TP3     H215012   5.014   3.333   8.743
 1065TP3      O15013   5.407   3.352   7.456
 1065TP3     H115014   5.363   3.279   7.500
 1065TP3     H215015   5.399   3.332   7.363
 1066TP3      O15016   5.158   2.872   8.179
 1066TP3     H115017   5.063   2.868   8.171
 1066TP3     H215018   5.190   2.795   8.132
 1067TP3      O15019   4.427   3.317   7.849
 1067TP3     H115020   4.447   3.398   7.802
 1067TP3     H215021   4.340   3.332   7.886
 1068TP3      O15022   4.506   3.077   7.739
 1068TP3     H115023   4.484   3.162   7.777
 1068TP3     H215024   4.457   3.014   7.792
 1069TP3      O15025   4.619   3.482   8.426
 1069TP3     H115026   4.678   3.554   8.404
 1069TP3     H215027   4.670   3.425   8.484
 1070TP3      O15028   4.427   3.582   7.708
 1070TP3     H115029   4.335   3.584   7.735
 1070TP3     H215030   4.467   3.655   7.756
 1071TP3      O15031   4.918   3.103   8.397
 1071TP3     H115032   4.879   3.079   8.481
 1071TP3     H215033   4.988   3.039   8.384
 1072TP3      O15034   5.168   3.197   7.370
 1072TP3     H115035   5.217   3.134   7.423
 1072TP3     H215036   5.224   3.211   7.293
 1073TP3      O15037   5.239   3.490   8.613
 1073TP3     H115038   5.161   3.436   8.614
 1073TP3     H215039   5.219   3.560   8.550
 1074TP3      O15040   3.995   2.280   8.546
 1074TP3     H115041   3.904   2.310   8.537
 1074TP3     H215042   3.988   2.201   8.600
 1075TP3      O15043   5.334   3.053   7.532
 1075TP3     H115044   5.297   2.973   7.571
 1075TP3     H215045   5.387   3.022   7.459
 1076TP3      O15046   4.006   3.431   8.405
 1076TP3     H115047   4.043   3.354   8.449
 1076TP3     H215048   3.989   3.493   8.476
 1077TP3      O15049   4.424   3.248   7.405
 1077TP3     H115050   4.490   3.185   7.435
 1077TP3     H215051   4.458   3.333   7.432
 1078TP3      O15052   4.121   3.005   7.487
 1078TP3     H115053   4.044   3.052   7.520
 1078TP3     H215054   4.194   3.066   7.499
 1079TP3      O15055   4.901   2.235   8.501
 1079TP3     H115056   4.983   2.247   8.549
 1079TP3     H215057   4.870   2.148   8.527
 1080TP3      O15058   4.984   2.188   7.614
 1080TP3     H115059   4.990   2.257   7.548
 1080TP3     H215060   5.026   2.225   7.692
 1081TP3      O15061   4.659   2.399   7.668
 1081TP3     H115062   4.736   2.455   7.673
 1081TP3     H215063   4.654   2.358   7.754
 1082TP3      O15064   4.769   2.474   8.543
 1082TP3     H115065   4.781   2.495   8.635
 1082TP3     H215066   4.810   2.388   8.533
 1083TP3      O15067   4.757   2.065   7.722
 1083TP3     H115068   4.730   2.130   7.786
 1083TP3     H215069   4.840   2.098   7.687
 1084TP3      O15070   4.498   3.527   7.445
 1084TP3     H115071   4.519   3.617   7.418
 1084TP3     H215072   4.472   3.536   7.537
 1085TP3      O15073   5.411   2.297   8.632
 1085TP3     H115074   5.319   2.275   8.642
 1085TP3     H215075   5.411   2.371   8.571
 1086TP3      O15076   5.225   2.622   8.056
 1086TP3     H115077   5.139   2.590   8.027
 1086TP3     H215078   5.256   2.554   8.116
 1087TP3      O15079   3.958   2.542   7.209
 1087TP3     H115080   4.053   2.532   7.205
 1087TP3     H215081   3.934   2.506   7.294
 1088TP3      O15082   5.368   3.565   8.236
 1088TP3     H115083   5.352   3.636   8.175
 1088TP3     H215084   5.451   3.527   8.207
 1089TP3      O15085   4.085   1.979   8.097
 1089TP3     H115086   4.072   1.966   8.003
 1089TP3     H215087   4.055   1.897   8.137
 1090TP3      O15088   3.965   3.401   7.713
 1090TP3     H115089   3.914   3.430   7.789
 1090TP3     H215090   3.940   3.462   7.643
 1091TP3      O15091   3.936   3.668   8.884
 1091TP3     H115092   4.002   3.646   8.949
 1091TP3     H215093   3.906   3.583   8.850
 1092TP3      O15094   4.363   3.481   9.020
 1092TP3     H115095   4.440   3.429   9.042
 1092TP3     H215096   4.341   3.455   8.931
 1093TP3      O15097   5.001   3.352   8.918
 1093TP3     H115098   4.991   3.266   8.958
 1093TP3     H215099   5.077   3.390   8.960
 1094TP3      O15100   3.904   3.019   8.941
 1094TP3     H115101   3.913   2.924   8.932
 1094TP3     H215102   3.829   3.042   8.885
 1095TP3      O15103   4.560   3.029   8.900
 1095TP3     H115104   4.544   3.078   8.819
 1095TP3     H215105   4.585   2.941   8.869
 1096TP3      O15106   5.117   3.052   8.679
 1096TP3     H115107   5.208   3.058   8.649
 1096TP3     H215108   5.079   3.138   8.659
 1097TP3      O15109   3.979   2.758   8.913
 1097TP3     H115110   4.057   2.726   8.867
 1097TP3     H215111   3.998   2.742   9.006
 1098TP3      O15112   4.399   2.646   8.657
 1098TP3     H115113   4.317   2.696   8.654
 1098TP3     H215114   4.454   2.686   8.590
 1099TP3      O15115   4.912   2.870   8.954
 1099TP3     H115116   4.992   2.849   8.907
 1099TP3     H215117   4.890   2.789   9.001
 1100TP3      O15118   4.457   2.386   8.719
 1100TP3     H115119   4.458   2.330   8.642
 1100TP3     H215120   4.439   2.474   8.684
 1101TP3      O15121   4.471   2.224   8.490
 1101TP3     H115122   4.523   2.269   8.423
 1101TP3     H215123   4.383   2.219   8.453
 1102TP3      O15124   4.582   2.765   8.500
 1102TP3     H115125   4.677   2.775   8.498
 1102TP3     H215126   4.549   2.842   8.454
 1103TP3      O15127   5.054   2.533   8.981
 1103TP3     H115128   5.068   2.449   9.025
 1103TP3     H215129   5.141   2.557   8.949
 1104TP3      O15130   5.160   2.836   8.835
 1104TP3     H115131   5.138   2.914   8.784
 1104TP3     H215132   5.255   2.832   8.833
 1105TP3      O15133   4.278   2.439   8.932
 1105TP3     H115134   4.199   2.387   8.917
 1105TP3     H215135   4.327   2.431   8.850
 1106TP3      O15136   4.528   1.961   8.563
 1106TP3     H115137   4.509   2.051   8.539
 1106TP3     H215138   4.461   1.909   8.519
 1107TP3      O15139   4.666   2.328   8.883
 1107TP3     H115140   4.646   2.239   8.911
 1107TP3     H215141   4.596   2.350   8.822
 1108TP3      O15142   4.949   2.291   8.811
 1108TP3     H115143   4.863   2.256   8.836
 1108TP3     H215144   5.011   2.243   8.865
 1109TP3      O15145   5.124   2.162   8.974
 1109TP3     H115146   5.120   2.066   8.979
 1109TP3     H215147   5.087   2.192   9.057
 1110TP3      O15148   4.079   2.247   8.899
 1110TP3     H115149   4.073   2.173   8.839
 1110TP3     H215150   4.085   2.208   8.986
 1111TP3      O15151   4.528   1.876   8.823
 1111TP3     H115152   4.583   1.799   8.817
 1111TP3     H215153   4.520   1.907   8.732
 1112TP3      O15154   4.594   2.086   8.984
 1112TP3     H115155   4.586   2.009   8.928
 1112TP3     H215156   4.505   2.102   9.015
 1113TP3      O15157   4.531   3.799   7.373
 1113TP3     H115158   4.582   3.862   7.425
 1113TP3     H215159   4.444   3.838   7.368
 1114TP3      O15160   3.948   3.177   7.260
 1114TP3     H115161   3.953   3.167   7.355
 1114TP3     H215162   3.878   3.241   7.246
 1115TP3      O15163   3.796   3.726   7.811
 1115TP3     H115164   3.740   3.695   7.739
 1115TP3     H215165   3.810   3.649   7.866
 1116TP3      O15166   3.865   3.502   7.962
 1116TP3     H115167   3.822   3.428   8.006
 1116TP3     H215168   3.915   3.545   8.031
 1117TP3      O15169   5.426   3.135   9.078
 1117TP3     H115170   5.341   3.157   9.118
 1117TP3     H215171   5.487   3.197   9.118
 1118TP3      O15172   5.402   3.296   8.488
 1118TP3     H115173   5.357   3.370   8.529
 1118TP3     H215174   5.366   3.292   8.400
 1119TP3      O15175   5.344   2.648   7.802
 1119TP3     H115176   5.323   2.563   7.765
 1119TP3     H215177   5.314   2.643   7.893
 1120TP3      O15178   3.852   2.846   8.218
 1120TP3     H115179   3.863   2.833   8.124
 1120TP3     H215180   3.935   2.820   8.257
 1121TP3      O15181   5.434   2.881   8.813
 1121TP3     H115182   5.488   2.820   8.762
 1121TP3     H215183   5.415   2.952   8.752
 1122TP3      O15184   5.322   2.416   7.638
 1122TP3     H115185   5.348   2.324   7.646
 1122TP3     H215186   5.380   2.451   7.571
 1123TP3      O15187   5.361   2.394   8.235
 1123TP3     H115188   5.440   2.440   8.209
 1123TP3     H215189   5.343   2.426   8.324
 1124TP3      O15190   5.379   2.526   8.478
 1124TP3     H115191   5.307   2.581   8.509
 1124TP3     H215192   5.436   2.586   8.429
 1125TP3      O15193   3.849   2.387   8.873
 1125TP3     H115194   3.935   2.347   8.876
 1125TP3     H215195   3.789   2.315   8.851
 1126TP3      O15196   5.361   2.150   7.669
 1126TP3     H115197   5.375   2.112   7.756
 1126TP3     H215198   5.302   2.088   7.625
 1127TP3      O15199   3.962   2.226   8.122
 1127TP3     H115200   3.998   2.138   8.126
 1127TP3     H215201   4.037   2.283   8.142
 1128TP3      O15202   3.770   2.508   8.189
 1128TP3     H115203   3.842   2.509   8.126
 1128TP3     H215204   3.793   2.575   8.253
 1129TP3      O15205   3.782   2.201   7.568
 1129TP3     H115206   3.701   2.160   7.601
 1129TP3     H215207   3.763   2.295   7.571
 1130TP3      O15208   5.271   3.656   7.812
 1130TP3     H115209   5.327   3.641   7.736
 1130TP3     H215210   5.327   3.704   7.874
 1131TP3      O15211   3.813   1.987   8.448
 1131TP3     H115212   3.740   1.973   8.507
 1131TP3     H215213   3.783   2.054   8.387
 1132TP3      O15214   4.050   3.351   8.880
 1132TP3     H115215   3.963   3.352   8.840
 1132TP3     H215216   4.034   3.325   8.971
 1133TP3      O15217   4.356   3.456   8.499
 1133TP3     H115218   4.323   3.543   8.476
 1133TP3     H215219   4.450   3.461   8.481
 1134TP3      O15220   4.727   3.574   8.786
 1134TP3     H115221   4.738   3.546   8.877
 1134TP3     H215222   4.805   3.626   8.767
 1135TP3      O15223   4.956   3.716   8.747
 1135TP3     H115224   5.022   3.672   8.694
 1135TP3     H215225   5.004   3.743   8.826
 1136TP3      O15226   5.410   1.906   8.630
 1136TP3     H115227   5.334   1.919   8.574
 1136TP3     H215228   5.444   1.820   8.605
 1137TP3      O15229   4.058   3.765   8.516
 1137TP3     H115230   3.976   3.796   8.477
 1137TP3     H215231   4.061   3.808   8.602
 1138TP3      O15232   4.311   3.719   8.432
 1138TP3     H115233   4.221   3.734   8.461
 1138TP3     H215234   4.318   3.768   8.350
 1139TP3      O15235   4.773   3.695   8.343
 1139TP3     H115236   4.726   3.732   8.268
 1139TP3     H215237   4.780   3.768   8.404
 1140TP3      O15238   5.010   3.591   8.445
 1140TP3     H115239   4.929   3.625   8.406
 1140TP3     H215240   5.077   3.654   8.421
 1141TP3      O15241   5.257   3.735   8.427
 1141TP3     H115242   5.265   3.822   8.387
 1141TP3     H215243   5.299   3.676   8.364
 1142TP3      O15244   4.022   3.599   8.177
 1142TP3     H115245   4.010   3.552   8.260
 1142TP3     H215246   4.101   3.561   8.139
 1143TP3      O15247   4.238   3.478   8.064
 1143TP3     H115248   4.222   3.388   8.090
 1143TP3     H215249   4.322   3.501   8.106
 1144TP3      O15250   4.492   3.504   8.179
 1144TP3     H115251   4.503   3.414   8.150
 1144TP3     H215252   4.525   3.505   8.269
 1145TP3      O15253   4.819   2.080   8.073
 1145TP3     H115254   4.755   2.010   8.088
 1145TP3     H215255   4.895   2.036   8.034
 1146TP3      O15256   5.308   1.896   8.089
 1146TP3     H115257   5.359   1.959   8.039
 1146TP3     H215258   5.217   1.917   8.070
 1147TP3      O15259   5.444   2.050   7.915
 1147TP3     H115260   5.510   1.994   7.875
 1147TP3     H215261   5.484   2.137   7.918
 1148TP3      O15262   4.048   1.936   7.826
 1148TP3     H115263   3.958   1.913   7.803
 1148TP3     H215264   4.096   1.853   7.821
 1149TP3      O15265   4.534   1.921   7.838
 1149TP3     H115266   4.608   1.971   7.804
 1149TP3     H215267   4.551   1.914   7.932
 1150TP3      O15268   5.045   1.940   7.983
 1150TP3     H115269   5.087   1.920   7.900
 1150TP3     H215270   5.016   1.855   8.017
 1151TP3      O15271   5.173   1.985   7.548
 1151TP3     H115272   5.101   2.046   7.562
 1151TP3     H215273   5.137   1.899   7.569
 1152TP3      O15274   3.909   3.570   7.508
 1152TP3     H115275   3.836   3.579   7.446
 1152TP3     H215276   3.940   3.660   7.521
 1153TP3      O15277   4.640   2.183   7.495
 1153TP3     H115278   4.667   2.121   7.563
 1153TP3     H215279   4.639   2.268   7.539
 1154TP3      O15280   5.433   3.595   7.590
 1154TP3     H115281   5.419   3.508   7.554
 1154TP3     H215282   5.481   3.642   7.522
 1155TP3      O15283   4.065   1.996   8.777
 1155TP3     H115284   4.003   1.931   8.809
 1155TP3     H215285   4.147   1.975   8.821
 1156TP3      O15286   4.274   1.919   8.945
 1156TP3     H115287   4.355   1.888   8.906
 1156TP3     H215288   4.236   1.841   8.987
 1157TP3      O15289   5.137   1.885   8.970
 1157TP3     H115290   5.120   1.839   9.052
 1157TP3     H215291   5.230   1.873   8.954
 1158TP3      O15292   5.394   3.492   8.850
 1158TP3     H115293   5.351   3.481   8.765
 1158TP3     H215294   5.383   3.585   8.870
 1159TP3      O15295   1.208   4.777   7.808
 1159TP3     H115296   1.203   4.872   7.803
 1159TP3     H215297   1.144   4.746   7.744
 1160TP3      O15298   1.094   4.692   8.208
 1160TP3     H115299   1.120   4.647   8.288
 1160TP3     H215300   1.048   4.626   8.157
 1161TP3      O15301   0.302   4.645   8.344
 1161TP3     H115302   0.302   4.566   8.399
 1161TP3     H215303   0.363   4.704   8.388
 1162TP3      O15304   1.475   4.993   8.028
 1162TP3     H115305   1.438   4.915   8.069
 1162TP3     H215306   1.487   5.055   8.100
 1163TP3      O15307   0.447   5.074   8.166
 1163TP3     H115308   0.414   4.988   8.140
 1163TP3     H215309   0.542   5.065   8.162
 1164TP3      O15310   0.106   4.478   7.746
 1164TP3     H115311   0.119   4.559   7.797
 1164TP3     H215312   0.012   4.474   7.730
 1165TP3      O15313   0.163   4.668   7.973
 1165TP3     H115314   0.201   4.585   8.000
 1165TP3     H215315   0.234   4.731   7.981
 1166TP3      O15316   1.181   5.381   8.034
 1166TP3     H115317   1.258   5.356   7.983
 1166TP3     H215318   1.188   5.331   8.115
 1167TP3      O15319   0.941   4.936   8.215
 1167TP3     H115320   0.983   4.855   8.185
 1167TP3     H215321   1.007   4.978   8.270
 1168TP3      O15322   1.819   4.079   8.319
 1168TP3     H115323   1.835   4.149   8.382
 1168TP3     H215324   1.861   4.109   8.238
 1169TP3      O15325   1.245   4.362   8.222
 1169TP3     H115326   1.262   4.269   8.234
 1169TP3     H215327   1.235   4.373   8.128
 1170TP3      O15328   0.595   4.166   7.978
 1170TP3     H115329   0.603   4.251   7.936
 1170TP3     H215330   0.559   4.109   7.911
 1171TP3      O15331   1.360   4.209   7.792
 1171TP3     H115332   1.402   4.175   7.871
 1171TP3     H215333   1.431   4.251   7.743
 1172TP3      O15334   0.254   4.416   8.041
 1172TP3     H115335   0.317   4.371   8.098
 1172TP3     H215336   0.272   4.381   7.954
 1173TP3      O15337   0.731   4.566   7.989
 1173TP3     H115338   0.815   4.531   8.018
 1173TP3     H215339   0.692   4.496   7.936
 1174TP3      O15340   1.858   4.252   8.535
 1174TP3     H115341   1.785   4.311   8.514
 1174TP3     H215342   1.877   4.268   8.627
 1175TP3      O15343   0.420   4.078   8.404
 1175TP3     H115344   0.405   4.132   8.327
 1175TP3     H215345   0.361   4.114   8.471
 1176TP3      O15346   1.195   5.047   7.733
 1176TP3     H115347   1.159   5.041   7.645
 1176TP3     H215348   1.152   5.124   7.771
 1177TP3      O15349   0.728   4.842   8.361
 1177TP3     H115350   0.678   4.911   8.404
 1177TP3     H215351   0.796   4.889   8.312
 1178TP3      O15352   1.464   4.159   8.042
 1178TP3     H115353   1.405   4.123   8.109
 1178TP3     H215354   1.526   4.212   8.091
 1179TP3      O15355   0.422   4.237   8.179
 1179TP3     H115356   0.472   4.301   8.230
 1179TP3     H215357   0.483   4.208   8.111
 1180TP3      O15358   0.571   5.021   8.497
 1180TP3     H115359   0.515   5.097   8.481
 1180TP3     H215360   0.509   4.949   8.514
 1181TP3      O15361   0.167   5.022   7.556
 1181TP3     H115362   0.088   5.049   7.509
 1181TP3     H215363   0.184   5.093   7.618
 1182TP3      O15364   1.483   5.176   8.238
 1182TP3     H115365   1.389   5.190   8.246
 1182TP3     H215366   1.520   5.263   8.226
 1183TP3      O15367   1.567   3.971   8.399
 1183TP3     H115368   1.497   4.015   8.351
 1183TP3     H215369   1.647   4.003   8.357
 1184TP3      O15370   0.821   3.776   8.112
 1184TP3     H115371   0.796   3.684   8.116
 1184TP3     H215372   0.743   3.823   8.143
 1185TP3      O15373   1.390   5.353   7.860
 1185TP3     H115374   1.426   5.270   7.830
 1185TP3     H215375   1.465   5.401   7.895
 1186TP3      O15376   1.463   5.104   7.774
 1186TP3     H115377   1.376   5.074   7.750
 1186TP3     H215378   1.482   5.058   7.856
 1187TP3      O15379   1.613   4.969   8.594
 1187TP3     H115380   1.603   4.911   8.519
 1187TP3     H215381   1.621   5.057   8.556
 1188TP3      O15382   1.066   4.694   7.579
 1188TP3     H115383   0.990   4.751   7.562
 1188TP3     H215384   1.127   4.715   7.509
 1189TP3      O15385   1.782   4.647   8.424
 1189TP3     H115386   1.708   4.707   8.414
 1189TP3     H215387   1.842   4.670   8.354
 1190TP3      O15388   1.433   4.710   7.665
 1190TP3     H115389   1.360   4.731   7.724
 1190TP3     H215390   1.497   4.665   7.720
 1191TP3      O15391   1.390   4.519   8.611
 1191TP3     H115392   1.382   4.591   8.674
 1191TP3     H215393   1.327   4.540   8.542
 1192TP3      O15394   0.567   4.758   7.875
 1192TP3     H115395   0.534   4.724   7.791
 1192TP3     H215396   0.628   4.691   7.905
 1193TP3      O15397   0.721   5.080   8.112
 1193TP3     H115398   0.719   5.088   8.016
 1193TP3     H215399   0.800   5.029   8.129
 1194TP3      O15400   0.597   4.653   8.215
 1194TP3     H115401   0.651   4.637   8.137
 1194TP3     H215402   0.644   4.720   8.264
 1195TP3      O15403   1.220   5.241   8.281
 1195TP3     H115404   1.223   5.307   8.350
 1195TP3     H215405   1.187   5.162   8.324
 1196TP3      O15406   0.723   5.108   8.706
 1196TP3     H115407   0.657   5.163   8.748
 1196TP3     H215408   0.680   5.071   8.630
 1197TP3      O15409   0.415   4.800   8.555
 1197TP3     H115410   0.435   4.745   8.631
 1197TP3     H215411   0.321   4.816   8.561
 1198TP3      O15412   1.066   5.283   7.799
 1198TP3     H115413   1.088   5.323   7.883
 1198TP3     H215414   0.985   5.327   7.772
 1199TP3      O15415   0.516   5.284   8.771
 1199TP3     H115416   0.521   5.306   8.678
 1199TP3     H215417   0.422   5.277   8.789
 1200TP3      O15418   1.675   3.803   7.407
 1200TP3     H115419   1.582   3.816   7.426
 1200TP3     H215420   1.692   3.856   7.329
 1201TP3      O15421   0.467   4.669   7.631
 1201TP3     H115422   0.456   4.747   7.577
 1201TP3     H215423   0.385   4.620   7.619
 1202TP3      O15424   1.739   5.215   7.319
 1202TP3     H115425   1.789   5.295   7.300
 1202TP3     H215426   1.806   5.150   7.339
 1203TP3      O15427   0.144   4.868   8.513
 1203TP3     H115428   0.097   4.875   8.430
 1203TP3     H215429   0.107   4.790   8.554
 1204TP3      O15430   0.090   5.203   8.203
 1204TP3     H115431   0.143   5.129   8.175
 1204TP3     H215432   0.128   5.229   8.287
 1205TP3      O15433   1.877   5.258   8.798
 1205TP3     H115434   1.858   5.165   8.795
 1205TP3     H215435   1.795   5.299   8.826
 1206TP3      O15436   0.965   5.222   8.656
 1206TP3     H115437   0.979   5.297   8.714
 1206TP3     H215438   0.879   5.188   8.681
 1207TP3      O15439   0.382   5.411   7.825
 1207TP3     H115440   0.394   5.379   7.915
 1207TP3     H215441   0.316   5.352   7.787
 1208TP3      O15442   1.352   5.492   7.332
 1208TP3     H115443   1.363   5.456   7.419
 1208TP3     H215444   1.281   5.556   7.341
 1209TP3      O15445   1.277   5.429   7.603
 1209TP3     H115446   1.189   5.394   7.591
 1209TP3     H215447   1.305   5.396   7.688
 1210TP3      O15448   1.567   4.400   8.813
 1210TP3     H115449   1.506   4.438   8.749
 1210TP3     H215450   1.573   4.308   8.787
 1211TP3      O15451   0.278   5.090   8.601
 1211TP3     H115452   0.333   5.047   8.666
 1211TP3     H215453   0.224   5.020   8.565
 1212TP3      O15454   0.581   3.884   8.203
 1212TP3     H115455   0.497   3.882   8.155
 1212TP3     H215456   0.582   3.970   8.245
 1213TP3      O15457   1.044   3.860   8.559
 1213TP3     H115458   1.089   3.816   8.630
 1213TP3     H215459   0.951   3.851   8.580
 1214TP3      O15460   1.334   4.246   8.627
 1214TP3     H115461   1.269   4.230   8.696
 1214TP3     H215462   1.337   4.342   8.619
 1215TP3      O15463   0.565   4.409   8.326
 1215TP3     H115464   0.581   4.425   8.419
 1215TP3     H215465   0.566   4.496   8.286
 1216TP3      O15466   0.582   4.391   7.831
 1216TP3     H115467   0.487   4.386   7.824
 1216TP3     H215468   0.614   4.378   7.741
 1217TP3      O15469   1.125   4.449   7.687
 1217TP3     H115470   1.098   4.535   7.656
 1217TP3     H215471   1.196   4.423   7.627
 1218TP3      O15472   1.033   4.451   8.815
 1218TP3     H115473   0.983   4.379   8.853
 1218TP3     H215474   1.118   4.447   8.860
 1219TP3      O15475   1.217   4.390   7.951
 1219TP3     H115476   1.179   4.444   7.882
 1219TP3     H215477   1.258   4.317   7.904
 1220TP3      O15478   0.296   4.453   8.550
 1220TP3     H115479   0.353   4.486   8.619
 1220TP3     H215480   0.308   4.358   8.553
 1221TP3      O15481   0.055   4.135   7.912
 1221TP3     H115482   0.093   4.140   8.000
 1221TP3     H215483   0.117   4.182   7.857
 1222TP3      O15484   0.115   4.238   7.415
 1222TP3     H115485   0.157   4.316   7.381
 1222TP3     H215486   0.113   4.177   7.341
 1223TP3      O15487   1.178   4.530   8.422
 1223TP3     H115488   1.210   4.473   8.352
 1223TP3     H215489   1.110   4.478   8.466
 1224TP3      O15490   0.885   4.125   7.907
 1224TP3     H115491   0.799   4.133   7.951
 1224TP3     H215492   0.942   4.090   7.975
 1225TP3      O15493   0.315   4.312   7.792
 1225TP3     H115494   0.245   4.366   7.756
 1225TP3     H215495   0.328   4.244   7.726
 1226TP3      O15496   0.668   4.370   7.563
 1226TP3     H115497   0.753   4.343   7.600
 1226TP3     H215498   0.668   4.465   7.570
 1227TP3      O15499   1.272   4.085   8.235
 1227TP3     H115500   1.229   4.089   8.320
 1227TP3     H215501   1.207   4.044   8.177
 1228TP3      O15502   0.385   4.976   8.830
 1228TP3     H115503   0.453   4.942   8.887
 1228TP3     H215504   0.303   4.955   8.874
 1229TP3      O15505   0.957   4.450   8.105
 1229TP3     H115506   1.032   4.410   8.060
 1229TP3     H215507   0.933   4.386   8.172
 1230TP3      O15508   0.504   4.015   7.766
 1230TP3     H115509   0.425   3.963   7.778
 1230TP3     H215510   0.576   3.951   7.766
 1231TP3      O15511   0.829   4.296   8.336
 1231TP3     H115512   0.753   4.354   8.336
 1231TP3     H215513   0.884   4.329   8.408
 1232TP3      O15514   0.862   4.869   7.530
 1232TP3     H115515   0.808   4.927   7.476
 1232TP3     H215516   0.829   4.883   7.619
 1233TP3      O15517   1.584   4.827   8.363
 1233TP3     H115518   1.647   4.882   8.317
 1233TP3     H215519   1.514   4.812   8.300
 1234TP3      O15520   1.173   4.222   7.346
 1234TP3     H115521   1.156   4.279   7.271
 1234TP3     H215522   1.229   4.274   7.403
 1235TP3      O15523   1.032   4.935   8.637
 1235TP3     H115524   1.058   4.898   8.721
 1235TP3     H215525   1.000   5.023   8.658
 1236TP3      O15526   1.321   4.406   7.495
 1236TP3     H115527   1.402   4.447   7.524
 1236TP3     H215528   1.307   4.440   7.407
 1237TP3      O15529   0.394   4.811   8.080
 1237TP3     H115530   0.453   4.804   8.005
 1237TP3     H215531   0.429   4.750   8.145
 1238TP3      O15532   1.064   5.065   7.496
 1238TP3     H115533   1.032   5.154   7.486
 1238TP3     H215534   0.985   5.011   7.500
 1239TP3      O15535   0.100   4.628   8.651
 1239TP3     H115536   0.143   4.635   8.736
 1239TP3     H215537   0.154   4.566   8.602
 1240TP3      O15538   0.821   4.646   8.848
 1240TP3     H115539   0.746   4.622   8.793
 1240TP3     H215540   0.894   4.594   8.813
 1241TP3      O15541   1.245   5.182   8.650
 1241TP3     H115542   1.154   5.192   8.624
 1241TP3     H215543   1.246   5.198   8.744
 1242TP3      O15544   1.792   4.383   7.482
 1242TP3     H115545   1.855   4.330   7.433
 1242TP3     H215546   1.790   4.467   7.436
 1243TP3      O15547   1.834   4.985   8.752
 1243TP3     H115548   1.745   4.990   8.716
 1243TP3     H215549   1.889   4.969   8.675
 1244TP3      O15550   1.606   5.271   7.561
 1244TP3     H115551   1.574   5.194   7.609
 1244TP3     H215552   1.649   5.236   7.484
 1245TP3      O15553   1.382   4.765   8.175
 1245TP3     H115554   1.287   4.754   8.171
 1245TP3     H215555   1.416   4.688   8.129
 1246TP3      O15556   0.643   5.165   7.849
 1246TP3     H115557   0.660   5.248   7.804
 1246TP3     H215558   0.548   5.154   7.843
 1247TP3      O15559   0.757   4.929   7.771
 1247TP3     H115560   0.728   5.018   7.791
 1247TP3     H215561   0.691   4.873   7.811
 1248TP3      O15562   0.813   5.346   8.436
 1248TP3     H115563   0.845   5.433   8.460
 1248TP3     H215564   0.872   5.286   8.482
 1249TP3      O15565   0.638   5.412   7.724
 1249TP3     H115566   0.546   5.425   7.749
 1249TP3     H215567   0.684   5.487   7.761
 1250TP3      O15568   1.147   4.994   8.394
 1250TP3     H115569   1.109   4.969   8.478
 1250TP3     H215570   1.216   4.930   8.379
 1251TP3      O15571   1.442   5.368   8.610
 1251TP3     H115572   1.379   5.299   8.628
 1251TP3     H215573   1.395   5.428   8.551
 1252TP3      O15574   1.832   5.483   7.251
 1252TP3     H115575   1.919   5.513   7.277
 1252TP3     H215576   1.772   5.526   7.312
 1253TP3      O15577   0.248   4.157   8.606
 1253TP3     H115578   0.162   4.198   8.611
 1253TP3     H215579   0.276   4.148   8.697
 1254TP3      O15580   1.534   4.872   7.468
 1254TP3     H115581   1.486   4.823   7.535
 1254TP3     H215582   1.624   4.874   7.500
 1255TP3      O15583   0.219   5.308   8.431
 1255TP3     H115584   0.250   5.234   8.483
 1255TP3     H215585   0.171   5.363   8.494
 1256TP3      O15586   0.731   5.073   7.411
 1256TP3     H115587   0.651   5.102   7.457
 1256TP3     H215588   0.739   5.133   7.337
 1257TP3      O15589   0.382   4.873   7.467
 1257TP3     H115590   0.308   4.922   7.501
 1257TP3     H215591   0.385   4.896   7.374
 1258TP3      O15592   1.148   4.102   8.476
 1258TP3     H115593   1.215   4.129   8.539
 1258TP3     H215594   1.113   4.021   8.513
 1259TP3      O15595   1.204   4.061   7.601
 1259TP3     H115596   1.195   4.111   7.520
 1259TP3     H215597   1.252   4.119   7.660
 1260TP3      O15598   1.006   5.338   7.450
 1260TP3     H115599   0.913   5.348   7.468
 1260TP3     H215600   1.022   5.396   7.375
 1261TP3      O15601   0.893   4.301   7.691
 1261TP3     H115602   0.977   4.347   7.690
 1261TP3     H215603   0.898   4.243   7.766
 1262TP3      O15604   1.007   4.356   8.546
 1262TP3     H115605   1.010   4.381   8.638
 1262TP3     H215606   1.044   4.267   8.544
 1263TP3      O15607   0.979   3.942   7.712
 1263TP3     H115608   0.950   4.013   7.770
 1263TP3     H215609   1.058   3.975   7.670
 1264TP3      O15610   0.739   5.379   7.470
 1264TP3     H115611   0.674   5.413   7.409
 1264TP3     H215612   0.700   5.392   7.557
 1265TP3      O15613   0.588   4.131   7.435
 1265TP3     H115614   0.606   4.219   7.467
 1265TP3     H215615   0.572   4.079   7.514
 1266TP3      O15616   1.582   4.155   8.673
 1266TP3     H115617   1.489   4.173   8.657
 1266TP3     H215618   1.616   4.130   8.587
 1267TP3      O15619   1.463   4.521   8.052
 1267TP3     H115620   1.381   4.479   8.025
 1267TP3     H215621   1.507   4.456   8.107
 1268TP3      O15622   0.252   4.402   7.223
 1268TP3     H115623   0.259   4.483   7.174
 1268TP3     H215624   0.191   4.348   7.172
 1269TP3      O15625   1.577   5.426   8.242
 1269TP3     H115626   1.551   5.485   8.171
 1269TP3     H215627   1.671   5.442   8.252
 1270TP3      O15628   0.326   3.869   8.098
 1270TP3     H115629   0.323   3.857   8.003
 1270TP3     H215630   0.292   3.787   8.134
 1271TP3      O15631   0.186   5.267   7.703
 1271TP3     H115632   0.098   5.296   7.725
 1271TP3     H215633   0.197   5.292   7.612
 1272TP3      O15634   0.158   5.494   8.895
 1272TP3     H115635   0.205   5.498   8.978
 1272TP3     H215636   0.179   5.408   8.859
 1273TP3      O15637   0.578   5.348   9.029
 1273TP3     H115638   0.657   5.298   9.051
 1273TP3     H215639   0.561   5.327   8.937
 1274TP3      O15640   1.249   5.224   8.913
 1274TP3     H115641   1.225   5.143   8.958
 1274TP3     H215642   1.325   5.257   8.961
 1275TP3      O15643   0.144   4.935   8.948
 1275TP3     H115644   0.157   4.841   8.931
 1275TP3     H215645   0.051   4.949   8.929
 1276TP3      O15646   0.787   4.917   8.902
 1276TP3     H115647   0.775   4.962   8.818
 1276TP3     H215648   0.813   4.828   8.878
 1277TP3      O15649   1.356   4.927   8.678
 1277TP3     H115650   1.447   4.946   8.653
 1277TP3     H215651   1.309   5.008   8.661
 1278TP3      O15652   0.204   4.669   8.904
 1278TP3     H115653   0.290   4.642   8.871
 1278TP3     H215654   0.205   4.643   8.996
 1279TP3      O15655   0.652   4.452   8.578
 1279TP3     H115656   0.594   4.491   8.643
 1279TP3     H215657   0.718   4.520   8.561
 1280TP3      O15658   1.136   4.762   8.951
 1280TP3     H115659   1.214   4.725   8.909
 1280TP3     H215660   1.105   4.693   9.010
 1281TP3      O15661   1.709   4.855   7.206
 1281TP3     H115662   1.636   4.851   7.268
 1281TP3     H215663   1.772   4.915   7.248
 1282TP3      O15664   0.722   4.218   8.701
 1282TP3     H115665   0.716   4.157   8.627
 1282TP3     H215666   0.695   4.303   8.664
 1283TP3      O15667   0.695   4.080   8.459
 1283TP3     H115668   0.743   4.144   8.407
 1283TP3     H215669   0.603   4.096   8.439
 1284TP3      O15670   0.828   4.648   8.525
 1284TP3     H115671   0.920   4.674   8.530
 1284TP3     H215672   0.787   4.716   8.471
 1285TP3      O15673   1.260   4.407   8.989
 1285TP3     H115674   1.263   4.331   9.047
 1285TP3     H215675   1.352   4.425   8.969
 1286TP3      O15676   1.402   4.709   8.828
 1286TP3     H115677   1.376   4.788   8.780
 1286TP3     H215678   1.498   4.710   8.825
 1287TP3      O15679   0.461   4.344   9.008
 1287TP3     H115680   0.375   4.361   9.046
 1287TP3     H215681   0.471   4.413   8.942
 1288TP3      O15682   0.761   3.834   8.557
 1288TP3     H115683   0.743   3.921   8.523
 1288TP3     H215684   0.703   3.777   8.506
 1289TP3      O15685   0.898   4.231   8.903
 1289TP3     H115686   0.844   4.215   8.980
 1289TP3     H215687   0.838   4.223   8.829
 1290TP3      O15688   1.150   4.163   8.802
 1290TP3     H115689   1.067   4.174   8.848
 1290TP3     H215690   1.208   4.122   8.866
 1291TP3      O15691   1.343   4.053   8.976
 1291TP3     H115692   1.330   3.959   8.986
 1291TP3     H215693   1.310   4.090   9.059
 1292TP3      O15694   0.286   4.156   8.883
 1292TP3     H115695   0.354   4.218   8.906
 1292TP3     H215696   0.287   4.092   8.954
 1293TP3      O15697   0.753   3.768   8.821
 1293TP3     H115698   0.812   3.693   8.818
 1293TP3     H215699   0.750   3.800   8.731
 1294TP3      O15700   0.807   3.921   9.046
 1294TP3     H115701   0.796   3.872   8.964
 1294TP3     H215702   0.762   4.004   9.030
 1295TP3      O15703   0.065   5.401   7.995
 1295TP3     H115704   0.040   5.312   8.023
 1295TP3     H215705   0.129   5.429   8.060
 1296TP3      O15706   1.848   5.451   8.283
 1296TP3     H115707   1.852   5.445   8.378
 1296TP3     H215708   1.915   5.516   8.260
 1297TP3      O15709   1.824   5.381   8.551
 1297TP3     H115710   1.763   5.315   8.518
 1297TP3     H215711   1.858   5.343   8.632
 1298TP3      O15712   1.631   5.022   9.039
 1298TP3     H115713   1.548   5.042   9.083
 1298TP3     H215714   1.688   5.095   9.061
 1299TP3      O15715   1.798   4.848   7.522
 1299TP3     H115716   1.848   4.916   7.478
 1299TP3     H215717   1.841   4.838   7.607
 1300TP3      O15718   1.860   4.678   7.759
 1300TP3     H115719   1.771   4.650   7.783
 1300TP3     H215720   1.904   4.693   7.842
 1301TP3      O15721   1.820   4.952   8.290
 1301TP3     H115722   1.872   4.890   8.240
 1301TP3     H215723   1.846   5.038   8.256
 1302TP3      O15724   1.623   5.212   8.479
 1302TP3     H115725   1.560   5.273   8.516
 1302TP3     H215726   1.592   5.195   8.390
 1303TP3      O15727   1.796   4.628   7.358
 1303TP3     H115728   1.766   4.680   7.283
 1303TP3     H215729   1.794   4.689   7.432
 1304TP3      O15730   1.610   4.556   7.817
 1304TP3     H115731   1.604   4.468   7.779
 1304TP3     H215732   1.565   4.548   7.902
 1305TP3      O15733   0.068   4.728   8.233
 1305TP3     H115734   0.080   4.735   8.139
 1305TP3     H215735   0.155   4.708   8.268
 1306TP3      O15736   1.678   4.724   8.813
 1306TP3     H115737   1.736   4.652   8.790
 1306TP3     H215738   1.714   4.800   8.768
 1307TP3      O15739   1.820   4.496   8.772
 1307TP3     H115740   1.732   4.460   8.787
 1307TP3     H215741   1.879   4.425   8.797
 1308TP3      O15742   1.598   4.309   7.669
 1308TP3     H115743   1.614   4.214   7.671
 1308TP3     H215744   1.659   4.343   7.604
 1309TP3      O15745   1.613   4.334   8.203
 1309TP3     H115746   1.705   4.347   8.181
 1309TP3     H215747   1.607   4.353   8.296
 1310TP3      O15748   1.639   4.419   8.473
 1310TP3     H115749   1.557   4.450   8.512
 1310TP3     H215750   1.690   4.498   8.458
 1311TP3      O15751   0.023   4.225   8.802
 1311TP3     H115752   0.112   4.217   8.835
 1311TP3     H215753  -0.031   4.192   8.874
 1312TP3      O15754   1.852   3.848   8.994
 1312TP3     H115755   1.922   3.787   8.969
 1312TP3     H215756   1.854   3.915   8.926
 1313TP3      O15757   1.642   4.036   7.662
 1313TP3     H115758   1.656   3.990   7.744
 1313TP3     H215759   1.576   3.984   7.616
 1314TP3      O15760   0.181   4.091   8.162
 1314TP3     H115761   0.229   4.011   8.138
 1314TP3     H215762   0.249   4.158   8.169
 1315TP3      O15763   0.031   4.449   8.204
 1315TP3     H115764   0.106   4.434   8.146
 1315TP3     H215765   0.031   4.543   8.218
 1316TP3      O15766   1.803   4.026   8.797
 1316TP3     H115767   1.724   4.073   8.821
 1316TP3     H215768   1.777   3.970   8.725
 1317TP3      O15769   1.819   3.991   7.248
 1317TP3     H115770   1.860   3.956   7.169
 1317TP3     H215771   1.893   4.009   7.307
 1318TP3      O15772   0.112   4.038   7.599
 1318TP3     H115773   0.019   4.037   7.623
 1318TP3     H215774   0.120   4.113   7.540
 1319TP3      O15775   0.029   3.960   8.385
 1319TP3     H115776  -0.064   3.973   8.370
 1319TP3     H215777   0.072   4.002   8.310
 1320TP3      O15778   0.241   5.244   8.824
 1320TP3     H115779   0.234   5.195   8.742
 1320TP3     H215780   0.249   5.177   8.891
 1321TP3      O15781   0.541   5.320   8.501
 1321TP3     H115782   0.490   5.358   8.429
 1321TP3     H215783   0.632   5.325   8.472
 1322TP3      O15784   1.033   5.476   8.809
 1322TP3     H115785   1.010   5.427   8.888
 1322TP3     H215786   1.116   5.518   8.830
 1323TP3      O15787   1.710   3.831   8.617
 1323TP3     H115788   1.646   3.860   8.552
 1323TP3     H215789   1.724   3.739   8.597
 1324TP3      O15790   1.251   5.479   8.435
 1324TP3     H115791   1.178   5.528   8.475
 1324TP3     H215792   1.277   5.532   8.360
 1325TP3      O15793   0.248   5.466   8.195
 1325TP3     H115794   0.232   5.422   8.279
 1325TP3     H215795   0.320   5.416   8.156
 1326TP3      O15796   0.453   5.332   8.085
 1326TP3     H115797   0.444   5.241   8.111
 1326TP3     H215798   0.544   5.354   8.105
 1327TP3      O15799   0.720   5.345   8.178
 1327TP3     H115800   0.726   5.254   8.150
 1327TP3     H215801   0.755   5.345   8.267
 1328TP3      O15802   1.051   3.970   8.072
 1328TP3     H115803   0.989   3.898   8.082
 1328TP3     H215804   1.126   3.930   8.027
 1329TP3      O15805   1.538   3.807   8.065
 1329TP3     H115806   1.600   3.859   8.014
 1329TP3     H215807   1.452   3.842   8.041
 1330TP3      O15808   1.725   3.900   7.890
 1330TP3     H115809   1.790   3.837   7.859
 1330TP3     H215810   1.776   3.979   7.909
 1331TP3      O15811   0.315   3.823   7.829
 1331TP3     H115812   0.226   3.815   7.794
 1331TP3     H215813   0.352   3.735   7.819
 1332TP3      O15814   0.129   3.834   7.414
 1332TP3     H115815   0.142   3.894   7.341
 1332TP3     H215816   0.133   3.890   7.492
 1333TP3      O15817   0.748   3.823   7.825
 1333TP3     H115818   0.825   3.855   7.778
 1333TP3     H215819   0.778   3.812   7.915
 1334TP3      O15820   1.272   3.845   7.965
 1334TP3     H115821   1.288   3.834   7.871
 1334TP3     H215822   1.250   3.757   7.996
 1335TP3      O15823   1.434   3.882   7.565
 1335TP3     H115824   1.356   3.937   7.556
 1335TP3     H215825   1.400   3.795   7.584
 1336TP3      O15826   0.221   5.346   7.448
 1336TP3     H115827   0.248   5.315   7.362
 1336TP3     H215828   0.211   5.441   7.437
 1337TP3      O15829   0.426   3.957   7.258
 1337TP3     H115830   0.334   3.981   7.246
 1337TP3     H215831   0.460   4.025   7.317
 1338TP3      O15832   1.751   5.470   7.683
 1338TP3     H115833   1.687   5.407   7.650
 1338TP3     H215834   1.831   5.453   7.633
 1339TP3      O15835   0.268   3.849   8.760
 1339TP3     H115836   0.223   3.782   8.811
 1339TP3     H215837   0.347   3.867   8.810
 1340TP3      O15838   0.492   3.823   8.926
 1340TP3     H115839   0.582   3.807   8.896
 1340TP3     H215840   0.466   3.741   8.968
 1341TP3      O15841   1.346   3.774   8.975
 1341TP3     H115842   1.338   3.728   9.059
 1341TP3     H215843   1.438   3.765   8.952
 1342TP3      O15844   1.634   5.396   8.815
 1342TP3     H115845   1.568   5.382   8.747
 1342TP3     H215846   1.659   5.488   8.806
 1343TP3      O15847   3.072   4.790   7.690
 1343TP3     H115848   3.068   4.881   7.719
 1343TP3     H215849   3.071   4.739   7.771
 1344TP3      O15850   2.996   4.731   8.173
 1344TP3     H115851   2.983   4.659   8.236
 1344TP3     H215852   3.015   4.687   8.090
 1345TP3      O15853   2.197   4.630   8.334
 1345TP3     H115854   2.206   4.557   8.395
 1345TP3     H215855   2.286   4.651   8.307
 1346TP3      O15856   3.359   4.997   8.027
 1346TP3     H115857   3.326   4.921   8.073
 1346TP3     H215858   3.373   5.063   8.095
 1347TP3      O15859   2.327   5.070   8.146
 1347TP3     H115860   2.291   4.986   8.118
 1347TP3     H215861   2.422   5.057   8.149
 1348TP3      O15862   1.984   4.446   7.676
 1348TP3     H115863   1.947   4.529   7.705
 1348TP3     H215864   1.917   4.409   7.618
 1349TP3      O15865   2.043   4.682   7.976
 1349TP3     H115866   2.070   4.592   7.991
 1349TP3     H215867   2.122   4.734   7.989
 1350TP3      O15868   3.064   5.414   8.046
 1350TP3     H115869   3.129   5.376   7.986
 1350TP3     H215870   3.067   5.357   8.123
 1351TP3      O15871   2.820   4.940   8.236
 1351TP3     H115872   2.869   4.867   8.197
 1351TP3     H215873   2.882   4.979   8.298
 1352TP3      O15874   3.713   4.082   8.300
 1352TP3     H115875   3.716   4.146   8.370
 1352TP3     H215876   3.751   4.126   8.224
 1353TP3      O15877   3.159   4.349   8.234
 1353TP3     H115878   3.178   4.259   8.258
 1353TP3     H215879   3.124   4.343   8.145
 1354TP3      O15880   2.472   4.169   7.940
 1354TP3     H115881   2.479   4.257   7.902
 1354TP3     H215882   2.409   4.124   7.884
 1355TP3      O15883   3.231   4.188   7.805
 1355TP3     H115884   3.277   4.164   7.885
 1355TP3     H215885   3.295   4.236   7.753
 1356TP3      O15886   2.120   4.423   8.038
 1356TP3     H115887   2.184   4.380   8.094
 1356TP3     H215888   2.140   4.392   7.950
 1357TP3      O15889   2.592   4.548   8.013
 1357TP3     H115890   2.668   4.495   8.038
 1357TP3     H215891   2.547   4.495   7.947
 1358TP3      O15892   3.714   4.234   8.533
 1358TP3     H115893   3.669   4.314   8.507
 1358TP3     H215894   3.647   4.182   8.577
 1359TP3      O15895   2.338   4.093   8.380
 1359TP3     H115896   2.319   4.151   8.306
 1359TP3     H215897   2.265   4.106   8.440
 1360TP3      O15898   3.065   5.064   7.718
 1360TP3     H115899   3.012   5.071   7.638
 1360TP3     H215900   3.030   5.132   7.775
 1361TP3      O15901   2.595   4.850   8.368
 1361TP3     H115902   2.547   4.919   8.414
 1361TP3     H215903   2.667   4.895   8.325
 1362TP3      O15904   3.357   4.148   8.045
 1362TP3     H115905   3.294   4.112   8.108
 1362TP3     H215906   3.413   4.205   8.097
 1363TP3      O15907   2.318   4.255   8.156
 1363TP3     H115908   2.375   4.312   8.207
 1363TP3     H215909   2.374   4.220   8.087
 1364TP3      O15910   2.451   5.047   8.496
 1364TP3     H115911   2.457   5.142   8.486
 1364TP3     H215912   2.359   5.030   8.515
 1365TP3      O15913   3.370   5.178   8.237
 1365TP3     H115914   3.277   5.192   8.251
 1365TP3     H215915   3.407   5.266   8.228
 1366TP3      O15916   3.433   4.004   8.368
 1366TP3     H115917   3.359   4.036   8.317
 1366TP3     H215918   3.511   4.033   8.320
 1367TP3      O15919   2.704   3.831   8.137
 1367TP3     H115920   2.690   3.803   8.046
 1367TP3     H215921   2.617   3.857   8.168
 1368TP3      O15922   3.262   5.361   7.859
 1368TP3     H115923   3.299   5.277   7.832
 1368TP3     H215924   3.335   5.409   7.898
 1369TP3      O15925   3.339   5.113   7.776
 1369TP3     H115926   3.252   5.084   7.748
 1369TP3     H215927   3.355   5.065   7.857
 1370TP3      O15928   3.509   4.960   8.613
 1370TP3     H115929   3.484   4.905   8.540
 1370TP3     H215930   3.510   5.049   8.577
 1371TP3      O15931   3.678   4.656   8.427
 1371TP3     H115932   3.604   4.716   8.418
 1371TP3     H215933   3.733   4.675   8.351
 1372TP3      O15934   3.314   4.687   7.627
 1372TP3     H115935   3.225   4.721   7.641
 1372TP3     H215936   3.352   4.683   7.715
 1373TP3      O15937   3.258   4.524   8.523
 1373TP3     H115938   3.223   4.600   8.570
 1373TP3     H215939   3.214   4.526   8.438
 1374TP3      O15940   2.485   4.757   7.857
 1374TP3     H115941   2.458   4.711   7.778
 1374TP3     H215942   2.536   4.693   7.907
 1375TP3      O15943   2.603   5.074   8.111
 1375TP3     H115944   2.610   5.087   8.017
 1375TP3     H215945   2.683   5.027   8.135
 1376TP3      O15946   2.455   4.665   8.227
 1376TP3     H115947   2.512   4.636   8.156
 1376TP3     H215948   2.507   4.730   8.275
 1377TP3      O15949   3.110   5.243   8.298
 1377TP3     H115950   3.117   5.313   8.363
 1377TP3     H215951   3.082   5.167   8.348
 1378TP3      O15952   2.616   5.140   8.708
 1378TP3     H115953   2.542   5.188   8.747
 1378TP3     H215954   2.575   5.079   8.647
 1379TP3      O15955   2.267   4.666   8.668
 1379TP3     H115956   2.280   4.753   8.706
 1379TP3     H215957   2.178   4.669   8.632
 1380TP3      O15958   2.937   5.278   7.820
 1380TP3     H115959   2.937   5.350   7.884
 1380TP3     H215960   2.907   5.318   7.739
 1381TP3      O15961   2.387   5.275   8.775
 1381TP3     H115962   2.385   5.300   8.682
 1381TP3     H215963   2.297   5.247   8.794
 1382TP3      O15964   3.537   3.801   7.428
 1382TP3     H115965   3.454   3.835   7.463
 1382TP3     H215966   3.584   3.878   7.399
 1383TP3      O15967   2.343   4.692   7.606
 1383TP3     H115968   2.310   4.782   7.613
 1383TP3     H215969   2.270   4.637   7.633
 1384TP3      O15970   1.967   4.923   8.525
 1384TP3     H115971   1.915   4.932   8.445
 1384TP3     H215972   1.983   4.829   8.532
 1385TP3      O15973   1.923   5.192   8.213
 1385TP3     H115974   2.017   5.205   8.216
 1385TP3     H215975   1.886   5.279   8.233
 1386TP3      O15976   3.770   5.275   8.801
 1386TP3     H115977   3.756   5.181   8.794
 1386TP3     H215978   3.686   5.311   8.829
 1387TP3      O15979   2.856   5.232   8.638
 1387TP3     H115980   2.876   5.303   8.699
 1387TP3     H215981   2.775   5.194   8.670
 1388TP3      O15982   2.290   5.420   7.838
 1388TP3     H115983   2.308   5.389   7.926
 1388TP3     H215984   2.229   5.355   7.802
 1389TP3      O15985   3.169   5.399   7.315
 1389TP3     H115986   3.179   5.401   7.410
 1389TP3     H215987   3.164   5.491   7.289
 1390TP3      O15988   3.159   5.432   7.601
 1390TP3     H115989   3.067   5.409   7.594
 1390TP3     H215990   3.185   5.405   7.689
 1391TP3      O15991   3.467   4.405   8.806
 1391TP3     H115992   3.419   4.487   8.819
 1391TP3     H215993   3.408   4.351   8.753
 1392TP3      O15994   2.188   5.072   8.579
 1392TP3     H115995   2.209   5.042   8.667
 1392TP3     H215996   2.110   5.022   8.555
 1393TP3      O15997   2.442   3.891   8.220
 1393TP3     H115998   2.367   3.881   8.161
 1393TP3     H215999   2.418   3.965   8.276
 1394TP3      O16000   2.921   3.850   8.552
 1394TP3     H116001   2.969   3.814   8.627
 1394TP3     H216002   2.830   3.848   8.579
 1395TP3      O16003   3.269   4.288   8.666
 1395TP3     H116004   3.184   4.258   8.699
 1395TP3     H216005   3.248   4.364   8.613
 1396TP3      O16006   3.375   4.722   7.235
 1396TP3     H116007   3.307   4.683   7.180
 1396TP3     H216008   3.340   4.808   7.259
 1397TP3      O16009   2.462   4.410   8.333
 1397TP3     H116010   2.395   4.410   8.401
 1397TP3     H216011   2.465   4.500   8.303
 1398TP3      O16012   2.459   4.413   7.815
 1398TP3     H116013   2.365   4.397   7.806
 1398TP3     H216014   2.493   4.404   7.726
 1399TP3      O16015   3.004   4.444   7.661
 1399TP3     H116016   3.031   4.495   7.738
 1399TP3     H216017   3.082   4.439   7.606
 1400TP3      O16018   2.911   4.458   8.827
 1400TP3     H116019   2.867   4.379   8.856
 1400TP3     H216020   2.996   4.456   8.871
 1401TP3      O16021   3.044   4.305   7.987
 1401TP3     H116022   3.060   4.395   7.961
 1401TP3     H216023   3.091   4.252   7.922
 1402TP3      O16024   2.248   4.411   8.504
 1402TP3     H116025   2.251   4.458   8.588
 1402TP3     H216026   2.204   4.329   8.525
 1403TP3      O16027   1.893   4.106   7.917
 1403TP3     H116028   1.958   4.120   7.986
 1403TP3     H216029   1.933   4.146   7.839
 1404TP3      O16030   2.004   4.220   7.383
 1404TP3     H116031   2.064   4.160   7.339
 1404TP3     H216032   1.981   4.175   7.465
 1405TP3      O16033   2.985   4.520   8.350
 1405TP3     H116034   3.045   4.458   8.309
 1405TP3     H216035   2.952   4.474   8.427
 1406TP3      O16036   2.750   4.144   7.903
 1406TP3     H116037   2.656   4.136   7.919
 1406TP3     H216038   2.779   4.209   7.967
 1407TP3      O16039   2.200   4.333   7.793
 1407TP3     H116040   2.125   4.362   7.742
 1407TP3     H216041   2.212   4.241   7.767
 1408TP3      O16042   2.557   4.377   7.562
 1408TP3     H116043   2.647   4.349   7.580
 1408TP3     H216044   2.567   4.452   7.503
 1409TP3      O16045   3.179   4.068   8.250
 1409TP3     H116046   3.141   4.072   8.338
 1409TP3     H216047   3.110   4.028   8.196
 1410TP3      O16048   2.261   4.905   8.811
 1410TP3     H116049   2.329   4.913   8.877
 1410TP3     H216050   2.179   4.918   8.858
 1411TP3      O16051   2.785   4.353   8.087
 1411TP3     H116052   2.880   4.349   8.070
 1411TP3     H216053   2.776   4.332   8.180
 1412TP3      O16054   2.293   4.070   7.758
 1412TP3     H116055   2.248   3.986   7.762
 1412TP3     H216056   2.334   4.072   7.672
 1413TP3      O16057   2.715   4.299   8.357
 1413TP3     H116058   2.635   4.351   8.353
 1413TP3     H216059   2.768   4.342   8.425
 1414TP3      O16060   3.476   4.829   8.377
 1414TP3     H116061   3.536   4.888   8.330
 1414TP3     H216062   3.400   4.821   8.319
 1415TP3      O16063   3.082   4.172   7.365
 1415TP3     H116064   3.037   4.153   7.282
 1415TP3     H216065   3.116   4.261   7.354
 1416TP3      O16066   2.849   4.928   8.680
 1416TP3     H116067   2.927   4.873   8.675
 1416TP3     H216068   2.875   5.010   8.637
 1417TP3      O16069   3.242   4.441   7.518
 1417TP3     H116070   3.310   4.384   7.553
 1417TP3     H216071   3.271   4.530   7.541
 1418TP3      O16072   2.286   4.803   8.047
 1418TP3     H116073   2.350   4.804   7.976
 1418TP3     H216074   2.329   4.755   8.118
 1419TP3      O16075   1.992   4.655   8.609
 1419TP3     H116076   1.966   4.613   8.692
 1419TP3     H216077   1.922   4.633   8.548
 1420TP3      O16078   2.691   4.621   8.851
 1420TP3     H116079   2.629   4.593   8.784
 1420TP3     H216080   2.774   4.580   8.825
 1421TP3      O16081   3.133   5.218   8.641
 1421TP3     H116082   3.040   5.210   8.620
 1421TP3     H216083   3.137   5.203   8.735
 1422TP3      O16084   3.741   5.009   8.755
 1422TP3     H116085   3.649   4.996   8.732
 1422TP3     H216086   3.790   4.986   8.677
 1423TP3      O16087   3.547   5.257   7.548
 1423TP3     H116088   3.487   5.206   7.601
 1423TP3     H216089   3.582   5.195   7.484
 1424TP3      O16090   3.275   4.784   8.191
 1424TP3     H116091   3.182   4.770   8.178
 1424TP3     H216092   3.317   4.708   8.151
 1425TP3      O16093   2.537   5.171   7.847
 1425TP3     H116094   2.560   5.255   7.807
 1425TP3     H216095   2.441   5.170   7.846
 1426TP3      O16096   2.615   4.953   7.698
 1426TP3     H116097   2.605   5.036   7.746
 1426TP3     H216098   2.582   4.887   7.758
 1427TP3      O16099   2.710   5.355   8.433
 1427TP3     H116100   2.748   5.441   8.448
 1427TP3     H216101   2.762   5.296   8.487
 1428TP3      O16102   2.539   5.422   7.726
 1428TP3     H116103   2.449   5.439   7.754
 1428TP3     H216104   2.589   5.495   7.762
 1429TP3      O16105   3.052   4.971   8.403
 1429TP3     H116106   3.072   4.926   8.486
 1429TP3     H216107   3.097   4.918   8.337
 1430TP3      O16108   3.251   4.966   7.295
 1430TP3     H116109   3.310   4.960   7.370
 1430TP3     H216110   3.198   5.044   7.313
 1431TP3      O16111   3.337   5.386   8.601
 1431TP3     H116112   3.268   5.322   8.620
 1431TP3     H216113   3.298   5.447   8.540
 1432TP3      O16114   3.741   5.540   7.291
 1432TP3     H116115   3.802   5.476   7.253
 1432TP3     H216116   3.663   5.489   7.312
 1433TP3      O16117   2.126   4.154   8.548
 1433TP3     H116118   2.036   4.182   8.531
 1433TP3     H216119   2.117   4.079   8.606
 1434TP3      O16120   3.426   4.905   7.492
 1434TP3     H116121   3.383   4.833   7.538
 1434TP3     H216122   3.520   4.889   7.503
 1435TP3      O16123   2.140   5.315   8.429
 1435TP3     H116124   2.164   5.233   8.471
 1435TP3     H216125   2.091   5.363   8.496
 1436TP3      O16126   2.718   5.166   7.163
 1436TP3     H116127   2.656   5.095   7.148
 1436TP3     H216128   2.667   5.234   7.207
 1437TP3      O16129   2.599   5.043   7.436
 1437TP3     H116130   2.605   5.006   7.525
 1437TP3     H216131   2.609   5.137   7.449
 1438TP3      O16132   3.065   4.077   8.498
 1438TP3     H116133   3.073   4.108   8.589
 1438TP3     H216134   3.011   3.999   8.504
 1439TP3      O16135   3.090   4.046   7.609
 1439TP3     H116136   3.082   4.093   7.526
 1439TP3     H216137   3.131   4.108   7.668
 1440TP3      O16138   2.902   5.335   7.549
 1440TP3     H116139   2.808   5.350   7.538
 1440TP3     H216140   2.926   5.280   7.475
 1441TP3      O16141   2.795   4.273   7.655
 1441TP3     H116142   2.871   4.332   7.656
 1441TP3     H216143   2.788   4.240   7.744
 1442TP3      O16144   2.897   4.370   8.563
 1442TP3     H116145   2.900   4.418   8.646
 1442TP3     H216146   2.932   4.283   8.584
 1443TP3      O16147   2.896   3.937   7.776
 1443TP3     H116148   2.848   4.014   7.807
 1443TP3     H216149   2.959   3.973   7.713
 1444TP3      O16150   2.631   5.312   7.492
 1444TP3     H116151   2.624   5.372   7.417
 1444TP3     H216152   2.589   5.359   7.564
 1445TP3      O16153   2.443   4.125   7.536
 1445TP3     H116154   2.471   4.216   7.538
 1445TP3     H216155   2.524   4.076   7.522
 1446TP3      O16156   3.477   4.117   8.618
 1446TP3     H116157   3.400   4.170   8.638
 1446TP3     H216158   3.455   4.072   8.537
 1447TP3      O16159   3.382   4.549   8.082
 1447TP3     H116160   3.298   4.550   8.036
 1447TP3     H216161   3.382   4.466   8.130
 1448TP3      O16162   3.466   5.428   8.238
 1448TP3     H116163   3.438   5.488   8.169
 1448TP3     H216164   3.560   5.444   8.249
 1449TP3      O16165   2.201   3.862   8.088
 1449TP3     H116166   2.190   3.857   7.993
 1449TP3     H216167   2.168   3.778   8.121
 1450TP3      O16168   2.101   5.253   7.744
 1450TP3     H116169   2.032   5.290   7.798
 1450TP3     H216170   2.075   5.272   7.654
 1451TP3      O16171   2.043   5.493   8.877
 1451TP3     H116172   2.105   5.465   8.944
 1451TP3     H216173   2.000   5.412   8.848
 1452TP3      O16174   2.470   5.345   9.022
 1452TP3     H116175   2.550   5.297   9.040
 1452TP3     H216176   2.445   5.319   8.933
 1453TP3      O16177   2.957   5.186   7.321
 1453TP3     H116178   2.881   5.179   7.264
 1453TP3     H216179   3.012   5.252   7.280
 1454TP3      O16180   3.124   5.226   8.917
 1454TP3     H116181   3.108   5.138   8.953
 1454TP3     H216182   3.208   5.252   8.954
 1455TP3      O16183   2.015   4.895   8.942
 1455TP3     H116184   2.020   4.800   8.930
 1455TP3     H216185   1.943   4.922   8.885
 1456TP3      O16186   2.522   4.971   7.175
 1456TP3     H116187   2.523   5.000   7.266
 1456TP3     H216188   2.485   4.882   7.179
 1457TP3      O16189   2.680   4.895   8.894
 1457TP3     H116190   2.729   4.929   8.819
 1457TP3     H216191   2.688   4.800   8.886
 1458TP3      O16192   3.306   4.980   8.808
 1458TP3     H116193   3.373   4.983   8.740
 1458TP3     H216194   3.235   4.928   8.769
 1459TP3      O16195   2.093   4.631   8.909
 1459TP3     H116196   2.175   4.624   8.860
 1459TP3     H216197   2.120   4.627   9.001
 1460TP3      O16198   2.522   4.612   7.406
 1460TP3     H116199   2.468   4.646   7.477
 1460TP3     H216200   2.483   4.648   7.326
 1461TP3      O16201   2.511   4.526   8.654
 1461TP3     H116202   2.434   4.583   8.651
 1461TP3     H216203   2.571   4.563   8.589
 1462TP3      O16204   3.033   4.761   8.968
 1462TP3     H116205   3.050   4.764   8.874
 1462TP3     H216206   2.978   4.683   8.979
 1463TP3      O16207   2.558   4.269   8.730
 1463TP3     H116208   2.563   4.210   8.654
 1463TP3     H216209   2.545   4.355   8.691
 1464TP3      O16210   2.583   4.100   8.501
 1464TP3     H116211   2.638   4.154   8.444
 1464TP3     H216212   2.497   4.100   8.459
 1465TP3      O16213   2.700   4.632   8.495
 1465TP3     H116214   2.795   4.639   8.493
 1465TP3     H216215   2.668   4.713   8.456
 1466TP3      O16216   3.131   4.425   8.984
 1466TP3     H116217   3.155   4.347   9.035
 1466TP3     H216218   3.215   4.460   8.955
 1467TP3      O16219   3.320   4.628   8.853
 1467TP3     H116220   3.249   4.666   8.801
 1467TP3     H216221   3.397   4.681   8.830
 1468TP3      O16222   2.392   4.325   8.952
 1468TP3     H116223   2.311   4.278   8.931
 1468TP3     H216224   2.443   4.323   8.871
 1469TP3      O16225   2.640   3.836   8.558
 1469TP3     H116226   2.622   3.928   8.539
 1469TP3     H216227   2.571   3.788   8.511
 1470TP3      O16228   2.784   4.225   8.883
 1470TP3     H116229   2.746   4.202   8.968
 1470TP3     H216230   2.708   4.235   8.826
 1471TP3      O16231   3.038   4.165   8.764
 1471TP3     H116232   2.954   4.175   8.810
 1471TP3     H216233   3.097   4.126   8.828
 1472TP3      O16234   3.219   4.066   8.952
 1472TP3     H116235   3.211   3.973   8.970
 1472TP3     H216236   3.192   4.110   9.032
 1473TP3      O16237   2.179   4.145   8.904
 1473TP3     H116238   2.182   4.072   8.842
 1473TP3     H216239   2.190   4.104   8.990
 1474TP3      O16240   2.637   3.768   8.822
 1474TP3     H116241   2.695   3.692   8.818
 1474TP3     H216242   2.631   3.798   8.731
 1475TP3      O16243   2.703   3.918   9.044
 1475TP3     H116244   2.684   3.871   8.963
 1475TP3     H216245   2.656   4.001   9.034
 1476TP3      O16246   1.971   5.413   7.947
 1476TP3     H116247   1.883   5.385   7.973
 1476TP3     H216248   2.019   5.421   8.029
 1477TP3      O16249   3.735   5.453   8.282
 1477TP3     H116250   3.735   5.445   8.377
 1477TP3     H216251   3.799   5.522   8.264
 1478TP3      O16252   3.708   5.378   8.548
 1478TP3     H116253   3.646   5.311   8.519
 1478TP3     H216254   3.741   5.345   8.631
 1479TP3      O16255   3.543   4.982   9.101
 1479TP3     H116256   3.453   5.010   9.122
 1479TP3     H216257   3.592   5.063   9.093
 1480TP3      O16258   3.689   4.830   7.539
 1480TP3     H116259   3.757   4.896   7.526
 1480TP3     H216260   3.716   4.783   7.618
 1481TP3      O16261   3.750   4.618   7.744
 1481TP3     H116262   3.662   4.602   7.778
 1481TP3     H216263   3.798   4.653   7.818
 1482TP3      O16264   3.711   4.951   8.292
 1482TP3     H116265   3.757   4.892   8.232
 1482TP3     H216266   3.734   5.039   8.263
 1483TP3      O16267   3.505   5.203   8.486
 1483TP3     H116268   3.444   5.267   8.520
 1483TP3     H216269   3.474   5.185   8.397
 1484TP3      O16270   3.498   4.532   7.831
 1484TP3     H116271   3.416   4.496   7.797
 1484TP3     H216272   3.481   4.551   7.923
 1485TP3      O16273   1.961   4.714   8.234
 1485TP3     H116274   1.974   4.710   8.139
 1485TP3     H216275   2.047   4.694   8.271
 1486TP3      O16276   3.564   4.731   8.783
 1486TP3     H116277   3.630   4.674   8.744
 1486TP3     H216278   3.554   4.802   8.720
 1487TP3      O16279   3.724   4.497   8.749
 1487TP3     H116280   3.637   4.459   8.733
 1487TP3     H216281   3.779   4.422   8.772
 1488TP3      O16282   3.443   4.296   7.649
 1488TP3     H116283   3.471   4.205   7.641
 1488TP3     H216284   3.516   4.340   7.692
 1489TP3      O16285   3.504   4.311   8.215
 1489TP3     H116286   3.593   4.335   8.190
 1489TP3     H216287   3.495   4.343   8.305
 1490TP3      O16288   3.525   4.433   8.469
 1490TP3     H116289   3.438   4.464   8.494
 1490TP3     H216290   3.576   4.513   8.456
 1491TP3      O16291   1.949   4.257   8.805
 1491TP3     H116292   2.035   4.234   8.840
 1491TP3     H216293   1.898   4.177   8.814
 1492TP3      O16294   3.755   3.849   8.988
 1492TP3     H116295   3.818   3.782   8.964
 1492TP3     H216296   3.754   3.908   8.913
 1493TP3      O16297   3.515   4.031   7.657
 1493TP3     H116298   3.530   3.994   7.745
 1493TP3     H216299   3.442   3.980   7.622
 1494TP3      O16300   2.076   4.108   8.125
 1494TP3     H116301   2.114   4.020   8.120
 1494TP3     H216302   2.151   4.165   8.139
 1495TP3      O16303   1.883   4.395   8.193
 1495TP3     H116304   1.953   4.389   8.129
 1495TP3     H216305   1.902   4.475   8.242
 1496TP3      O16306   3.692   4.011   8.778
 1496TP3     H116307   3.604   4.043   8.798
 1496TP3     H216308   3.678   3.947   8.707
 1497TP3      O16309   3.698   3.999   7.324
 1497TP3     H116310   3.733   3.942   7.256
 1497TP3     H216311   3.760   4.073   7.327
 1498TP3      O16312   1.913   4.076   7.599
 1498TP3     H116313   1.819   4.071   7.615
 1498TP3     H216314   1.939   3.985   7.586
 1499TP3      O16315   1.936   3.861   8.443
 1499TP3     H116316   1.869   3.855   8.511
 1499TP3     H216317   1.906   3.932   8.386
 1500TP3      O16318   2.140   5.197   8.862
 1500TP3     H116319   2.051   5.211   8.829
 1500TP3     H216320   2.130   5.194   8.957
 1501TP3      O16321   2.440   5.322   8.501
 1501TP3     H116322   2.384   5.365   8.436
 1501TP3     H216323   2.529   5.344   8.474
 1502TP3      O16324   2.918   5.463   8.799
 1502TP3     H116325   2.894   5.428   8.884
 1502TP3     H216326   3.009   5.490   8.810
 1503TP3      O16327   3.606   3.808   8.605
 1503TP3     H116328   3.518   3.816   8.567
 1503TP3     H216329   3.629   3.716   8.592
 1504TP3      O16330   3.143  -0.027   8.428
 1504TP3     H116331   3.067   0.014   8.470
 1504TP3     H216332   3.157   0.025   8.349
 1505TP3      O16333   2.127   5.438   8.183
 1505TP3     H116334   2.125   5.408   8.273
 1505TP3     H216335   2.207   5.400   8.146
 1506TP3      O16336   2.352   5.332   8.087
 1506TP3     H116337   2.338   5.239   8.108
 1506TP3     H216338   2.442   5.349   8.114
 1507TP3      O16339   2.611   5.340   8.180
 1507TP3     H116340   2.616   5.248   8.154
 1507TP3     H216341   2.650   5.341   8.268
 1508TP3      O16342   2.963   3.957   8.101
 1508TP3     H116343   2.875   3.926   8.121
 1508TP3     H216344   2.960   3.983   8.009
 1509TP3      O16345   3.441   3.799   8.047
 1509TP3     H116346   3.495   3.866   8.006
 1509TP3     H216347   3.352   3.818   8.017
 1510TP3      O16348   3.623   3.934   7.891
 1510TP3     H116349   3.691   3.870   7.870
 1510TP3     H216350   3.671   4.015   7.908
 1511TP3      O16351   2.161   3.826   7.816
 1511TP3     H116352   2.068   3.808   7.800
 1511TP3     H216353   2.204   3.742   7.802
 1512TP3      O16354   2.655   3.811   7.862
 1512TP3     H116355   2.737   3.833   7.818
 1512TP3     H216356   2.597   3.885   7.843
 1513TP3      O16357   3.190   3.814   7.944
 1513TP3     H116358   3.161   3.822   7.853
 1513TP3     H216359   3.112   3.787   7.991
 1514TP3      O16360   3.308   3.881   7.552
 1514TP3     H116361   3.231   3.938   7.560
 1514TP3     H216362   3.275   3.793   7.571
 1515TP3      O16363   2.033   5.343   7.494
 1515TP3     H116364   2.064   5.279   7.430
 1515TP3     H216365   2.051   5.428   7.454
 1516TP3      O16366   2.705   4.044   7.525
 1516TP3     H116367   2.768   4.003   7.465
 1516TP3     H216368   2.751   4.121   7.558
 1517TP3      O16369   3.653   5.496   7.648
 1517TP3     H116370   3.608   5.416   7.621
 1517TP3     H216371   3.726   5.504   7.587
 1518TP3      O16372   2.173   3.893   8.765
 1518TP3     H116373   2.111   3.829   8.801
 1518TP3     H216374   2.255   3.874   8.810
 1519TP3      O16375   2.379   3.817   8.931
 1519TP3     H116376   2.467   3.794   8.902
 1519TP3     H216377   2.348   3.739   8.978
 1520TP3      O16378   2.216   5.433   7.178
 1520TP3     H116379   2.196   5.504   7.239
 1520TP3     H216380   2.217   5.355   7.233
 1521TP3      O16381   3.206   3.801   9.001
 1521TP3     H116382   3.197   3.756   9.085
 1521TP3     H216383   3.291   3.772   8.967
 1522TP3      O16384   3.518   5.398   8.817
 1522TP3     H116385   3.455   5.384   8.746
 1522TP3     H216386   3.539   5.491   8.813
 1523TP3      O16387   4.963   4.745   7.818
 1523TP3     H116388   4.960   4.840   7.826
 1523TP3     H216389   4.899   4.724   7.750
 1524TP3      O16390   4.858   4.692   8.209
 1524TP3     H116391   4.884   4.647   8.289
 1524TP3     H216392   4.811   4.626   8.158
 1525TP3      O16393   4.082   4.627   8.329
 1525TP3     H116394   4.089   4.557   8.394
 1525TP3     H216395   4.173   4.650   8.309
 1526TP3      O16396   5.231   4.988   8.039
 1526TP3     H116397   5.205   4.911   8.090
 1526TP3     H216398   5.254   5.053   8.105
 1527TP3      O16399   4.218   5.069   8.143
 1527TP3     H116400   4.181   4.984   8.119
 1527TP3     H216401   4.313   5.054   8.147
 1528TP3      O16402   3.847   4.364   7.682
 1528TP3     H116403   3.815   4.452   7.700
 1528TP3     H216404   3.810   4.310   7.751
 1529TP3      O16405   3.928   4.677   7.958
 1529TP3     H116406   3.959   4.590   7.982
 1529TP3     H216407   4.002   4.735   7.976
 1530TP3      O16408   4.955   5.380   8.038
 1530TP3     H116409   5.038   5.362   7.994
 1530TP3     H216410   4.959   5.329   8.118
 1531TP3      O16411   4.711   4.934   8.221
 1531TP3     H116412   4.754   4.854   8.192
 1531TP3     H216413   4.777   4.980   8.272
 1532TP3      O16414   5.009   4.359   8.228
 1532TP3     H116415   5.025   4.265   8.238
 1532TP3     H216416   5.002   4.372   8.134
 1533TP3      O16417   4.363   4.174   7.951
 1533TP3     H116418   4.374   4.256   7.903
 1533TP3     H216419   4.305   4.121   7.896
 1534TP3      O16420   5.123   4.209   7.812
 1534TP3     H116421   5.164   4.176   7.893
 1534TP3     H216422   5.197   4.240   7.759
 1535TP3      O16423   4.008   4.425   8.031
 1535TP3     H116424   4.069   4.387   8.095
 1535TP3     H216425   4.037   4.390   7.947
 1536TP3      O16426   4.480   4.557   8.005
 1536TP3     H116427   4.566   4.528   8.033
 1536TP3     H216428   4.454   4.494   7.937
 1537TP3      O16429   4.219   4.095   8.382
 1537TP3     H116430   4.199   4.153   8.308
 1537TP3     H216431   4.146   4.105   8.442
 1538TP3      O16432   4.908   5.009   7.763
 1538TP3     H116433   4.904   5.008   7.668
 1538TP3     H216434   4.890   5.100   7.787
 1539TP3      O16435   4.485   4.853   8.358
 1539TP3     H116436   4.436   4.924   8.400
 1539TP3     H216437   4.557   4.897   8.313
 1540TP3      O16438   5.218   4.139   8.052
 1540TP3     H116439   5.154   4.104   8.113
 1540TP3     H216440   5.284   4.181   8.107
 1541TP3      O16441   4.199   4.259   8.159
 1541TP3     H116442   4.254   4.316   8.214
 1541TP3     H216443   4.259   4.225   8.093
 1542TP3      O16444   4.339   5.047   8.487
 1542TP3     H116445   4.343   5.142   8.478
 1542TP3     H216446   4.248   5.029   8.509
 1543TP3      O16447   3.888   5.020   7.491
 1543TP3     H116448   3.861   5.054   7.406
 1543TP3     H216449   3.897   5.098   7.546
 1544TP3      O16450   5.256   5.180   8.245
 1544TP3     H116451   5.163   5.199   8.246
 1544TP3     H216452   5.298   5.266   8.236
 1545TP3      O16453   5.285   4.009   8.333
 1545TP3     H116454   5.192   4.019   8.314
 1545TP3     H216455   5.322   4.095   8.313
 1546TP3      O16456   4.574   3.774   8.124
 1546TP3     H116457   4.549   3.682   8.135
 1546TP3     H216458   4.500   3.823   8.159
 1547TP3      O16459   5.180   5.374   7.885
 1547TP3     H116460   5.184   5.283   7.857
 1547TP3     H216461   5.245   5.419   7.831
 1548TP3      O16462   5.199   5.125   7.799
 1548TP3     H116463   5.192   5.068   7.722
 1548TP3     H216464   5.210   5.064   7.872
 1549TP3      O16465   5.377   4.932   8.608
 1549TP3     H116466   5.377   4.882   8.526
 1549TP3     H216467   5.396   5.022   8.580
 1550TP3      O16468   4.816   4.678   7.591
 1550TP3     H116469   4.752   4.746   7.569
 1550TP3     H216470   4.883   4.686   7.524
 1551TP3      O16471   4.887   4.465   7.220
 1551TP3     H116472   4.906   4.540   7.277
 1551TP3     H216473   4.802   4.486   7.180
 1552TP3      O16474   5.152   4.625   7.655
 1552TP3     H116475   5.100   4.675   7.718
 1552TP3     H216476   5.236   4.611   7.699
 1553TP3      O16477   5.146   4.524   8.616
 1553TP3     H116478   5.134   4.593   8.681
 1553TP3     H216479   5.080   4.543   8.549
 1554TP3      O16480   4.342   4.750   7.860
 1554TP3     H116481   4.327   4.715   7.772
 1554TP3     H216482   4.400   4.687   7.902
 1555TP3      O16483   4.495   5.074   8.110
 1555TP3     H116484   4.500   5.092   8.016
 1555TP3     H216485   4.576   5.027   8.130
 1556TP3      O16486   4.343   4.663   8.225
 1556TP3     H116487   4.396   4.637   8.151
 1556TP3     H216488   4.395   4.730   8.270
 1557TP3      O16489   4.990   5.244   8.282
 1557TP3     H116490   4.995   5.309   8.353
 1557TP3     H216491   4.960   5.164   8.325
 1558TP3      O16492   4.501   5.097   8.706
 1558TP3     H116493   4.435   5.152   8.748
 1558TP3     H216494   4.457   5.063   8.628
 1559TP3      O16495   5.029   4.674   7.416
 1559TP3     H116496   5.084   4.658   7.493
 1559TP3     H216497   5.042   4.767   7.397
 1560TP3      O16498   4.162   4.670   8.665
 1560TP3     H116499   4.172   4.754   8.709
 1560TP3     H216500   4.074   4.673   8.627
 1561TP3      O16501   4.841   5.278   7.804
 1561TP3     H116502   4.867   5.319   7.886
 1561TP3     H216503   4.782   5.341   7.763
 1562TP3      O16504   4.288   5.256   8.777
 1562TP3     H116505   4.286   5.288   8.687
 1562TP3     H216506   4.197   5.234   8.797
 1563TP3      O16507   4.246   4.662   7.603
 1563TP3     H116508   4.202   4.736   7.560
 1563TP3     H216509   4.174   4.608   7.636
 1564TP3      O16510   3.858   4.928   8.526
 1564TP3     H116511   3.804   4.936   8.447
 1564TP3     H216512   3.875   4.834   8.534
 1565TP3      O16513   3.807   5.193   8.221
 1565TP3     H116514   3.898   5.211   8.197
 1565TP3     H216515   3.770   5.279   8.238
 1566TP3      O16516   4.739   5.222   8.654
 1566TP3     H116517   4.752   5.297   8.713
 1566TP3     H216518   4.654   5.187   8.679
 1567TP3      O16519   4.160   5.390   7.812
 1567TP3     H116520   4.175   5.369   7.904
 1567TP3     H216521   4.095   5.326   7.783
 1568TP3      O16522   5.204   5.401   7.353
 1568TP3     H116523   5.175   5.326   7.302
 1568TP3     H216524   5.164   5.389   7.439
 1569TP3      O16525   5.010   5.390   7.569
 1569TP3     H116526   4.944   5.352   7.511
 1569TP3     H216527   5.013   5.331   7.645
 1570TP3      O16528   5.336   4.430   8.830
 1570TP3     H116529   5.291   4.457   8.750
 1570TP3     H216530   5.411   4.379   8.799
 1571TP3      O16531   4.079   5.075   8.580
 1571TP3     H116532   4.093   5.052   8.672
 1571TP3     H216533   4.001   5.025   8.555
 1572TP3      O16534   4.334   3.893   8.220
 1572TP3     H116535   4.256   3.881   8.165
 1572TP3     H216536   4.312   3.966   8.278
 1573TP3      O16537   4.810   3.864   8.558
 1573TP3     H116538   4.853   3.818   8.631
 1573TP3     H216539   4.716   3.858   8.578
 1574TP3      O16540   5.127   4.240   8.628
 1574TP3     H116541   5.064   4.227   8.700
 1574TP3     H216542   5.132   4.336   8.619
 1575TP3      O16543   4.346   4.410   8.335
 1575TP3     H116544   4.281   4.412   8.405
 1575TP3     H216545   4.350   4.501   8.304
 1576TP3      O16546   4.364   4.400   7.798
 1576TP3     H116547   4.268   4.394   7.795
 1576TP3     H216548   4.391   4.396   7.707
 1577TP3      O16549   4.871   4.428   7.685
 1577TP3     H116550   4.849   4.517   7.659
 1577TP3     H216551   4.947   4.405   7.632
 1578TP3      O16552   4.811   4.452   8.814
 1578TP3     H116553   4.762   4.379   8.851
 1578TP3     H216554   4.896   4.449   8.857
 1579TP3      O16555   4.985   4.402   7.960
 1579TP3     H116556   4.950   4.466   7.899
 1579TP3     H216557   5.019   4.332   7.905
 1580TP3      O16558   4.132   4.412   8.507
 1580TP3     H116559   4.134   4.459   8.590
 1580TP3     H216560   4.083   4.332   8.527
 1581TP3      O16561   3.805   4.160   7.868
 1581TP3     H116562   3.861   4.142   7.944
 1581TP3     H216563   3.833   4.097   7.802
 1582TP3      O16564   3.881   4.217   7.443
 1582TP3     H116565   3.972   4.190   7.433
 1582TP3     H216566   3.880   4.270   7.523
 1583TP3      O16567   4.935   4.530   8.423
 1583TP3     H116568   4.970   4.473   8.355
 1583TP3     H216569   4.870   4.477   8.469
 1584TP3      O16570   4.643   4.119   7.910
 1584TP3     H116571   4.555   4.135   7.943
 1584TP3     H216572   4.695   4.099   7.988
 1585TP3      O16573   4.099   4.325   7.788
 1585TP3     H116574   4.015   4.337   7.743
 1585TP3     H216575   4.118   4.232   7.779
 1586TP3      O16576   4.441   4.332   7.527
 1586TP3     H116577   4.527   4.318   7.567
 1586TP3     H216578   4.460   4.387   7.450
 1587TP3      O16579   5.021   4.077   8.243
 1587TP3     H116580   4.980   4.090   8.328
 1587TP3     H216581   4.951   4.042   8.188
 1588TP3      O16582   4.145   4.893   8.822
 1588TP3     H116583   4.209   4.903   8.892
 1588TP3     H216584   4.060   4.899   8.866
 1589TP3      O16585   4.717   4.453   8.108
 1589TP3     H116586   4.795   4.413   8.070
 1589TP3     H216587   4.693   4.394   8.180
 1590TP3      O16588   4.184   4.061   7.760
 1590TP3     H116589   4.137   3.983   7.788
 1590TP3     H216590   4.223   4.037   7.676
 1591TP3      O16591   4.605   4.309   8.332
 1591TP3     H116592   4.522   4.356   8.339
 1591TP3     H216593   4.656   4.338   8.409
 1592TP3      O16594   4.630   4.864   7.508
 1592TP3     H116595   4.557   4.834   7.454
 1592TP3     H216596   4.589   4.899   7.587
 1593TP3      O16597   5.369   4.794   8.374
 1593TP3     H116598   5.443   4.773   8.317
 1593TP3     H216599   5.293   4.792   8.316
 1594TP3      O16600   4.799   4.932   8.633
 1594TP3     H116601   4.836   4.898   8.714
 1594TP3     H216602   4.771   5.021   8.655
 1595TP3      O16603   5.070   4.337   7.508
 1595TP3     H116604   5.157   4.346   7.547
 1595TP3     H216605   5.067   4.405   7.441
 1596TP3      O16606   4.160   4.803   8.055
 1596TP3     H116607   4.220   4.799   7.981
 1596TP3     H216608   4.204   4.754   8.124
 1597TP3      O16609   4.874   5.008   7.492
 1597TP3     H116610   4.880   5.088   7.441
 1597TP3     H216611   4.785   4.976   7.477
 1598TP3      O16612   3.893   4.659   8.602
 1598TP3     H116613   3.863   4.612   8.680
 1598TP3     H216614   3.825   4.642   8.537
 1599TP3      O16615   4.594   4.632   8.836
 1599TP3     H116616   4.530   4.595   8.775
 1599TP3     H216617   4.675   4.587   8.815
 1600TP3      O16618   5.023   5.189   8.655
 1600TP3     H116619   4.933   5.199   8.623
 1600TP3     H216620   5.017   5.204   8.749
 1601TP3      O16621   5.441   5.209   7.483
 1601TP3     H116622   5.372   5.150   7.453
 1601TP3     H216623   5.478   5.245   7.402
 1602TP3      O16624   5.151   4.760   8.192
 1602TP3     H116625   5.057   4.754   8.180
 1602TP3     H216626   5.186   4.686   8.142
 1603TP3      O16627   4.428   5.174   7.855
 1603TP3     H116628   4.453   5.249   7.801
 1603TP3     H216629   4.335   5.186   7.872
 1604TP3      O16630   4.492   4.940   7.726
 1604TP3     H116631   4.487   5.027   7.766
 1604TP3     H216632   4.444   4.884   7.787
 1605TP3      O16633   4.599   5.352   8.431
 1605TP3     H116634   4.639   5.438   8.445
 1605TP3     H216635   4.655   5.292   8.481
 1606TP3      O16636   4.415   5.411   7.709
 1606TP3     H116637   4.323   5.422   7.734
 1606TP3     H216638   4.461   5.482   7.754
 1607TP3      O16639   4.920   4.998   8.395
 1607TP3     H116640   4.881   4.967   8.477
 1607TP3     H216641   4.995   4.940   8.381
 1608TP3      O16642   5.220   5.385   8.604
 1608TP3     H116643   5.169   5.307   8.627
 1608TP3     H216644   5.166   5.430   8.539
 1609TP3      O16645   3.993   4.162   8.550
 1609TP3     H116646   3.902   4.190   8.540
 1609TP3     H216647   3.987   4.081   8.601
 1610TP3      O16648   4.040   5.325   8.432
 1610TP3     H116649   4.055   5.240   8.474
 1610TP3     H216650   3.973   5.366   8.487
 1611TP3      O16651   4.116   4.869   7.482
 1611TP3     H116652   4.030   4.911   7.486
 1611TP3     H216653   4.177   4.940   7.501
 1612TP3      O16654   4.915   4.111   8.489
 1612TP3     H116655   4.987   4.132   8.549
 1612TP3     H216656   4.880   4.028   8.523
 1613TP3      O16657   4.993   4.084   7.611
 1613TP3     H116658   4.997   4.158   7.552
 1613TP3     H216659   5.035   4.115   7.692
 1614TP3      O16660   4.788   5.278   7.396
 1614TP3     H116661   4.707   5.321   7.425
 1614TP3     H216662   4.768   5.248   7.307
 1615TP3      O16663   4.666   4.253   7.661
 1615TP3     H116664   4.738   4.316   7.665
 1615TP3     H216665   4.657   4.221   7.751
 1616TP3      O16666   4.772   4.352   8.551
 1616TP3     H116667   4.784   4.379   8.642
 1616TP3     H216668   4.815   4.267   8.546
 1617TP3      O16669   4.785   3.950   7.740
 1617TP3     H116670   4.754   4.014   7.804
 1617TP3     H216671   4.862   3.991   7.700
 1618TP3      O16672   4.557   5.406   7.470
 1618TP3     H116673   4.499   5.435   7.400
 1618TP3     H216674   4.503   5.408   7.549
 1619TP3      O16675   4.361   4.075   7.459
 1619TP3     H116676   4.365   4.170   7.473
 1619TP3     H216677   4.445   4.043   7.491
 1620TP3      O16678   5.363   4.096   8.638
 1620TP3     H116679   5.282   4.145   8.624
 1620TP3     H216680   5.422   4.159   8.679
 1621TP3      O16681   5.229   4.516   8.068
 1621TP3     H116682   5.145   4.483   8.035
 1621TP3     H216683   5.257   4.452   8.132
 1622TP3      O16684   5.361   5.434   8.261
 1622TP3     H116685   5.335   5.506   8.203
 1622TP3     H216686   5.455   5.423   8.244
 1623TP3      O16687   4.090   3.858   8.098
 1623TP3     H116688   4.080   3.847   8.003
 1623TP3     H216689   4.056   3.777   8.135
 1624TP3      O16690   3.950   5.234   7.707
 1624TP3     H116691   3.904   5.270   7.783
 1624TP3     H216692   3.935   5.299   7.638
 1625TP3      O16693   3.931   5.496   8.875
 1625TP3     H116694   3.993   5.463   8.941
 1625TP3     H216695   3.883   5.419   8.847
 1626TP3      O16696   4.358   5.343   9.024
 1626TP3     H116697   4.439   5.297   9.046
 1626TP3     H216698   4.337   5.313   8.935
 1627TP3      O16699   5.001   5.220   8.922
 1627TP3     H116700   4.993   5.136   8.966
 1627TP3     H216701   5.073   5.264   8.967
 1628TP3      O16702   3.897   4.890   8.948
 1628TP3     H116703   3.841   4.821   8.983
 1628TP3     H216704   3.842   4.935   8.884
 1629TP3      O16705   4.557   4.905   8.899
 1629TP3     H116706   4.549   4.955   8.818
 1629TP3     H216707   4.584   4.818   8.871
 1630TP3      O16708   5.116   4.928   8.678
 1630TP3     H116709   5.207   4.933   8.649
 1630TP3     H216710   5.080   5.015   8.661
 1631TP3      O16711   4.014   4.552   8.906
 1631TP3     H116712   4.076   4.601   8.852
 1631TP3     H216713   4.013   4.599   8.990
 1632TP3      O16714   4.415   4.740   7.375
 1632TP3     H116715   4.371   4.697   7.449
 1632TP3     H216716   4.447   4.667   7.321
 1633TP3      O16717   4.404   4.528   8.652
 1633TP3     H116718   4.326   4.583   8.651
 1633TP3     H216719   4.462   4.567   8.587
 1634TP3      O16720   4.900   4.763   8.949
 1634TP3     H116721   4.979   4.729   8.908
 1634TP3     H216722   4.868   4.691   9.004
 1635TP3      O16723   0.042   4.703   7.156
 1635TP3     H116724   0.124   4.666   7.122
 1635TP3     H216725   0.067   4.789   7.191
 1636TP3      O16726   4.449   4.271   8.729
 1636TP3     H116727   4.455   4.213   8.653
 1636TP3     H216728   4.436   4.358   8.691
 1637TP3      O16729   4.470   4.110   8.494
 1637TP3     H116730   4.523   4.160   8.431
 1637TP3     H216731   4.382   4.110   8.455
 1638TP3      O16732   4.589   4.643   8.495
 1638TP3     H116733   4.682   4.661   8.506
 1638TP3     H216734   4.555   4.719   8.448
 1639TP3      O16735   5.040   4.413   8.980
 1639TP3     H116736   5.046   4.335   9.034
 1639TP3     H216737   5.130   4.427   8.949
 1640TP3      O16738   5.159   4.716   8.837
 1640TP3     H116739   5.134   4.793   8.787
 1640TP3     H216740   5.254   4.715   8.834
 1641TP3      O16741   4.281   4.326   8.952
 1641TP3     H116742   4.198   4.285   8.928
 1641TP3     H216743   4.332   4.326   8.871
 1642TP3      O16744   4.530   3.847   8.559
 1642TP3     H116745   4.509   3.938   8.539
 1642TP3     H216746   4.461   3.797   8.516
 1643TP3      O16747   4.670   4.233   8.892
 1643TP3     H116748   4.628   4.209   8.975
 1643TP3     H216749   4.597   4.241   8.830
 1644TP3      O16750   4.933   4.166   8.802
 1644TP3     H116751   4.847   4.174   8.843
 1644TP3     H216752   4.987   4.123   8.868
 1645TP3      O16753   5.136   4.050   8.977
 1645TP3     H116754   5.112   3.958   8.983
 1645TP3     H216755   5.094   4.091   9.052
 1646TP3      O16756   4.059   4.155   8.906
 1646TP3     H116757   4.063   4.085   8.841
 1646TP3     H216758   4.074   4.109   8.990
 1647TP3      O16759   4.521   3.765   8.819
 1647TP3     H116760   4.578   3.688   8.813
 1647TP3     H216761   4.518   3.800   8.730
 1648TP3      O16762   4.586   3.915   9.040
 1648TP3     H116763   4.567   3.867   8.960
 1648TP3     H216764   4.538   3.998   9.030
 1649TP3      O16765   3.867   5.366   7.941
 1649TP3     H116766   3.773   5.369   7.961
 1649TP3     H216767   3.909   5.398   8.021
 1650TP3      O16768   5.416   5.019   9.057
 1650TP3     H116769   5.335   5.030   9.107
 1650TP3     H216770   5.457   5.106   9.058
 1651TP3      O16771   5.392   5.178   8.493
 1651TP3     H116772   5.357   5.264   8.518
 1651TP3     H216773   5.365   5.167   8.402
 1652TP3      O16774   5.420   4.417   7.144
 1652TP3     H116775   5.471   4.492   7.174
 1652TP3     H216776   5.485   4.348   7.129
 1653TP3      O16777   5.359   4.522   7.813
 1653TP3     H116778   5.334   4.431   7.801
 1653TP3     H216779   5.337   4.541   7.904
 1654TP3      O16780   3.846   4.702   8.220
 1654TP3     H116781   3.860   4.705   8.126
 1654TP3     H216782   3.932   4.685   8.257
 1655TP3      O16783   5.433   4.756   8.810
 1655TP3     H116784   5.492   4.699   8.761
 1655TP3     H216785   5.415   4.829   8.750
 1656TP3      O16786   5.329   4.285   7.638
 1656TP3     H116787   5.351   4.192   7.640
 1656TP3     H216788   5.395   4.324   7.581
 1657TP3      O16789   5.362   4.268   8.252
 1657TP3     H116790   5.438   4.315   8.218
 1657TP3     H216791   5.346   4.307   8.338
 1658TP3      O16792   5.368   4.416   8.482
 1658TP3     H116793   5.296   4.469   8.517
 1658TP3     H216794   5.436   4.480   8.460
 1659TP3      O16795   3.801   4.248   8.863
 1659TP3     H116796   3.895   4.237   8.879
 1659TP3     H216797   3.774   4.166   8.821
 1660TP3      O16798   5.367   4.018   7.649
 1660TP3     H116799   5.372   3.975   7.735
 1660TP3     H216800   5.307   3.962   7.599
 1661TP3      O16801   3.965   4.105   8.085
 1661TP3     H116802   4.000   4.018   8.102
 1661TP3     H216803   4.030   4.165   8.119
 1662TP3      O16804   3.770   4.395   8.190
 1662TP3     H116805   3.841   4.392   8.126
 1662TP3     H216806   3.774   4.482   8.228
 1663TP3      O16807   3.796   4.018   7.621
 1663TP3     H116808   3.701   4.008   7.628
 1663TP3     H216809   3.809   4.076   7.546
 1664TP3      O16810   3.818   3.866   8.434
 1664TP3     H116811   3.746   3.851   8.496
 1664TP3     H216812   3.787   3.937   8.378
 1665TP3      O16813   4.033   5.195   8.862
 1665TP3     H116814   3.946   5.218   8.830
 1665TP3     H216815   4.026   5.199   8.957
 1666TP3      O16816   4.328   5.320   8.508
 1666TP3     H116817   4.260   5.361   8.454
 1666TP3     H216818   4.410   5.350   8.470
 1667TP3      O16819   4.806   5.480   8.806
 1667TP3     H116820   4.781   5.439   8.888
 1667TP3     H216821   4.892   5.518   8.824
 1668TP3      O16822   5.411   3.835   8.644
 1668TP3     H116823   5.383   3.927   8.643
 1668TP3     H216824   5.352   3.792   8.583
 1669TP3      O16825   5.022   5.484   8.435
 1669TP3     H116826   4.948   5.533   8.473
 1669TP3     H216827   5.046   5.535   8.357
 1670TP3      O16828   4.016   5.432   8.177
 1670TP3     H116829   4.019   5.407   8.269
 1670TP3     H216830   4.095   5.395   8.139
 1671TP3      O16831   4.236   5.326   8.069
 1671TP3     H116832   4.224   5.235   8.098
 1671TP3     H216833   4.323   5.349   8.100
 1672TP3      O16834   4.492   5.341   8.180
 1672TP3     H116835   4.500   5.249   8.152
 1672TP3     H216836   4.533   5.343   8.266
 1673TP3      O16837   4.822   3.966   8.075
 1673TP3     H116838   4.758   3.896   8.090
 1673TP3     H216839   4.895   3.921   8.032
 1674TP3      O16840   5.299   3.785   8.093
 1674TP3     H116841   5.353   3.844   8.040
 1674TP3     H216842   5.210   3.819   8.081
 1675TP3      O16843   5.438   3.909   7.894
 1675TP3     H116844   5.506   3.853   7.857
 1675TP3     H216845   5.482   3.994   7.907
 1676TP3      O16846   4.058   3.823   7.829
 1676TP3     H116847   3.967   3.806   7.807
 1676TP3     H216848   4.104   3.741   7.808
 1677TP3      O16849   3.981   3.835   7.517
 1677TP3     H116850   4.023   3.896   7.456
 1677TP3     H216851   3.913   3.887   7.560
 1678TP3      O16852   4.553   3.788   7.839
 1678TP3     H116853   4.607   3.864   7.818
 1678TP3     H216854   4.556   3.782   7.934
 1679TP3      O16855   5.035   3.821   7.975
 1679TP3     H116856   5.091   3.802   7.901
 1679TP3     H216857   5.007   3.735   8.007
 1680TP3      O16858   5.165   3.888   7.504
 1680TP3     H116859   5.102   3.951   7.538
 1680TP3     H216860   5.135   3.803   7.536
 1681TP3      O16861   3.920   5.408   7.501
 1681TP3     H116862   3.898   5.390   7.410
 1681TP3     H216863   3.971   5.489   7.498
 1682TP3      O16864   4.114   4.016   7.353
 1682TP3     H116865   4.112   4.041   7.261
 1682TP3     H216866   4.202   4.038   7.382
 1683TP3      O16867   4.622   4.012   7.531
 1683TP3     H116868   4.675   3.966   7.597
 1683TP3     H216869   4.635   4.105   7.550
 1684TP3      O16870   5.455   5.445   7.636
 1684TP3     H116871   5.444   5.358   7.597
 1684TP3     H216872   5.444   5.506   7.563
 1685TP3      O16873   4.055   3.895   8.768
 1685TP3     H116874   3.996   3.826   8.801
 1685TP3     H216875   4.138   3.878   8.813
 1686TP3      O16876   4.263   3.819   8.931
 1686TP3     H116877   4.350   3.793   8.900
 1686TP3     H216878   4.231   3.741   8.976
 1687TP3      O16879   4.101   5.474   7.166
 1687TP3     H116880   4.023   5.420   7.179
 1687TP3     H216881   4.171   5.427   7.210
 1688TP3      O16882   5.109   3.771   8.977
 1688TP3     H116883   5.097   3.727   9.061
 1688TP3     H216884   5.203   3.764   8.959
 1689TP3      O16885   5.377   5.389   8.858
 1689TP3     H116886   5.343   5.387   8.769
 1689TP3     H216887   5.459   5.439   8.852
 1690TP3      O16888   1.079   0.786   9.128
 1690TP3     H116889   1.130   0.804   9.208
 1690TP3     H216890   1.133   0.724   9.079
 1691TP3      O16891   1.290   0.824   9.308
 1691TP3     H116892   1.312   0.880   9.382
 1691TP3     H216893   1.338   0.860   9.234
 1692TP3      O16894   1.630   0.044   9.333
 1692TP3     H116895   1.541   0.058   9.365
 1692TP3     H216896   1.656   0.128   9.296
 1693TP3      O16897   1.809   1.480   9.146
 1693TP3     H116898   1.826   1.573   9.158
 1693TP3     H216899   1.895   1.441   9.130
 1694TP3      O16900   1.328   1.736   9.211
 1694TP3     H116901   1.374   1.670   9.159
 1694TP3     H216902   1.354   1.717   9.301
 1695TP3      O16903   1.438   0.953   9.123
 1695TP3     H116904   1.412   0.959   9.031
 1695TP3     H216905   1.532   0.967   9.122
 1696TP3      O16906   1.010   0.315   9.183
 1696TP3     H116907   0.950   0.301   9.257
 1696TP3     H216908   0.973   0.263   9.112
 1697TP3      O16909   0.686   0.391   9.064
 1697TP3     H116910   0.640   0.351   9.138
 1697TP3     H216911   0.623   0.454   9.028
 1698TP3      O16912   0.146   0.401   9.315
 1698TP3     H116913   0.191   0.454   9.249
 1698TP3     H216914   0.088   0.462   9.359
 1699TP3      O16915   0.603   0.660   9.241
 1699TP3     H116916   0.537   0.633   9.178
 1699TP3     H216917   0.676   0.691   9.188
 1700TP3      O16918   0.830   1.139   9.400
 1700TP3     H116919   0.791   1.070   9.347
 1700TP3     H216920   0.834   1.102   9.488
 1701TP3      O16921   1.247   0.442   9.183
 1701TP3     H116922   1.161   0.400   9.193
 1701TP3     H216923   1.269   0.472   9.271
 1702TP3      O16924   1.332   0.576   9.421
 1702TP3     H116925   1.423   0.575   9.449
 1702TP3     H216926   1.321   0.659   9.375
 1703TP3      O16927   1.053   1.263   9.293
 1703TP3     H116928   1.022   1.352   9.305
 1703TP3     H216929   0.987   1.208   9.335
 1704TP3      O16930   1.802   0.631   9.319
 1704TP3     H116931   1.756   0.622   9.236
 1704TP3     H216932   1.841   0.719   9.315
 1705TP3      O16933   1.628   1.455   9.354
 1705TP3     H116934   1.688   1.462   9.429
 1705TP3     H216935   1.684   1.465   9.277
 1706TP3      O16936   0.197   0.898   9.160
 1706TP3     H116937   0.230   0.963   9.223
 1706TP3     H216938   0.106   0.924   9.146
 1707TP3      O16939   1.417   1.311   9.183
 1707TP3     H116940   1.399   1.324   9.276
 1707TP3     H216941   1.335   1.276   9.147
 1708TP3      O16942   1.856   1.739   9.214
 1708TP3     H116943   1.916   1.813   9.209
 1708TP3     H216944   1.775   1.776   9.251
 1709TP3      O16945   0.794   1.392   9.040
 1709TP3     H116946   0.799   1.309   8.992
 1709TP3     H216947   0.753   1.369   9.123
 1710TP3      O16948   0.673   1.355   9.288
 1710TP3     H116949   0.728   1.299   9.341
 1710TP3     H216950   0.681   1.442   9.328
 1711TP3      O16951   0.258   1.111   9.339
 1711TP3     H116952   0.321   1.074   9.401
 1711TP3     H216953   0.307   1.177   9.291
 1712TP3      O16954   0.946   1.514   9.308
 1712TP3     H116955   0.861   1.553   9.330
 1712TP3     H216956   0.965   1.548   9.220
 1713TP3      O16957   0.694   1.627   9.362
 1713TP3     H116958   0.717   1.707   9.315
 1713TP3     H216959   0.620   1.652   9.417
 1714TP3      O16960   0.565   0.266   9.271
 1714TP3     H116961   0.513   0.268   9.350
 1714TP3     H216962   0.654   0.248   9.301
 1715TP3      O16963   0.412   1.294   9.201
 1715TP3     H116964   0.487   1.335   9.244
 1715TP3     H216965   0.450   1.240   9.132
 1716TP3      O16966   0.200   0.621   9.153
 1716TP3     H116967   0.219   0.714   9.166
 1716TP3     H216968   0.109   0.618   9.124
 1717TP3      O16969   1.001   1.570   9.032
 1717TP3     H116970   0.933   1.503   9.026
 1717TP3     H216971   1.078   1.528   8.994
 1718TP3      O16972   1.450   1.552   9.054
 1718TP3     H116973   1.461   1.469   9.101
 1718TP3     H216974   1.523   1.555   8.993
 1719TP3      O16975   0.556   1.122   9.043
 1719TP3     H116976   0.580   1.063   9.114
 1719TP3     H216977   0.637   1.133   8.993
 1720TP3      O16978   1.180   1.243   9.057
 1720TP3     H116979   1.128   1.242   9.137
 1720TP3     H216980   1.161   1.159   9.016
 1721TP3      O16981   0.657   0.960   9.254
 1721TP3     H116982   0.611   0.888   9.297
 1721TP3     H216983   0.720   0.918   9.196
 1722TP3      O16984   0.806   0.796   9.100
 1722TP3     H116985   0.802   0.818   9.007
 1722TP3     H216986   0.900   0.785   9.118
 1723TP3      O16987   1.708   1.012   9.097
 1723TP3     H116988   1.709   0.976   9.008
 1723TP3     H216989   1.699   1.106   9.085
 1724TP3      O16990   0.808   1.861   9.261
 1724TP3     H116991   0.899   1.832   9.253
 1724TP3     H216992   0.795   1.919   9.186
 1725TP3      O16993   0.143   1.357   9.163
 1725TP3     H116994   0.236   1.360   9.185
 1725TP3     H216995   0.133   1.277   9.112
 1726TP3      O16996   1.882   0.887   9.267
 1726TP3     H116997   1.823   0.920   9.200
 1726TP3     H216998   1.884   0.955   9.334
 1727TP3      O16999   1.673   0.620   9.082
 1727TP3     H117000   1.656   0.672   9.003
 1727TP3     H217001   1.652   0.530   9.056
 1728TP3      O17002   1.603   0.369   8.999
 1728TP3     H117003   1.632   0.320   9.076
 1728TP3     H217004   1.513   0.340   8.985
 1729TP3      O17005   1.757   0.257   9.212
 1729TP3     H117006   1.795   0.205   9.142
 1729TP3     H217007   1.827   0.317   9.238
 1730TP3      O17008   0.145   0.138   9.265
 1730TP3     H117009   0.211   0.139   9.196
 1730TP3     H217010   0.140   0.229   9.295
 1731TP3      O17011   0.180   1.710   9.368
 1731TP3     H117012   0.099   1.659   9.363
 1731TP3     H217013   0.153   1.800   9.349
 1732TP3      O17014   0.359   0.235   9.093
 1732TP3     H117015   0.401   0.177   9.030
 1732TP3     H217016   0.425   0.250   9.160
 1733TP3      O17017   0.816   0.262   9.380
 1733TP3     H117018   0.890   0.240   9.437
 1733TP3     H217019   0.787   0.347   9.413
 1734TP3      O17020   1.057   1.780   9.201
 1734TP3     H117021   1.152   1.781   9.215
 1734TP3     H217022   1.044   1.718   9.130
 1735TP3      O17023   0.359   1.736   9.090
 1735TP3     H117024   0.331   1.717   9.180
 1735TP3     H217025   0.435   1.679   9.076
 1736TP3      O17026   2.966   0.786   9.133
 1736TP3     H117027   3.019   0.806   9.210
 1736TP3     H217028   3.019   0.724   9.083
 1737TP3      O17029   3.175   0.834   9.312
 1737TP3     H117030   3.191   0.896   9.383
 1737TP3     H217031   3.226   0.868   9.239
 1738TP3      O17032   3.516   0.048   9.334
 1738TP3     H117033   3.421   0.042   9.324
 1738TP3     H217034   3.538   0.134   9.298
 1739TP3      O17035   3.694   1.480   9.144
 1739TP3     H117036   3.712   1.573   9.156
 1739TP3     H217037   3.780   1.441   9.130
 1740TP3      O17038   3.215   1.737   9.209
 1740TP3     H117039   3.262   1.671   9.158
 1740TP3     H217040   3.236   1.717   9.300
 1741TP3      O17041   3.329   0.950   9.124
 1741TP3     H117042   3.298   0.957   9.034
 1741TP3     H217043   3.424   0.963   9.118
 1742TP3      O17044   2.897   0.312   9.184
 1742TP3     H117045   2.837   0.295   9.257
 1742TP3     H217046   2.862   0.261   9.111
 1743TP3      O17047   2.571   0.381   9.071
 1743TP3     H117048   2.524   0.343   9.146
 1743TP3     H217049   2.512   0.448   9.038
 1744TP3      O17050   1.965   0.411   9.309
 1744TP3     H117051   2.037   0.450   9.259
 1744TP3     H217052   1.908   0.485   9.330
 1745TP3      O17053   2.494   0.665   9.250
 1745TP3     H117054   2.427   0.633   9.190
 1745TP3     H217055   2.565   0.694   9.193
 1746TP3      O17056   2.720   1.138   9.401
 1746TP3     H117057   2.679   1.069   9.348
 1746TP3     H217058   2.722   1.102   9.489
 1747TP3      O17059   3.134   0.442   9.185
 1747TP3     H117060   3.049   0.399   9.194
 1747TP3     H217061   3.154   0.474   9.272
 1748TP3      O17062   3.213   0.583   9.420
 1748TP3     H117063   3.304   0.580   9.450
 1748TP3     H217064   3.204   0.668   9.377
 1749TP3      O17065   2.944   1.259   9.294
 1749TP3     H117066   2.914   1.350   9.305
 1749TP3     H217067   2.877   1.206   9.337
 1750TP3      O17068   3.688   0.632   9.318
 1750TP3     H117069   3.642   0.621   9.235
 1750TP3     H217070   3.726   0.720   9.313
 1751TP3      O17071   3.514   1.457   9.353
 1751TP3     H117072   3.574   1.463   9.428
 1751TP3     H217073   3.570   1.467   9.276
 1752TP3      O17074   2.135   0.866   9.178
 1752TP3     H117075   2.167   0.948   9.216
 1752TP3     H217076   2.044   0.862   9.205
 1753TP3      O17077   3.301   1.311   9.181
 1753TP3     H117078   3.278   1.318   9.274
 1753TP3     H217079   3.223   1.275   9.139
 1754TP3      O17080   3.741   1.740   9.210
 1754TP3     H117081   3.796   1.817   9.196
 1754TP3     H217082   3.663   1.774   9.252
 1755TP3      O17083   2.684   1.392   9.037
 1755TP3     H117084   2.687   1.309   8.989
 1755TP3     H217085   2.644   1.371   9.121
 1756TP3      O17086   2.565   1.357   9.285
 1756TP3     H117087   2.619   1.301   9.341
 1756TP3     H217088   2.574   1.445   9.323
 1757TP3      O17089   2.152   1.107   9.333
 1757TP3     H117090   2.204   1.070   9.405
 1757TP3     H217091   2.209   1.173   9.294
 1758TP3      O17092   2.842   1.511   9.303
 1758TP3     H117093   2.758   1.550   9.327
 1758TP3     H217094   2.859   1.544   9.214
 1759TP3      O17095   2.598   1.623   9.364
 1759TP3     H117096   2.609   1.704   9.314
 1759TP3     H217097   2.545   1.648   9.440
 1760TP3      O17098   2.443   0.254   9.281
 1760TP3     H117099   2.393   0.270   9.361
 1760TP3     H217100   2.532   0.237   9.312
 1761TP3      O17101   2.305   1.294   9.201
 1761TP3     H117102   2.381   1.337   9.242
 1761TP3     H217103   2.343   1.242   9.130
 1762TP3      O17104   2.116   0.590   9.164
 1762TP3     H117105   2.136   0.684   9.166
 1762TP3     H217106   2.081   0.575   9.077
 1763TP3      O17107   2.889   1.571   9.032
 1763TP3     H117108   2.821   1.505   9.024
 1763TP3     H217109   2.967   1.530   8.993
 1764TP3      O17110   3.340   1.552   9.056
 1764TP3     H117111   3.349   1.470   9.104
 1764TP3     H217112   3.414   1.553   8.995
 1765TP3      O17113   2.437   1.123   9.035
 1765TP3     H117114   2.462   1.066   9.108
 1765TP3     H217115   2.518   1.135   8.985
 1766TP3      O17116   3.069   1.240   9.057
 1766TP3     H117117   3.018   1.240   9.138
 1766TP3     H217118   3.048   1.156   9.016
 1767TP3      O17119   2.537   0.963   9.248
 1767TP3     H117120   2.483   0.891   9.280
 1767TP3     H217121   2.603   0.922   9.194
 1768TP3      O17122   2.695   0.796   9.106
 1768TP3     H117123   2.688   0.817   9.013
 1768TP3     H217124   2.789   0.785   9.121
 1769TP3      O17125   3.597   1.005   9.080
 1769TP3     H117126   3.595   0.976   8.989
 1769TP3     H217127   3.588   1.100   9.076
 1770TP3      O17128   2.694   1.866   9.259
 1770TP3     H117129   2.785   1.836   9.250
 1770TP3     H217130   2.681   1.925   9.185
 1771TP3      O17131   2.053   1.354   9.102
 1771TP3     H117132   2.135   1.339   9.149
 1771TP3     H217133   2.035   1.271   9.059
 1772TP3      O17134   3.762   0.890   9.266
 1772TP3     H117135   3.710   0.916   9.190
 1772TP3     H217136   3.738   0.953   9.334
 1773TP3      O17137   3.561   0.618   9.080
 1773TP3     H117138   3.542   0.671   9.003
 1773TP3     H217139   3.541   0.528   9.052
 1774TP3      O17140   3.492   0.366   8.997
 1774TP3     H117141   3.516   0.321   9.077
 1774TP3     H217142   3.400   0.341   8.982
 1775TP3      O17143   3.647   0.262   9.215
 1775TP3     H117144   3.685   0.209   9.145
 1775TP3     H217145   3.717   0.322   9.240
 1776TP3      O17146   2.054   0.143   9.278
 1776TP3     H117147   2.115   0.160   9.207
 1776TP3     H217148   2.029   0.230   9.310
 1777TP3      O17149   2.116   1.686   9.333
 1777TP3     H117150   2.033   1.640   9.323
 1777TP3     H217151   2.093   1.779   9.322
 1778TP3      O17152   2.249   0.217   9.098
 1778TP3     H117153   2.291   0.162   9.031
 1778TP3     H217154   2.317   0.230   9.164
 1779TP3      O17155   2.700   0.246   9.378
 1779TP3     H117156   2.775   0.230   9.435
 1779TP3     H217157   2.664   0.329   9.408
 1780TP3      O17158   2.943   1.783   9.200
 1780TP3     H117159   3.038   1.784   9.212
 1780TP3     H217160   2.928   1.720   9.129
 1781TP3      O17161   2.244   1.723   9.084
 1781TP3     H117162   2.211   1.698   9.170
 1781TP3     H217163   2.321   1.667   9.071
 1782TP3      O17164   4.847   0.778   9.124
 1782TP3     H117165   4.896   0.802   9.202
 1782TP3     H217166   4.905   0.720   9.075
 1783TP3      O17167   5.030   0.848   9.313
 1783TP3     H117168   5.037   0.910   9.385
 1783TP3     H217169   5.089   0.882   9.246
 1784TP3      O17170   5.416   0.058   9.381
 1784TP3     H117171   5.341   0.054   9.323
 1784TP3     H217172   5.488   0.090   9.326
 1785TP3      O17173   5.096   1.748   9.218
 1785TP3     H117174   5.133   1.674   9.170
 1785TP3     H217175   5.117   1.731   9.309
 1786TP3      O17176   5.204   0.957   9.143
 1786TP3     H117177   5.171   0.956   9.053
 1786TP3     H217178   5.299   0.959   9.133
 1787TP3      O17179   4.773   0.303   9.182
 1787TP3     H117180   4.713   0.290   9.256
 1787TP3     H217181   4.735   0.249   9.112
 1788TP3      O17182   4.458   0.383   9.069
 1788TP3     H117183   4.411   0.347   9.143
 1788TP3     H217184   4.401   0.451   9.034
 1789TP3      O17185   3.856   0.416   9.310
 1789TP3     H117186   3.923   0.456   9.254
 1789TP3     H217187   3.796   0.488   9.331
 1790TP3      O17188   4.381   0.663   9.251
 1790TP3     H117189   4.313   0.631   9.192
 1790TP3     H217190   4.452   0.691   9.192
 1791TP3      O17191   4.610   1.135   9.401
 1791TP3     H117192   4.571   1.064   9.350
 1791TP3     H217193   4.610   1.101   9.491
 1792TP3      O17194   5.001   0.442   9.178
 1792TP3     H117195   4.919   0.394   9.183
 1792TP3     H217196   5.011   0.481   9.265
 1793TP3      O17197   5.044   0.595   9.409
 1793TP3     H117198   5.136   0.584   9.433
 1793TP3     H217199   5.041   0.682   9.369
 1794TP3      O17200   4.832   1.261   9.296
 1794TP3     H117201   4.801   1.351   9.306
 1794TP3     H217202   4.764   1.207   9.338
 1795TP3      O17203   5.485   1.470   9.351
 1795TP3     H117204   5.523   1.428   9.428
 1795TP3     H217205   5.538   1.440   9.278
 1796TP3      O17206   4.017   0.869   9.179
 1796TP3     H117207   4.052   0.951   9.214
 1796TP3     H217208   3.926   0.868   9.206
 1797TP3      O17209   5.190   1.302   9.187
 1797TP3     H117210   5.168   1.293   9.280
 1797TP3     H217211   5.112   1.269   9.141
 1798TP3      O17212   4.567   1.393   9.038
 1798TP3     H117213   4.570   1.310   8.989
 1798TP3     H217214   4.528   1.370   9.122
 1799TP3      O17215   4.457   1.352   9.285
 1799TP3     H117216   4.505   1.291   9.341
 1799TP3     H217217   4.461   1.436   9.332
 1800TP3      O17218   4.047   1.087   9.354
 1800TP3     H117219   4.022   1.022   9.420
 1800TP3     H217220   4.136   1.111   9.378
 1801TP3      O17221   4.729   1.514   9.302
 1801TP3     H117222   4.643   1.546   9.328
 1801TP3     H217223   4.739   1.542   9.211
 1802TP3      O17224   4.482   1.613   9.377
 1802TP3     H117225   4.491   1.696   9.331
 1802TP3     H217226   4.423   1.632   9.450
 1803TP3      O17227   4.329   0.260   9.280
 1803TP3     H117228   4.277   0.275   9.359
 1803TP3     H217229   4.417   0.240   9.312
 1804TP3      O17230   4.201   1.327   9.175
 1804TP3     H117231   4.278   1.351   9.225
 1804TP3     H217232   4.230   1.256   9.118
 1805TP3      O17233   3.993   0.594   9.154
 1805TP3     H117234   4.015   0.687   9.157
 1805TP3     H217235   3.947   0.582   9.071
 1806TP3      O17236   4.772   1.570   9.031
 1806TP3     H117237   4.702   1.505   9.024
 1806TP3     H217238   4.849   1.528   8.993
 1807TP3      O17239   5.204   1.551   9.070
 1807TP3     H117240   5.220   1.467   9.114
 1807TP3     H217241   5.272   1.556   9.003
 1808TP3      O17242   4.321   1.122   9.037
 1808TP3     H117243   4.344   1.065   9.110
 1808TP3     H217244   4.404   1.134   8.989
 1809TP3      O17245   4.956   1.238   9.059
 1809TP3     H117246   4.906   1.240   9.141
 1809TP3     H217247   4.932   1.155   9.018
 1810TP3      O17248   4.423   0.960   9.247
 1810TP3     H117249   4.369   0.888   9.278
 1810TP3     H217250   4.489   0.919   9.191
 1811TP3      O17251   4.578   0.793   9.102
 1811TP3     H117252   4.571   0.816   9.010
 1811TP3     H217253   4.672   0.779   9.116
 1812TP3      O17254   5.472   0.993   9.095
 1812TP3     H117255   5.465   0.960   9.006
 1812TP3     H217256   5.459   1.087   9.087
 1813TP3      O17257   4.564   1.850   9.255
 1813TP3     H117258   4.658   1.841   9.238
 1813TP3     H217259   4.525   1.857   9.168
 1814TP3      O17260   3.938   1.356   9.105
 1814TP3     H117261   4.023   1.346   9.146
 1814TP3     H217262   3.921   1.272   9.062
 1815TP3      O17263   5.450   0.635   9.117
 1815TP3     H117264   5.421   0.678   9.037
 1815TP3     H217265   5.422   0.544   9.107
 1816TP3      O17266   5.362   0.385   9.068
 1816TP3     H117267   5.422   0.314   9.048
 1816TP3     H217268   5.280   0.361   9.024
 1817TP3      O17269   3.952   0.153   9.287
 1817TP3     H117270   4.008   0.170   9.211
 1817TP3     H217271   3.922   0.240   9.314
 1818TP3      O17272   4.008   1.701   9.329
 1818TP3     H117273   3.929   1.647   9.326
 1818TP3     H217274   3.977   1.791   9.315
 1819TP3      O17275   4.137   0.220   9.094
 1819TP3     H117276   4.179   0.164   9.029
 1819TP3     H217277   4.205   0.235   9.160
 1820TP3      O17278   4.582   0.239   9.386
 1820TP3     H117279   4.662   0.225   9.438
 1820TP3     H217280   4.548   0.323   9.416
 1821TP3      O17281   4.821   1.799   9.181
 1821TP3     H117282   4.914   1.798   9.205
 1821TP3     H217283   4.810   1.725   9.121
 1822TP3      O17284   4.132   1.722   9.078
 1822TP3     H117285   4.095   1.703   9.164
 1822TP3     H217286   4.205   1.661   9.069
 1823TP3      O17287   1.080   2.673   9.133
 1823TP3     H117288   1.133   2.695   9.210
 1823TP3     H217289   1.134   2.611   9.084
 1824TP3      O17290   1.293   2.724   9.307
 1824TP3     H117291   1.327   2.779   9.377
 1824TP3     H217292   1.339   2.754   9.228
 1825TP3      O17293   1.650   1.889   9.315
 1825TP3     H117294   1.588   1.911   9.384
 1825TP3     H217295   1.680   1.974   9.281
 1826TP3      O17296   1.809   3.368   9.144
 1826TP3     H117297   1.828   3.460   9.161
 1826TP3     H217298   1.894   3.328   9.131
 1827TP3      O17299   1.330   3.621   9.210
 1827TP3     H117300   1.377   3.555   9.159
 1827TP3     H217301   1.361   3.609   9.299
 1828TP3      O17302   1.435   2.827   9.106
 1828TP3     H117303   1.417   2.836   9.012
 1828TP3     H217304   1.528   2.848   9.114
 1829TP3      O17305   1.005   2.186   9.186
 1829TP3     H117306   0.953   2.174   9.265
 1829TP3     H217307   0.967   2.125   9.123
 1830TP3      O17308   0.679   2.269   9.065
 1830TP3     H117309   0.632   2.227   9.137
 1830TP3     H217310   0.615   2.330   9.027
 1831TP3      O17311   0.122   2.253   9.294
 1831TP3     H117312   0.152   2.320   9.232
 1831TP3     H217313   0.152   2.284   9.379
 1832TP3      O17314   0.611   2.547   9.255
 1832TP3     H117315   0.537   2.521   9.200
 1832TP3     H217316   0.679   2.573   9.193
 1833TP3      O17317   0.832   3.027   9.400
 1833TP3     H117318   0.793   2.959   9.345
 1833TP3     H217319   0.838   2.986   9.487
 1834TP3      O17320   1.243   2.322   9.184
 1834TP3     H117321   1.159   2.279   9.197
 1834TP3     H217322   1.266   2.357   9.270
 1835TP3      O17323   1.330   2.473   9.409
 1835TP3     H117324   1.420   2.472   9.441
 1835TP3     H217325   1.320   2.560   9.369
 1836TP3      O17326   1.056   3.147   9.292
 1836TP3     H117327   1.028   3.237   9.303
 1836TP3     H217328   0.989   3.094   9.336
 1837TP3      O17329   1.804   2.509   9.317
 1837TP3     H117330   1.759   2.500   9.233
 1837TP3     H217331   1.840   2.598   9.315
 1838TP3      O17332   1.631   3.336   9.355
 1838TP3     H117333   1.690   3.346   9.430
 1838TP3     H217334   1.687   3.349   9.279
 1839TP3      O17335   0.196   2.774   9.167
 1839TP3     H117336   0.232   2.840   9.226
 1839TP3     H217337   0.104   2.799   9.156
 1840TP3      O17338   1.421   3.197   9.185
 1840TP3     H117339   1.406   3.217   9.277
 1840TP3     H217340   1.337   3.163   9.154
 1841TP3      O17341   1.863   3.624   9.225
 1841TP3     H117342   1.924   3.698   9.219
 1841TP3     H217343   1.782   3.664   9.256
 1842TP3      O17344   0.800   3.277   9.039
 1842TP3     H117345   0.805   3.193   8.993
 1842TP3     H217346   0.758   3.256   9.122
 1843TP3      O17347   0.678   3.242   9.287
 1843TP3     H117348   0.737   3.189   9.341
 1843TP3     H217349   0.684   3.330   9.324
 1844TP3      O17350   0.278   2.988   9.323
 1844TP3     H117351   0.341   2.964   9.391
 1844TP3     H217352   0.322   3.057   9.272
 1845TP3      O17353   0.952   3.398   9.305
 1845TP3     H117354   0.868   3.437   9.330
 1845TP3     H217355   0.971   3.436   9.220
 1846TP3      O17356   0.702   3.509   9.360
 1846TP3     H117357   0.722   3.590   9.314
 1846TP3     H217358   0.635   3.533   9.424
 1847TP3      O17359   0.566   2.127   9.276
 1847TP3     H117360   0.586   2.195   9.341
 1847TP3     H217361   0.636   2.062   9.289
 1848TP3      O17362   0.420   3.186   9.194
 1848TP3     H117363   0.493   3.230   9.238
 1848TP3     H217364   0.463   3.133   9.126
 1849TP3      O17365   0.185   2.492   9.163
 1849TP3     H117366   0.216   2.582   9.172
 1849TP3     H217367   0.095   2.501   9.129
 1850TP3      O17368   1.005   3.456   9.031
 1850TP3     H117369   0.937   3.388   9.025
 1850TP3     H217370   1.083   3.415   8.992
 1851TP3      O17371   1.455   3.437   9.054
 1851TP3     H117372   1.468   3.355   9.101
 1851TP3     H217373   1.529   3.442   8.994
 1852TP3      O17374   0.561   3.010   9.040
 1852TP3     H117375   0.588   2.956   9.115
 1852TP3     H217376   0.642   3.022   8.990
 1853TP3      O17377   1.181   3.128   9.055
 1853TP3     H117378   1.129   3.128   9.136
 1853TP3     H217379   1.162   3.044   9.014
 1854TP3      O17380   0.666   2.854   9.249
 1854TP3     H117381   0.608   2.789   9.288
 1854TP3     H217382   0.724   2.802   9.193
 1855TP3      O17383   0.808   2.676   9.103
 1855TP3     H117384   0.802   2.699   9.010
 1855TP3     H217385   0.902   2.668   9.119
 1856TP3      O17386   1.705   2.896   9.093
 1856TP3     H117387   1.707   2.862   9.003
 1856TP3     H217388   1.698   2.990   9.083
 1857TP3      O17389   0.809   3.745   9.258
 1857TP3     H117390   0.900   3.718   9.250
 1857TP3     H217391   0.795   3.807   9.187
 1858TP3      O17392   0.154   3.224   9.147
 1858TP3     H117393   0.246   3.235   9.171
 1858TP3     H217394   0.154   3.152   9.085
 1859TP3      O17395   1.871   2.770   9.270
 1859TP3     H117396   1.814   2.804   9.201
 1859TP3     H217397   1.868   2.837   9.339
 1860TP3      O17398   1.676   2.496   9.079
 1860TP3     H117399   1.657   2.545   8.999
 1860TP3     H217400   1.655   2.405   9.057
 1861TP3      O17401   1.606   2.245   9.004
 1861TP3     H117402   1.640   2.189   9.074
 1861TP3     H217403   1.517   2.213   8.989
 1862TP3      O17404   1.764   2.112   9.201
 1862TP3     H117405   1.805   2.059   9.132
 1862TP3     H217406   1.834   2.170   9.231
 1863TP3      O17407   0.137   1.979   9.275
 1863TP3     H117408   0.208   1.980   9.211
 1863TP3     H217409   0.126   2.070   9.300
 1864TP3      O17410   0.133   3.602   9.389
 1864TP3     H117411   0.040   3.609   9.408
 1864TP3     H217412   0.157   3.686   9.351
 1865TP3      O17413   0.353   2.079   9.111
 1865TP3     H117414   0.402   2.026   9.048
 1865TP3     H217415   0.417   2.101   9.179
 1866TP3      O17416   0.846   2.147   9.406
 1866TP3     H117417   0.828   2.071   9.462
 1866TP3     H217418   0.780   2.211   9.431
 1867TP3      O17419   1.058   3.664   9.202
 1867TP3     H117420   1.153   3.667   9.216
 1867TP3     H217421   1.046   3.604   9.129
 1868TP3      O17422   0.344   3.618   9.060
 1868TP3     H117423   0.328   3.622   9.154
 1868TP3     H217424   0.421   3.562   9.051
 1869TP3      O17425   2.964   2.670   9.142
 1869TP3     H117426   3.017   2.693   9.218
 1869TP3     H217427   3.019   2.608   9.093
 1870TP3      O17428   3.181   2.730   9.311
 1870TP3     H117429   3.213   2.788   9.380
 1870TP3     H217430   3.228   2.759   9.232
 1871TP3      O17431   3.541   1.890   9.320
 1871TP3     H117432   3.471   1.907   9.383
 1871TP3     H217433   3.565   1.977   9.287
 1872TP3      O17434   3.691   3.361   9.163
 1872TP3     H117435   3.710   3.453   9.176
 1872TP3     H217436   3.776   3.320   9.151
 1873TP3      O17437   3.206   3.657   9.245
 1873TP3     H117438   3.263   3.591   9.205
 1873TP3     H217439   3.222   3.649   9.339
 1874TP3      O17440   3.324   2.821   9.102
 1874TP3     H117441   3.302   2.834   9.010
 1874TP3     H217442   3.416   2.846   9.109
 1875TP3      O17443   2.895   2.185   9.183
 1875TP3     H117444   2.847   2.174   9.264
 1875TP3     H217445   2.851   2.126   9.121
 1876TP3      O17446   2.567   2.272   9.061
 1876TP3     H117447   2.524   2.230   9.136
 1876TP3     H217448   2.503   2.336   9.029
 1877TP3      O17449   1.955   2.278   9.305
 1877TP3     H117450   2.032   2.310   9.258
 1877TP3     H217451   1.903   2.357   9.321
 1878TP3      O17452   2.474   2.579   9.246
 1878TP3     H117453   2.409   2.533   9.192
 1878TP3     H217454   2.549   2.592   9.187
 1879TP3      O17455   2.714   3.021   9.411
 1879TP3     H117456   2.672   2.956   9.354
 1879TP3     H217457   2.711   2.982   9.498
 1880TP3      O17458   3.131   2.322   9.176
 1880TP3     H117459   3.047   2.278   9.190
 1880TP3     H217460   3.155   2.358   9.262
 1881TP3      O17461   3.221   2.473   9.396
 1881TP3     H117462   3.308   2.476   9.437
 1881TP3     H217463   3.206   2.562   9.365
 1882TP3      O17464   2.944   3.132   9.310
 1882TP3     H117465   2.918   3.224   9.313
 1882TP3     H217466   2.873   3.085   9.353
 1883TP3      O17467   3.704   2.515   9.313
 1883TP3     H117468   3.658   2.503   9.230
 1883TP3     H217469   3.731   2.607   9.312
 1884TP3      O17470   3.535   3.261   9.373
 1884TP3     H117471   3.584   3.301   9.444
 1884TP3     H217472   3.576   3.294   9.293
 1885TP3      O17473   2.122   2.742   9.177
 1885TP3     H117474   2.162   2.819   9.217
 1885TP3     H217475   2.031   2.742   9.207
 1886TP3      O17476   3.305   3.210   9.170
 1886TP3     H117477   3.293   3.207   9.265
 1886TP3     H217478   3.227   3.169   9.134
 1887TP3      O17479   3.759   3.622   9.226
 1887TP3     H117480   3.821   3.695   9.219
 1887TP3     H217481   3.679   3.661   9.261
 1888TP3      O17482   2.663   3.279   9.041
 1888TP3     H117483   2.677   3.196   8.996
 1888TP3     H217484   2.628   3.254   9.127
 1889TP3      O17485   2.560   3.240   9.293
 1889TP3     H117486   2.613   3.183   9.349
 1889TP3     H217487   2.571   3.327   9.329
 1890TP3      O17488   2.184   2.970   9.309
 1890TP3     H117489   2.238   2.963   9.387
 1890TP3     H217490   2.210   3.053   9.268
 1891TP3      O17491   2.848   3.387   9.302
 1891TP3     H117492   2.764   3.426   9.326
 1891TP3     H217493   2.865   3.421   9.214
 1892TP3      O17494   2.609   3.503   9.366
 1892TP3     H117495   2.610   3.582   9.312
 1892TP3     H217496   2.584   3.534   9.453
 1893TP3      O17497   2.457   2.134   9.269
 1893TP3     H117498   2.472   2.198   9.339
 1893TP3     H217499   2.514   2.061   9.291
 1894TP3      O17500   2.302   3.188   9.192
 1894TP3     H117501   2.375   3.227   9.240
 1894TP3     H217502   2.343   3.136   9.124
 1895TP3      O17503   2.105   2.467   9.157
 1895TP3     H117504   2.124   2.561   9.162
 1895TP3     H217505   2.055   2.457   9.076
 1896TP3      O17506   2.865   3.459   9.032
 1896TP3     H117507   2.788   3.402   9.031
 1896TP3     H217508   2.933   3.407   8.990
 1897TP3      O17509   3.354   3.473   9.114
 1897TP3     H117510   3.346   3.379   9.131
 1897TP3     H217511   3.330   3.483   9.022
 1898TP3      O17512   2.438   3.011   9.034
 1898TP3     H117513   2.460   2.957   9.110
 1898TP3     H217514   2.521   3.020   8.987
 1899TP3      O17515   3.078   3.101   9.078
 1899TP3     H117516   3.026   3.103   9.159
 1899TP3     H217517   3.050   3.020   9.035
 1900TP3      O17518   2.538   2.855   9.250
 1900TP3     H117519   2.481   2.782   9.274
 1900TP3     H217520   2.605   2.816   9.195
 1901TP3      O17521   2.694   2.686   9.105
 1901TP3     H117522   2.690   2.706   9.012
 1901TP3     H217523   2.788   2.674   9.123
 1902TP3      O17524   3.590   2.898   9.087
 1902TP3     H117525   3.590   2.866   8.997
 1902TP3     H217526   3.583   2.993   9.078
 1903TP3      O17527   2.690   3.754   9.261
 1903TP3     H117528   2.779   3.720   9.254
 1903TP3     H217529   2.679   3.812   9.186
 1904TP3      O17530   2.048   3.238   9.094
 1904TP3     H117531   2.129   3.230   9.144
 1904TP3     H217532   2.037   3.152   9.053
 1905TP3      O17533   3.761   2.783   9.268
 1905TP3     H117534   3.707   2.810   9.193
 1905TP3     H217535   3.739   2.846   9.337
 1906TP3      O17536   3.574   2.486   9.078
 1906TP3     H117537   3.546   2.540   9.004
 1906TP3     H217538   3.555   2.396   9.051
 1907TP3      O17539   3.505   2.234   8.990
 1907TP3     H117540   3.532   2.186   9.068
 1907TP3     H217541   3.413   2.212   8.978
 1908TP3      O17542   3.654   2.115   9.201
 1908TP3     H117543   3.694   2.059   9.135
 1908TP3     H217544   3.725   2.172   9.231
 1909TP3      O17545   2.055   1.947   9.275
 1909TP3     H117546   2.111   1.985   9.208
 1909TP3     H217547   2.053   2.012   9.345
 1910TP3      O17548   2.053   3.467   9.356
 1910TP3     H117549   1.983   3.519   9.316
 1910TP3     H217550   2.109   3.532   9.399
 1911TP3      O17551   2.241   2.080   9.114
 1911TP3     H117552   2.288   2.022   9.055
 1911TP3     H217553   2.306   2.107   9.179
 1912TP3      O17554   2.744   2.147   9.408
 1912TP3     H117555   2.723   2.070   9.460
 1912TP3     H217556   2.674   2.209   9.427
 1913TP3      O17557   2.934   3.663   9.208
 1913TP3     H117558   3.029   3.669   9.222
 1913TP3     H217559   2.925   3.605   9.132
 1914TP3      O17560   2.244   3.621   9.076
 1914TP3     H117561   2.211   3.605   9.164
 1914TP3     H217562   2.318   3.561   9.067
 1915TP3      O17563   4.844   2.599   9.140
 1915TP3     H117564   4.885   2.644   9.214
 1915TP3     H217565   4.917   2.573   9.084
 1916TP3      O17566   5.020   2.735   9.301
 1916TP3     H117567   5.019   2.802   9.370
 1916TP3     H217568   5.083   2.768   9.236
 1917TP3      O17569   5.419   1.925   9.395
 1917TP3     H117570   5.350   1.920   9.329
 1917TP3     H217571   5.499   1.942   9.345
 1918TP3      O17572   5.104   3.620   9.215
 1918TP3     H117573   5.145   3.552   9.162
 1918TP3     H217574   5.130   3.600   9.305
 1919TP3      O17575   5.200   2.830   9.127
 1919TP3     H117576   5.177   2.839   9.035
 1919TP3     H217577   5.296   2.833   9.127
 1920TP3      O17578   4.742   2.230   9.175
 1920TP3     H117579   4.710   2.199   9.260
 1920TP3     H217580   4.712   2.164   9.113
 1921TP3      O17581   4.454   2.342   9.107
 1921TP3     H117582   4.412   2.275   9.160
 1921TP3     H217583   4.386   2.372   9.047
 1922TP3      O17584   3.850   2.281   9.300
 1922TP3     H117585   3.928   2.313   9.254
 1922TP3     H217586   3.798   2.359   9.316
 1923TP3      O17587   4.310   2.588   9.241
 1923TP3     H117588   4.225   2.544   9.235
 1923TP3     H217589   4.353   2.569   9.158
 1924TP3      O17590   4.666   2.980   9.404
 1924TP3     H117591   4.580   2.965   9.364
 1924TP3     H217592   4.646   2.994   9.497
 1925TP3      O17593   5.007   2.311   9.171
 1925TP3     H117594   4.919   2.277   9.188
 1925TP3     H217595   5.030   2.359   9.251
 1926TP3      O17596   5.058   2.477   9.384
 1926TP3     H117597   5.138   2.472   9.437
 1926TP3     H217598   5.053   2.569   9.358
 1927TP3      O17599   4.852   3.143   9.292
 1927TP3     H117600   4.810   3.228   9.306
 1927TP3     H217601   4.794   3.080   9.335
 1928TP3      O17602   5.460   3.345   9.367
 1928TP3     H117603   5.513   3.290   9.424
 1928TP3     H217604   5.523   3.388   9.310
 1929TP3      O17605   4.013   2.733   9.184
 1929TP3     H117606   4.066   2.802   9.226
 1929TP3     H217607   3.924   2.750   9.214
 1930TP3      O17608   5.187   3.192   9.194
 1930TP3     H117609   5.161   3.195   9.286
 1930TP3     H217610   5.110   3.159   9.148
 1931TP3      O17611   4.576   3.276   9.040
 1931TP3     H117612   4.577   3.191   8.996
 1931TP3     H217613   4.531   3.259   9.123
 1932TP3      O17614   4.437   3.258   9.276
 1932TP3     H117615   4.431   3.196   9.348
 1932TP3     H217616   4.449   3.343   9.319
 1933TP3      O17617   4.120   2.946   9.316
 1933TP3     H117618   4.066   2.959   9.394
 1933TP3     H217619   4.132   3.033   9.280
 1934TP3      O17620   4.733   3.389   9.301
 1934TP3     H117621   4.648   3.424   9.327
 1934TP3     H217622   4.749   3.425   9.214
 1935TP3      O17623   4.494   3.509   9.370
 1935TP3     H117624   4.498   3.588   9.316
 1935TP3     H217625   4.474   3.541   9.458
 1936TP3      O17626   4.349   2.142   9.264
 1936TP3     H117627   4.354   2.202   9.338
 1936TP3     H217628   4.382   2.059   9.298
 1937TP3      O17629   4.182   3.183   9.190
 1937TP3     H117630   4.253   3.239   9.223
 1937TP3     H217631   4.223   3.131   9.121
 1938TP3      O17632   4.011   2.465   9.154
 1938TP3     H117633   4.014   2.560   9.164
 1938TP3     H217634   3.958   2.451   9.075
 1939TP3      O17635   4.776   3.458   9.030
 1939TP3     H117636   4.708   3.391   9.025
 1939TP3     H217637   4.853   3.417   8.990
 1940TP3      O17638   5.222   3.432   9.059
 1940TP3     H117639   5.235   3.351   9.108
 1940TP3     H217640   5.295   3.436   8.998
 1941TP3      O17641   4.325   3.011   9.034
 1941TP3     H117642   4.345   2.956   9.110
 1941TP3     H217643   4.408   3.021   8.989
 1942TP3      O17644   4.959   3.122   9.050
 1942TP3     H117645   4.913   3.126   9.133
 1942TP3     H217646   4.936   3.036   9.014
 1943TP3      O17647   4.420   2.844   9.244
 1943TP3     H117648   4.354   2.778   9.264
 1943TP3     H217649   4.485   2.798   9.192
 1944TP3      O17650   4.584   2.673   9.094
 1944TP3     H117651   4.572   2.706   9.005
 1944TP3     H217652   4.676   2.691   9.114
 1945TP3      O17653   5.472   2.874   9.099
 1945TP3     H117654   5.468   2.845   9.008
 1945TP3     H217655   5.458   2.969   9.095
 1946TP3      O17656   4.581   3.753   9.260
 1946TP3     H117657   4.671   3.723   9.253
 1946TP3     H217658   4.567   3.809   9.184
 1947TP3      O17659   3.924   3.227   9.118
 1947TP3     H117660   4.009   3.216   9.161
 1947TP3     H217661   3.912   3.148   9.066
 1948TP3      O17662   5.448   2.526   9.103
 1948TP3     H117663   5.415   2.564   9.021
 1948TP3     H217664   5.419   2.435   9.101
 1949TP3      O17665   5.364   2.272   9.071
 1949TP3     H117666   5.421   2.197   9.088
 1949TP3     H217667   5.290   2.235   9.023
 1950TP3      O17668   3.938   1.959   9.275
 1950TP3     H117669   3.993   2.000   9.208
 1950TP3     H217670   3.933   2.023   9.346
 1951TP3      O17671   3.949   3.470   9.360
 1951TP3     H117672   3.877   3.516   9.316
 1951TP3     H217673   4.001   3.539   9.401
 1952TP3      O17674   4.127   2.085   9.114
 1952TP3     H117675   4.173   2.023   9.058
 1952TP3     H217676   4.194   2.113   9.177
 1953TP3      O17677   4.629   2.151   9.406
 1953TP3     H117678   4.611   2.069   9.454
 1953TP3     H217679   4.557   2.209   9.430
 1954TP3      O17680   4.829   3.666   9.206
 1954TP3     H117681   4.924   3.666   9.220
 1954TP3     H217682   4.816   3.606   9.132
 1955TP3      O17683   4.132   3.620   9.072
 1955TP3     H117684   4.098   3.609   9.160
 1955TP3     H217685   4.207   3.560   9.068
 1956TP3      O17686   1.085   4.555   9.139
 1956TP3     H117687   1.139   4.577   9.214
 1956TP3     H217688   1.138   4.494   9.088
 1957TP3      O17689   1.296   4.612   9.312
 1957TP3     H117690   1.329   4.669   9.382
 1957TP3     H217691   1.344   4.639   9.234
 1958TP3      O17692   1.648   3.773   9.313
 1958TP3     H117693   1.590   3.795   9.386
 1958TP3     H217694   1.679   3.857   9.282
 1959TP3      O17695   1.797   5.216   9.129
 1959TP3     H117696   1.816   5.306   9.157
 1959TP3     H217697   1.884   5.175   9.123
 1960TP3      O17698   1.329   5.468   9.226
 1960TP3     H117699   1.390   5.423   9.168
 1960TP3     H217700   1.340   5.425   9.311
 1961TP3      O17701   1.440   4.702   9.107
 1961TP3     H117702   1.416   4.713   9.015
 1961TP3     H217703   1.533   4.723   9.110
 1962TP3      O17704   1.014   4.065   9.190
 1962TP3     H117705   0.960   4.052   9.268
 1962TP3     H217706   0.970   4.013   9.122
 1963TP3      O17707   0.668   4.160   9.050
 1963TP3     H117708   0.624   4.123   9.126
 1963TP3     H217709   0.606   4.225   9.016
 1964TP3      O17710   0.085   4.155   9.260
 1964TP3     H117711   0.152   4.198   9.207
 1964TP3     H217712   0.064   4.219   9.328
 1965TP3      O17713   0.611   4.445   9.252
 1965TP3     H117714   0.549   4.404   9.192
 1965TP3     H217715   0.684   4.471   9.197
 1966TP3      O17716   0.842   4.916   9.402
 1966TP3     H117717   0.799   4.850   9.347
 1966TP3     H217718   0.844   4.877   9.489
 1967TP3      O17719   1.249   4.206   9.183
 1967TP3     H117720   1.165   4.163   9.197
 1967TP3     H217721   1.272   4.244   9.268
 1968TP3      O17722   1.334   4.359   9.406
 1968TP3     H117723   1.422   4.361   9.443
 1968TP3     H217724   1.322   4.446   9.369
 1969TP3      O17725   1.063   5.050   9.297
 1969TP3     H117726   1.040   5.142   9.311
 1969TP3     H217727   0.994   5.001   9.341
 1970TP3      O17728   1.806   4.399   9.319
 1970TP3     H117729   1.764   4.388   9.234
 1970TP3     H217730   1.840   4.489   9.317
 1971TP3      O17731   1.639   5.164   9.350
 1971TP3     H117732   1.695   5.183   9.425
 1971TP3     H217733   1.693   5.185   9.274
 1972TP3      O17734   0.183   4.644   9.179
 1972TP3     H117735   0.230   4.713   9.226
 1972TP3     H217736   0.096   4.680   9.164
 1973TP3      O17737   1.413   5.092   9.185
 1973TP3     H117738   1.440   5.112   9.274
 1973TP3     H217739   1.321   5.067   9.192
 1974TP3      O17740   1.856   5.452   9.240
 1974TP3     H117741   1.907   5.531   9.221
 1974TP3     H217742   1.776   5.485   9.282
 1975TP3      O17743   0.789   5.151   9.047
 1975TP3     H117744   0.794   5.068   9.001
 1975TP3     H217745   0.752   5.129   9.133
 1976TP3      O17746   0.676   5.130   9.297
 1976TP3     H117747   0.730   5.078   9.357
 1976TP3     H217748   0.687   5.220   9.327
 1977TP3      O17749   0.306   4.851   9.300
 1977TP3     H117750   0.365   4.840   9.375
 1977TP3     H217751   0.337   4.930   9.256
 1978TP3      O17752   0.966   5.313   9.298
 1978TP3     H117753   0.879   5.348   9.317
 1978TP3     H217754   0.983   5.337   9.207
 1979TP3      O17755   0.699   5.402   9.346
 1979TP3     H117756   0.687   5.470   9.280
 1979TP3     H217757   0.638   5.426   9.416
 1980TP3      O17758   0.563   4.024   9.271
 1980TP3     H117759   0.584   4.090   9.336
 1980TP3     H217760   0.634   3.961   9.276
 1981TP3      O17761   0.421   5.079   9.191
 1981TP3     H117762   0.495   5.117   9.240
 1981TP3     H217763   0.462   5.027   9.123
 1982TP3      O17764   0.213   4.381   9.124
 1982TP3     H117765   0.224   4.470   9.158
 1982TP3     H217766   0.121   4.377   9.098
 1983TP3      O17767   1.000   5.316   9.021
 1983TP3     H117768   0.929   5.251   9.027
 1983TP3     H217769   1.078   5.265   9.000
 1984TP3      O17770   1.472   5.329   9.037
 1984TP3     H117771   1.490   5.248   9.086
 1984TP3     H217772   1.548   5.340   8.980
 1985TP3      O17773   0.557   4.899   9.041
 1985TP3     H117774   0.578   4.838   9.111
 1985TP3     H217775   0.637   4.905   8.989
 1986TP3      O17776   1.147   5.018   9.044
 1986TP3     H117777   1.109   5.018   9.131
 1986TP3     H217778   1.137   4.928   9.013
 1987TP3      O17779   0.661   4.737   9.253
 1987TP3     H117780   0.602   4.666   9.278
 1987TP3     H217781   0.726   4.694   9.197
 1988TP3      O17782   0.815   4.566   9.110
 1988TP3     H117783   0.808   4.591   9.018
 1988TP3     H217784   0.910   4.556   9.124
 1989TP3      O17785   1.707   4.771   9.082
 1989TP3     H117786   1.709   4.737   8.992
 1989TP3     H217787   1.689   4.865   9.071
 1990TP3      O17788   0.148   5.100   9.185
 1990TP3     H117789   0.242   5.119   9.188
 1990TP3     H217790   0.139   5.037   9.114
 1991TP3      O17791   1.873   4.661   9.268
 1991TP3     H117792   1.818   4.689   9.194
 1991TP3     H217793   1.858   4.727   9.336
 1992TP3      O17794   1.688   4.374   9.077
 1992TP3     H117795   1.654   4.426   9.005
 1992TP3     H217796   1.667   4.284   9.054
 1993TP3      O17797   1.613   4.124   9.002
 1993TP3     H117798   1.642   4.070   9.077
 1993TP3     H217799   1.522   4.098   8.988
 1994TP3      O17800   1.767   3.996   9.207
 1994TP3     H117801   1.807   3.939   9.141
 1994TP3     H217802   1.837   4.055   9.234
 1995TP3      O17803   0.164   3.860   9.292
 1995TP3     H117804   0.209   3.894   9.215
 1995TP3     H217805   0.173   3.929   9.357
 1996TP3      O17806   0.192   5.416   9.361
 1996TP3     H117807   0.108   5.375   9.380
 1996TP3     H217808   0.170   5.506   9.338
 1997TP3      O17809   0.347   3.980   9.101
 1997TP3     H117810   0.398   3.926   9.040
 1997TP3     H217811   0.410   4.006   9.169
 1998TP3      O17812   0.849   4.025   9.406
 1998TP3     H117813   0.829   3.950   9.463
 1998TP3     H217814   0.784   4.091   9.429
 1999TP3      O17815   0.327   5.442   9.113
 1999TP3     H117816   0.292   5.419   9.199
 1999TP3     H217817   0.410   5.396   9.107
 2000TP3      O17818   2.952   4.532   9.163
 2000TP3     H117819   3.012   4.572   9.226
 2000TP3     H217820   3.009   4.487   9.101
 2001TP3      O17821   3.177   4.619   9.314
 2001TP3     H117822   3.203   4.680   9.383
 2001TP3     H217823   3.224   4.649   9.236
 2002TP3      O17824   3.557   3.780   9.323
 2002TP3     H117825   3.469   3.793   9.359
 2002TP3     H217826   3.579   3.864   9.283
 2003TP3      O17827   3.688   5.214   9.121
 2003TP3     H117828   3.703   5.305   9.148
 2003TP3     H217829   3.775   5.175   9.119
 2004TP3      O17830   3.251   5.478   9.233
 2004TP3     H117831   3.294   5.419   9.171
 2004TP3     H217832   3.244   5.426   9.314
 2005TP3      O17833   3.344   4.706   9.116
 2005TP3     H117834   3.314   4.686   9.028
 2005TP3     H217835   3.362   4.800   9.114
 2006TP3      O17836   2.905   4.074   9.189
 2006TP3     H117837   2.850   4.060   9.267
 2006TP3     H217838   2.867   4.015   9.123
 2007TP3      O17839   2.571   4.155   9.063
 2007TP3     H117840   2.523   4.121   9.139
 2007TP3     H217841   2.513   4.220   9.025
 2008TP3      O17842   1.957   4.169   9.305
 2008TP3     H117843   2.035   4.203   9.261
 2008TP3     H217844   1.903   4.247   9.322
 2009TP3      O17845   2.472   4.444   9.245
 2009TP3     H117846   2.409   4.410   9.182
 2009TP3     H217847   2.548   4.467   9.193
 2010TP3      O17848   2.724   4.912   9.404
 2010TP3     H117849   2.686   4.846   9.346
 2010TP3     H217850   2.725   4.871   9.490
 2011TP3      O17851   3.145   4.213   9.164
 2011TP3     H117852   3.062   4.172   9.189
 2011TP3     H217853   3.179   4.249   9.246
 2012TP3      O17854   3.290   4.372   9.346
 2012TP3     H117855   3.341   4.371   9.427
 2012TP3     H217856   3.244   4.456   9.348
 2013TP3      O17857   2.944   5.048   9.305
 2013TP3     H117858   2.921   5.140   9.316
 2013TP3     H217859   2.872   5.000   9.347
 2014TP3      O17860   3.705   4.397   9.333
 2014TP3     H117861   3.638   4.404   9.265
 2014TP3     H217862   3.744   4.484   9.337
 2015TP3      O17863   3.525   5.186   9.344
 2015TP3     H117864   3.582   5.197   9.420
 2015TP3     H217865   3.582   5.200   9.269
 2016TP3      O17866   2.129   4.636   9.184
 2016TP3     H117867   2.166   4.714   9.225
 2016TP3     H217868   2.036   4.637   9.210
 2017TP3      O17869   3.298   5.056   9.182
 2017TP3     H117870   3.270   5.096   9.264
 2017TP3     H217871   3.216   5.039   9.135
 2018TP3      O17872   3.738   5.453   9.234
 2018TP3     H117873   3.777   5.531   9.195
 2018TP3     H217874   3.662   5.485   9.282
 2019TP3      O17875   2.679   5.147   9.034
 2019TP3     H117876   2.681   5.066   8.982
 2019TP3     H217877   2.642   5.120   9.118
 2020TP3      O17878   2.565   5.128   9.287
 2020TP3     H117879   2.619   5.079   9.349
 2020TP3     H217880   2.575   5.219   9.315
 2021TP3      O17881   2.190   4.868   9.320
 2021TP3     H117882   2.257   4.856   9.388
 2021TP3     H217883   2.220   4.943   9.269
 2022TP3      O17884   2.853   5.311   9.300
 2022TP3     H117885   2.766   5.346   9.317
 2022TP3     H217886   2.869   5.332   9.208
 2023TP3      O17887   2.589   5.400   9.344
 2023TP3     H117888   2.578   5.470   9.280
 2023TP3     H217889   2.535   5.426   9.419
 2024TP3      O17890   2.453   4.016   9.280
 2024TP3     H117891   2.478   4.085   9.342
 2024TP3     H217892   2.523   3.951   9.287
 2025TP3      O17893   2.308   5.074   9.186
 2025TP3     H117894   2.381   5.116   9.232
 2025TP3     H217895   2.350   5.025   9.115
 2026TP3      O17896   2.117   4.361   9.171
 2026TP3     H117897   2.134   4.455   9.178
 2026TP3     H217898   2.079   4.350   9.084
 2027TP3      O17899   2.886   5.321   9.027
 2027TP3     H117900   2.819   5.253   9.022
 2027TP3     H217901   2.966   5.277   8.997
 2028TP3      O17902   3.359   5.312   9.038
 2028TP3     H117903   3.383   5.231   9.084
 2028TP3     H217904   3.432   5.328   8.978
 2029TP3      O17905   2.444   4.901   9.025
 2029TP3     H117906   2.471   4.849   9.100
 2029TP3     H217907   2.523   4.907   8.971
 2030TP3      O17908   3.060   5.010   9.065
 2030TP3     H117909   3.009   5.014   9.146
 2030TP3     H217910   3.045   4.922   9.031
 2031TP3      O17911   2.539   4.742   9.244
 2031TP3     H117912   2.474   4.677   9.269
 2031TP3     H217913   2.603   4.692   9.192
 2032TP3      O17914   2.688   4.557   9.116
 2032TP3     H117915   2.683   4.575   9.022
 2032TP3     H217916   2.781   4.543   9.133
 2033TP3      O17917   3.659   4.751   9.038
 2033TP3     H117918   3.623   4.733   8.951
 2033TP3     H217919   3.618   4.834   9.064
 2034TP3      O17920   2.043   5.102   9.118
 2034TP3     H117921   2.133   5.101   9.152
 2034TP3     H217922   2.035   5.021   9.068
 2035TP3      O17923   3.752   4.661   9.274
 2035TP3     H117924   3.717   4.687   9.189
 2035TP3     H217925   3.725   4.732   9.334
 2036TP3      O17926   3.500   4.440   9.148
 2036TP3     H117927   3.480   4.533   9.140
 2036TP3     H217928   3.427   4.404   9.199
 2037TP3      O17929   3.496   4.123   8.998
 2037TP3     H117930   3.525   4.062   9.065
 2037TP3     H217931   3.408   4.093   8.974
 2038TP3      O17932   3.663   4.001   9.195
 2038TP3     H117933   3.705   3.941   9.133
 2038TP3     H217934   3.735   4.055   9.228
 2039TP3      O17935   2.045   3.831   9.249
 2039TP3     H117936   2.104   3.880   9.193
 2039TP3     H217937   2.057   3.870   9.336
 2040TP3      O17938   2.126   5.419   9.347
 2040TP3     H117939   2.044   5.370   9.350
 2040TP3     H217940   2.100   5.510   9.332
 2041TP3      O17941   2.242   3.976   9.113
 2041TP3     H117942   2.287   3.920   9.051
 2041TP3     H217943   2.308   3.998   9.179
 2042TP3      O17944   2.742   4.030   9.408
 2042TP3     H117945   2.720   3.956   9.464
 2042TP3     H217946   2.675   4.096   9.428
 2043TP3      O17947   2.208   5.409   9.080
 2043TP3     H117948   2.184   5.405   9.173
 2043TP3     H217949   2.298   5.377   9.077
 2044TP3      O17950   4.851   4.549   9.128
 2044TP3     H117951   4.901   4.575   9.205
 2044TP3     H217952   4.911   4.493   9.079
 2045TP3      O17953   5.040   4.620   9.314
 2045TP3     H117954   5.063   4.680   9.385
 2045TP3     H217955   5.095   4.648   9.241
 2046TP3      O17956   5.432   3.783   9.380
 2046TP3     H117957   5.360   3.814   9.324
 2046TP3     H217958   5.511   3.820   9.341
 2047TP3      O17959   5.157   5.521   9.229
 2047TP3     H117960   5.181   5.440   9.184
 2047TP3     H217961   5.132   5.492   9.317
 2048TP3      O17962   5.202   4.707   9.121
 2048TP3     H117963   5.177   4.715   9.029
 2048TP3     H217964   5.298   4.717   9.121
 2049TP3      O17965   4.781   4.067   9.181
 2049TP3     H117966   4.732   4.058   9.262
 2049TP3     H217967   4.735   4.009   9.119
 2050TP3      O17968   4.458   4.154   9.062
 2050TP3     H117969   4.410   4.120   9.138
 2050TP3     H217970   4.398   4.218   9.024
 2051TP3      O17971   3.857   4.170   9.291
 2051TP3     H117972   3.930   4.209   9.242
 2051TP3     H217973   3.806   4.244   9.322
 2052TP3      O17974   4.357   4.460   9.224
 2052TP3     H117975   4.298   4.418   9.162
 2052TP3     H217976   4.437   4.477   9.175
 2053TP3      O17977   4.625   4.904   9.407
 2053TP3     H117978   4.579   4.838   9.355
 2053TP3     H217979   4.626   4.868   9.496
 2054TP3      O17980   5.018   4.202   9.166
 2054TP3     H117981   4.933   4.160   9.178
 2054TP3     H217982   5.035   4.247   9.248
 2055TP3      O17983   5.071   4.360   9.385
 2055TP3     H117984   5.126   4.363   9.463
 2055TP3     H217985   5.063   4.451   9.357
 2056TP3      O17986   4.830   5.050   9.296
 2056TP3     H117987   4.804   5.141   9.310
 2056TP3     H217988   4.764   4.998   9.342
 2057TP3      O17989   5.481   5.218   9.355
 2057TP3     H117990   5.518   5.165   9.426
 2057TP3     H217991   5.535   5.196   9.279
 2058TP3      O17992   4.004   4.643   9.174
 2058TP3     H117993   4.047   4.718   9.214
 2058TP3     H217994   3.915   4.644   9.209
 2059TP3      O17995   5.192   5.065   9.201
 2059TP3     H117996   5.165   5.076   9.292
 2059TP3     H217997   5.113   5.036   9.156
 2060TP3      O17998   4.570   5.144   9.043
 2060TP3     H117999   4.571   5.059   8.999
 2060TP3     H218000   4.533   5.125   9.129
 2061TP3      O18001   4.451   5.135   9.291
 2061TP3     H118002   4.492   5.087   9.363
 2061TP3     H218003   4.458   5.227   9.317
 2062TP3      O18004   4.083   4.863   9.314
 2062TP3     H118005   4.144   4.851   9.387
 2062TP3     H218006   4.115   4.942   9.269
 2063TP3      O18007   4.735   5.313   9.297
 2063TP3     H118008   4.648   5.349   9.315
 2063TP3     H218009   4.752   5.335   9.206
 2064TP3      O18010   4.472   5.406   9.342
 2064TP3     H118011   4.461   5.477   9.278
 2064TP3     H218012   4.417   5.432   9.416
 2065TP3      O18013   4.341   4.022   9.279
 2065TP3     H118014   4.361   4.089   9.343
 2065TP3     H218015   4.412   3.958   9.287
 2066TP3      O18016   4.196   5.078   9.190
 2066TP3     H118017   4.270   5.119   9.235
 2066TP3     H218018   4.237   5.025   9.121
 2067TP3      O18019   4.005   4.368   9.152
 2067TP3     H118020   4.013   4.461   9.169
 2067TP3     H218021   4.015   4.360   9.057
 2068TP3      O18022   4.768   5.325   9.023
 2068TP3     H118023   4.703   5.255   9.025
 2068TP3     H218024   4.848   5.281   8.994
 2069TP3      O18025   5.216   5.313   9.064
 2069TP3     H118026   5.241   5.233   9.109
 2069TP3     H218027   5.287   5.328   9.001
 2070TP3      O18028   4.325   4.895   9.036
 2070TP3     H118029   4.349   4.841   9.111
 2070TP3     H218030   4.406   4.901   8.985
 2071TP3      O18031   4.962   5.000   9.068
 2071TP3     H118032   4.907   5.010   9.146
 2071TP3     H218033   4.932   4.919   9.028
 2072TP3      O18034   4.425   4.736   9.248
 2072TP3     H118035   4.365   4.663   9.265
 2072TP3     H218036   4.494   4.697   9.193
 2073TP3      O18037   4.583   4.570   9.102
 2073TP3     H118038   4.576   4.591   9.009
 2073TP3     H218039   4.677   4.555   9.117
 2074TP3      O18040   5.472   4.759   9.094
 2074TP3     H118041   5.473   4.731   9.003
 2074TP3     H218042   5.457   4.853   9.090
 2075TP3      O18043   3.933   5.100   9.125
 2075TP3     H118044   4.022   5.102   9.157
 2075TP3     H218045   3.927   5.019   9.074
 2076TP3      O18046   5.472   4.394   9.074
 2076TP3     H118047   5.426   4.441   9.005
 2076TP3     H218048   5.443   4.303   9.065
 2077TP3      O18049   5.399   4.137   9.012
 2077TP3     H118050   5.423   4.089   9.092
 2077TP3     H218051   5.311   4.106   8.992
 2078TP3      O18052   3.941   3.829   9.252
 2078TP3     H118053   3.994   3.883   9.193
 2078TP3     H218054   3.954   3.868   9.338
 2079TP3      O18055   4.010   5.424   9.344
 2079TP3     H118056   3.925   5.379   9.345
 2079TP3     H218057   3.987   5.516   9.331
 2080TP3      O18058   4.129   3.983   9.110
 2080TP3     H118059   4.175   3.925   9.049
 2080TP3     H218060   4.195   4.004   9.177
 2081TP3      O18061   4.627   4.031   9.407
 2081TP3     H118062   4.607   3.957   9.465
 2081TP3     H218063   4.561   4.097   9.429
 2082TP3      O18064   4.094   5.404   9.078
 2082TP3     H118065   4.068   5.405   9.171
 2082TP3     H218066   4.185   5.373   9.079
 2083TP3      O18067   1.210   0.998  10.065
 2083TP3     H118068   1.199   1.093  10.060
 2083TP3     H218069   1.142   0.963  10.007
 2084TP3      O18070   1.081   0.926   0.145
 2084TP3     H118071   1.112   0.881   0.223
 2084TP3     H218072   1.038   0.858   0.093
 2085TP3      O18073   0.312   0.865   0.285
 2085TP3     H118074   0.322   0.785   0.337
 2085TP3     H218075   0.398   0.878   0.244
 2086TP3      O18076   1.472   1.234  -0.027
 2086TP3     H118077   1.438   1.155   0.016
 2086TP3     H218078   1.492   1.294   0.045
 2087TP3      O18079   0.451   1.335   0.084
 2087TP3     H118080   0.423   1.248   0.057
 2087TP3     H218081   0.546   1.327   0.094
 2088TP3      O18082   0.050   0.651   9.940
 2088TP3     H118083   0.022   0.731   9.986
 2088TP3     H218084   0.055   0.585  10.009
 2089TP3      O18085   0.164   0.912  10.246
 2089TP3     H118086   0.201   0.823  10.246
 2089TP3     H218087   0.236   0.967  10.218
 2090TP3      O18088   1.196   1.702  10.314
 2090TP3     H118089   1.225   1.653  10.237
 2090TP3     H218090   1.188   1.636  10.383
 2091TP3      O18091   0.928   1.173   0.157
 2091TP3     H118092   0.965   1.091   0.124
 2091TP3     H218093   0.997   1.209   0.214
 2092TP3      O18094   1.821   0.317   0.241
 2092TP3     H118095   1.829   0.389   0.304
 2092TP3     H218096   1.883   0.339   0.172
 2093TP3      O18097   1.242   0.598   0.161
 2093TP3     H118098   1.261   0.505   0.176
 2093TP3     H218099   1.227   0.604   0.067
 2094TP3      O18100   0.605   0.411  10.217
 2094TP3     H118101   0.607   0.497  10.175
 2094TP3     H218102   0.559   0.355  10.154
 2095TP3      O18103   1.375   0.444  10.057
 2095TP3     H118104   1.414   0.410  10.138
 2095TP3     H218105   1.449   0.480  10.008
 2096TP3      O18106   0.264   0.656  10.273
 2096TP3     H118107   0.321   0.602  10.328
 2096TP3     H218108   0.276   0.621  10.185
 2097TP3      O18109   0.708   0.803  10.268
 2097TP3     H118110   0.794   0.769  10.292
 2097TP3     H218111   0.673   0.738  10.206
 2098TP3      O18112   1.839   0.504   0.435
 2098TP3     H118113   1.755   0.549   0.442
 2098TP3     H218114   1.871   0.498   0.525
 2099TP3      O18115   0.450   0.333   0.331
 2099TP3     H118116   0.420   0.380   0.253
 2099TP3     H218117   0.378   0.344   0.394
 2100TP3      O18118   1.176   1.257   9.984
 2100TP3     H118119   1.159   1.255   9.890
 2100TP3     H218120   1.123   1.329  10.016
 2101TP3      O18121   0.707   1.088   0.299
 2101TP3     H118122   0.658   1.160   0.337
 2101TP3     H218123   0.779   1.130   0.252
 2102TP3      O18124   1.469   0.387  -0.013
 2102TP3     H118125   1.407   0.355   0.052
 2102TP3     H218126   1.529   0.443   0.036
 2103TP3      O18127   0.432   0.490   0.102
 2103TP3     H118128   0.492   0.543   0.154
 2103TP3     H218129   0.487   0.446   0.038
 2104TP3      O18130   0.559   1.297   0.414
 2104TP3     H118131   0.563   1.391   0.398
 2104TP3     H218132   0.468   1.281   0.441
 2105TP3      O18133   0.129   1.265   9.799
 2105TP3     H118134   0.128   1.303   9.711
 2105TP3     H218135   0.156   1.337   9.856
 2106TP3      O18136   1.503   1.437   0.173
 2106TP3     H118137   1.408   1.442   0.183
 2106TP3     H218138   1.529   1.526   0.146
 2107TP3      O18139   1.576   0.237   0.347
 2107TP3     H118140   1.503   0.258   0.289
 2107TP3     H218141   1.654   0.260   0.296
 2108TP3      O18142   0.813   0.072   0.055
 2108TP3     H118143   0.797  -0.022   0.064
 2108TP3     H218144   0.741   0.114   0.102
 2109TP3      O18145   1.315   1.592  10.085
 2109TP3     H118146   1.354   1.506  10.074
 2109TP3     H218147   1.389   1.652  10.093
 2110TP3      O18148   1.429   1.350  10.046
 2110TP3     H118149   1.352   1.301  10.017
 2110TP3     H218150   1.458   1.306  10.125
 2111TP3      O18151   1.624   1.216   0.520
 2111TP3     H118152   1.612   1.158   0.445
 2111TP3     H218153   1.640   1.302   0.482
 2112TP3      O18154   1.065   0.921   9.840
 2112TP3     H118155   0.998   0.985   9.813
 2112TP3     H218156   1.129   0.922   9.769
 2113TP3      O18157   1.079   0.751   9.539
 2113TP3     H118158   1.147   0.796   9.589
 2113TP3     H218159   1.124   0.680   9.495
 2114TP3      O18160   1.786   0.886   0.356
 2114TP3     H118161   1.713   0.946   0.341
 2114TP3     H218162   1.844   0.899   0.282
 2115TP3      O18163   1.426   0.948   9.909
 2115TP3     H118164   1.356   0.967   9.972
 2115TP3     H218165   1.492   0.902   9.959
 2116TP3      O18166   1.374   0.754   0.549
 2116TP3     H118167   1.366   0.825   0.613
 2116TP3     H218168   1.311   0.777   0.481
 2117TP3      O18169   0.584   0.994  10.103
 2117TP3     H118170   0.560   0.953  10.020
 2117TP3     H218171   0.633   0.926  10.150
 2118TP3      O18172   0.732   1.357   0.053
 2118TP3     H118173   0.730   1.356  -0.043
 2118TP3     H218174   0.802   1.296   0.076
 2119TP3      O18175   0.564   0.897   0.165
 2119TP3     H118176   0.618   0.870   0.092
 2119TP3     H218177   0.617   0.961   0.212
 2120TP3      O18178   1.237   1.457   0.229
 2120TP3     H118179   1.229   1.518   0.302
 2120TP3     H218180   1.201   1.375   0.262
 2121TP3      O18181   0.720   1.327   0.637
 2121TP3     H118182   0.657   1.384   0.681
 2121TP3     H218183   0.674   1.296   0.559
 2122TP3      O18184   1.294   0.883   9.678
 2122TP3     H118185   1.341   0.912   9.756
 2122TP3     H218186   1.338   0.929   9.606
 2123TP3      O18187   0.420   0.941   0.568
 2123TP3     H118188   0.410   1.009   0.635
 2123TP3     H218189   0.356   0.965   0.501
 2124TP3      O18190   1.054   1.501  10.026
 2124TP3     H118191   1.136   1.547  10.044
 2124TP3     H218192   1.031   1.527   9.937
 2125TP3      O18193   0.521   1.512   0.699
 2125TP3     H118194   0.530   1.540   0.608
 2125TP3     H218195   0.426   1.510   0.714
 2126TP3      O18196   1.673   0.101   9.668
 2126TP3     H118197   1.585   0.112   9.703
 2126TP3     H218198   1.692   0.184   9.624
 2127TP3      O18199   0.506   0.905   9.846
 2127TP3     H118200   0.441   0.968   9.815
 2127TP3     H218201   0.477   0.821   9.810
 2128TP3      O18202   1.814   1.479   9.550
 2128TP3     H118203   1.836   1.572   9.551
 2128TP3     H218204   1.898   1.434   9.543
 2129TP3      O18205   0.153   1.097   0.448
 2129TP3     H118206   0.110   1.087   0.363
 2129TP3     H218207   0.126   1.019   0.497
 2130TP3      O18208   0.064   1.478   0.127
 2130TP3     H118209   0.077   1.385   0.110
 2130TP3     H218210   0.109   1.493   0.210
 2131TP3      O18211   1.875   1.514   0.724
 2131TP3     H118212   1.866   1.420   0.711
 2131TP3     H218213   1.790   1.542   0.758
 2132TP3      O18214   0.956   1.453   0.582
 2132TP3     H118215   0.953   1.535   0.630
 2132TP3     H218216   0.874   1.409   0.604
 2133TP3      O18217   1.029   1.815   9.883
 2133TP3     H118218   1.021   1.816   9.788
 2133TP3     H218219   1.019   1.907   9.909
 2134TP3      O18220   0.392   1.658  10.075
 2134TP3     H118221   0.404   1.629  10.165
 2134TP3     H218222   0.325   1.599  10.040
 2135TP3      O18223   1.337   1.789   9.579
 2135TP3     H118224   1.367   1.706   9.541
 2135TP3     H218225   1.333   1.771   9.673
 2136TP3      O18226   1.296   1.758   9.851
 2136TP3     H118227   1.202   1.767   9.868
 2136TP3     H218228   1.324   1.692   9.914
 2137TP3      O18229   1.582   0.644   0.708
 2137TP3     H118230   1.502   0.676   0.666
 2137TP3     H218231   1.587   0.552   0.682
 2138TP3      O18232   0.303   1.301   0.543
 2138TP3     H118233   0.345   1.254   0.615
 2138TP3     H218234   0.242   1.238   0.505
 2139TP3      O18235   0.579   0.141   0.186
 2139TP3     H118236   0.519   0.137   0.112
 2139TP3     H218237   0.538   0.202   0.247
 2140TP3      O18238   1.040   0.072   0.508
 2140TP3     H118239   1.040   0.035   0.596
 2140TP3     H218240   0.949   0.096   0.492
 2141TP3      O18241   1.313   0.481   0.550
 2141TP3     H118242   1.256   0.466   0.626
 2141TP3     H218243   1.328   0.575   0.550
 2142TP3      O18244   1.432   1.000   9.473
 2142TP3     H118245   1.437   1.043   9.387
 2142TP3     H218246   1.510   1.031   9.520
 2143TP3      O18247   1.021   0.256   9.554
 2143TP3     H118248   0.969   0.270   9.633
 2143TP3     H218249   1.112   0.253   9.585
 2144TP3      O18250   0.581   0.644   0.274
 2144TP3     H118251   0.513   0.642   0.341
 2144TP3     H218252   0.579   0.734   0.241
 2145TP3      O18253   0.585   0.647  10.079
 2145TP3     H118254   0.490   0.639  10.070
 2145TP3     H218255   0.619   0.626   9.993
 2146TP3      O18256   1.124   0.675   9.947
 2146TP3     H118257   1.098   0.760   9.912
 2146TP3     H218258   1.197   0.648   9.891
 2147TP3      O18259   1.045   0.695   0.758
 2147TP3     H118260   0.990   0.625   0.793
 2147TP3     H218261   1.129   0.685   0.802
 2148TP3      O18262   1.215   0.615  10.207
 2148TP3     H118263   1.172   0.662  10.135
 2148TP3     H218264   1.262   0.544  10.164
 2149TP3      O18265   0.366   0.644   0.447
 2149TP3     H118266   0.412   0.671   0.527
 2149TP3     H218267   0.329   0.559   0.469
 2150TP3      O18268   0.685   0.495   9.452
 2150TP3     H118269   0.612   0.455   9.498
 2150TP3     H218270   0.646   0.534   9.374
 2151TP3      O18271   0.051   0.445  10.110
 2151TP3     H118272   0.087   0.422  10.195
 2151TP3     H218273   0.018   0.362  10.074
 2152TP3      O18274   0.158   0.470   9.714
 2152TP3     H118275   0.214   0.499   9.642
 2152TP3     H218276   0.113   0.549   9.743
 2153TP3      O18277   1.167   0.766   0.357
 2153TP3     H118278   1.203   0.709   0.289
 2153TP3     H218279   1.105   0.711   0.404
 2154TP3      O18280   0.884   0.397  10.175
 2154TP3     H118281   0.793   0.393  10.207
 2154TP3     H218282   0.935   0.360  10.247
 2155TP3      O18283   0.330   0.565  10.023
 2155TP3     H118284   0.255   0.570   9.963
 2155TP3     H218285   0.365   0.478  10.010
 2156TP3      O18286   0.648   0.575   9.825
 2156TP3     H118287   0.743   0.573   9.831
 2156TP3     H218288   0.630   0.627   9.747
 2157TP3      O18289   1.267   0.320   0.169
 2157TP3     H118290   1.227   0.318   0.256
 2157TP3     H218291   1.198   0.292   0.109
 2158TP3      O18292   0.536   0.706   9.608
 2158TP3     H118293   0.451   0.680   9.573
 2158TP3     H218294   0.595   0.700   9.534
 2159TP3      O18295   1.618   1.877   0.824
 2159TP3     H118296   1.643   1.909   0.737
 2159TP3     H218297   1.692   1.900   0.880
 2160TP3      O18298   0.395   1.150   0.756
 2160TP3     H118299   0.459   1.134   0.826
 2160TP3     H218300   0.311   1.155   0.801
 2161TP3      O18301   0.946   0.690   0.044
 2161TP3     H118302   1.011   0.637  -0.002
 2161TP3     H218303   0.917   0.635   0.117
 2162TP3      O18304   0.454   0.320  10.000
 2162TP3     H118305   0.392   0.249  10.023
 2162TP3     H218306   0.493   0.291   9.918
 2163TP3      O18307   0.842   0.558   0.268
 2163TP3     H118308   0.756   0.599   0.277
 2163TP3     H218309   0.889   0.584   0.347
 2164TP3      O18310   0.880   1.117   9.761
 2164TP3     H118311   0.810   1.069   9.717
 2164TP3     H218312   0.843   1.143   9.845
 2165TP3      O18313   1.589   1.068   0.293
 2165TP3     H118314   1.651   1.120   0.242
 2165TP3     H218315   1.519   1.047   0.232
 2166TP3      O18316   1.276   0.388   9.649
 2166TP3     H118317   1.277   0.408   9.556
 2166TP3     H218318   1.300   0.471   9.692
 2167TP3      O18319   1.036   1.163   0.579
 2167TP3     H118320   1.063   1.121   0.661
 2167TP3     H218321   1.006   1.250   0.605
 2168TP3      O18322   1.341   0.621   9.777
 2168TP3     H118323   1.429   0.611   9.815
 2168TP3     H218324   1.344   0.707   9.734
 2169TP3      O18325   0.420   1.074  10.309
 2169TP3     H118326   0.474   1.057  10.232
 2169TP3     H218327   0.451   1.011  10.375
 2170TP3      O18328   1.104   1.270   9.719
 2170TP3     H118329   1.065   1.357   9.726
 2170TP3     H218330   1.029   1.210   9.720
 2171TP3      O18331   0.102   0.861   0.588
 2171TP3     H118332   0.150   0.857   0.671
 2171TP3     H218333   0.119   0.777   0.546
 2172TP3      O18334   0.831   0.879   0.773
 2172TP3     H118335   0.769   0.840   0.712
 2172TP3     H218336   0.913   0.830   0.759
 2173TP3      O18337   1.242   1.432   0.587
 2173TP3     H118338   1.150   1.437   0.561
 2173TP3     H218339   1.241   1.443   0.682
 2174TP3      O18340   1.782   0.661   9.709
 2174TP3     H118341   1.720   0.628   9.644
 2174TP3     H218342   1.799   0.751   9.682
 2175TP3      O18343   1.849   1.244   0.681
 2175TP3     H118344   1.757   1.237   0.655
 2175TP3     H218345   1.898   1.215   0.604
 2176TP3      O18346   1.657   1.508   9.782
 2176TP3     H118347   1.606   1.432   9.810
 2176TP3     H218348   1.700   1.480   9.701
 2177TP3      O18349   1.382   1.000   0.109
 2177TP3     H118350   1.287   0.990   0.104
 2177TP3     H218351   1.416   0.922   0.065
 2178TP3      O18352   0.659   1.419  10.098
 2178TP3     H118353   0.685   1.500  10.054
 2178TP3     H218354   0.565   1.414  10.085
 2179TP3      O18355   0.215   0.909   9.564
 2179TP3     H118356   0.256   0.968   9.627
 2179TP3     H218357   0.127   0.944   9.550
 2180TP3      O18358   0.751   1.183   9.986
 2180TP3     H118359   0.732   1.267  10.028
 2180TP3     H218360   0.695   1.120  10.032
 2181TP3      O18361   0.844   1.598   0.363
 2181TP3     H118362   0.906   1.667   0.344
 2181TP3     H218363   0.892   1.537   0.419
 2182TP3      O18364   0.639   1.694   9.967
 2182TP3     H118365   0.548   1.682   9.994
 2182TP3     H218366   0.664   1.779  10.002
 2183TP3      O18367   1.144   1.213   0.331
 2183TP3     H118368   1.107   1.193   0.418
 2183TP3     H218369   1.208   1.144   0.316
 2184TP3      O18370   1.356   1.316   9.601
 2184TP3     H118371   1.418   1.261   9.650
 2184TP3     H218372   1.270   1.293   9.636
 2185TP3      O18373   1.455   1.617   0.558
 2185TP3     H118374   1.375   1.565   0.551
 2185TP3     H218375   1.444   1.688   0.495
 2186TP3      O18376   1.866   1.748   9.576
 2186TP3     H118377   1.932   1.817   9.590
 2186TP3     H218378   1.782   1.793   9.588
 2187TP3      O18379   0.261   0.398   0.526
 2187TP3     H118380   0.183   0.436   0.565
 2187TP3     H218381   0.276   0.318   0.576
 2188TP3      O18382   1.531   1.148   9.744
 2188TP3     H118383   1.487   1.091   9.807
 2188TP3     H218384   1.623   1.143   9.768
 2189TP3      O18385   0.224   1.553   0.350
 2189TP3     H118386   0.255   1.472   0.390
 2189TP3     H218387   0.223   1.616   0.422
 2190TP3      O18388   0.664   1.392   9.675
 2190TP3     H118389   0.733   1.339   9.715
 2190TP3     H218390   0.694   1.482   9.683
 2191TP3      O18391   0.331   1.090   9.735
 2191TP3     H118392   0.258   1.134   9.779
 2191TP3     H218393   0.377   1.161   9.690
 2192TP3      O18394   1.146   0.318   0.410
 2192TP3     H118395   1.210   0.363   0.465
 2192TP3     H218396   1.118   0.242   0.462
 2193TP3      O18397   1.199   0.305   9.900
 2193TP3     H118398   1.218   0.335   9.811
 2193TP3     H218399   1.259   0.354   9.956
 2194TP3      O18400   0.989   1.518   9.748
 2194TP3     H118401   0.907   1.566   9.743
 2194TP3     H218402   1.036   1.542   9.668
 2195TP3      O18403   0.902   0.518   9.926
 2195TP3     H118404   0.981   0.572   9.930
 2195TP3     H218405   0.892   0.484  10.015
 2196TP3      O18406   1.004   0.594   0.494
 2196TP3     H118407   1.014   0.623   0.585
 2196TP3     H218408   1.036   0.504   0.495
 2197TP3      O18409   0.980   0.199  10.007
 2197TP3     H118410   0.958   0.271  10.066
 2197TP3     H218411   1.064   0.224   9.968
 2198TP3      O18412   0.751   1.652   9.718
 2198TP3     H118413   0.735   1.731   9.667
 2198TP3     H218414   0.709   1.669   9.803
 2199TP3      O18415   0.590   0.318   9.741
 2199TP3     H118416   0.591   0.409   9.773
 2199TP3     H218417   0.682   0.292   9.740
 2200TP3      O18418   1.570   0.400   0.585
 2200TP3     H118419   1.477   0.415   0.570
 2200TP3     H218420   1.596   0.339   0.517
 2201TP3      O18421   1.457   0.756  -0.012
 2201TP3     H118422   1.374   0.711  -0.030
 2201TP3     H218423   1.505   0.694   0.043
 2202TP3      O18424   0.417   1.315   9.583
 2202TP3     H118425   0.493   1.359   9.622
 2202TP3     H218426   0.455   1.250   9.523
 2203TP3      O18427   0.273   0.649   9.520
 2203TP3     H118428   0.255   0.742   9.536
 2203TP3     H218429   0.207   0.623   9.456
 2204TP3      O18430   1.588   1.704   0.156
 2204TP3     H118431   1.576   1.777   0.095
 2204TP3     H218432   1.683   1.701   0.171
 2205TP3      O18433   0.357   0.160  10.327
 2205TP3     H118434   0.337   0.148  10.234
 2205TP3     H218435   0.313   0.087  10.370
 2206TP3      O18436   0.192   1.507   9.952
 2206TP3     H118437   0.102   1.517   9.982
 2206TP3     H218438   0.196   1.557   9.870
 2207TP3      O18439   0.161   1.780   0.835
 2207TP3     H118440   0.222   1.774   0.909
 2207TP3     H218441   0.165   1.694   0.794
 2208TP3      O18442   0.587   1.605   0.949
 2208TP3     H118443   0.665   1.558   0.976
 2208TP3     H218444   0.570   1.575   0.860
 2209TP3      O18445   1.109   1.579   9.513
 2209TP3     H118446   1.057   1.552   9.437
 2209TP3     H218447   1.200   1.566   9.486
 2210TP3      O18448   1.233   1.465   0.857
 2210TP3     H118449   1.220   1.382   0.903
 2210TP3     H218450   1.310   1.504   0.899
 2211TP3      O18451   1.387   1.541   9.454
 2211TP3     H118452   1.375   1.466   9.511
 2211TP3     H218453   1.471   1.526   9.411
 2212TP3      O18454   0.149   1.162   0.872
 2212TP3     H118455   0.144   1.067   0.867
 2212TP3     H218456   0.058   1.191   0.874
 2213TP3      O18457   0.519   1.100   9.454
 2213TP3     H118458   0.572   1.062   9.525
 2213TP3     H218459   0.568   1.080   9.374
 2214TP3      O18460   0.795   1.152   0.839
 2214TP3     H118461   0.778   1.196   0.756
 2214TP3     H218462   0.821   1.064   0.815
 2215TP3      O18463   1.365   1.177   0.606
 2215TP3     H118464   1.455   1.194   0.582
 2215TP3     H218465   1.319   1.259   0.589
 2216TP3      O18466   0.220   0.845   0.833
 2216TP3     H118467   0.268   0.762   0.834
 2216TP3     H218468   0.215   0.871   0.925
 2217TP3      O18469   0.687   0.974   9.633
 2217TP3     H118470   0.633   0.937   9.703
 2217TP3     H218471   0.723   0.898   9.588
 2218TP3      O18472   0.616   0.756   0.579
 2218TP3     H118473   0.550   0.825   0.580
 2218TP3     H218474   0.683   0.789   0.520
 2219TP3      O18475   0.809   0.779   9.484
 2219TP3     H118476   0.796   0.700   9.431
 2219TP3     H218477   0.902   0.777   9.507
 2220TP3      O18478   1.141   1.010   0.879
 2220TP3     H118479   1.219   0.976   0.835
 2220TP3     H218480   1.112   0.938   0.934
 2221TP3      O18481   1.718   1.085   9.411
 2221TP3     H118482   1.698   1.078   9.317
 2221TP3     H218483   1.720   1.179   9.427
 2222TP3      O18484   0.663   0.505   0.669
 2222TP3     H118485   0.677   0.448   0.593
 2222TP3     H218486   0.651   0.592   0.632
 2223TP3      O18487   0.703   0.366   0.431
 2223TP3     H118488   0.754   0.411   0.363
 2223TP3     H218489   0.615   0.360   0.394
 2224TP3      O18490   0.809   0.870   0.433
 2224TP3     H118491   0.905   0.880   0.434
 2224TP3     H218492   0.778   0.949   0.389
 2225TP3      O18493   1.270   0.615   0.938
 2225TP3     H118494   1.272   0.520   0.926
 2225TP3     H218495   1.357   0.637   0.972
 2226TP3      O18496   1.396   0.954   0.755
 2226TP3     H118497   1.377   1.034   0.706
 2226TP3     H218498   1.492   0.946   0.749
 2227TP3      O18499   0.504   0.563   0.891
 2227TP3     H118500   0.417   0.525   0.879
 2227TP3     H218501   0.549   0.544   0.809
 2228TP3      O18502   0.768   0.103   0.461
 2228TP3     H118503   0.755   0.198   0.466
 2228TP3     H218504   0.709   0.075   0.391
 2229TP3      O18505   0.887   0.488   0.831
 2229TP3     H118506   0.859   0.452   0.915
 2229TP3     H218507   0.809   0.487   0.776
 2230TP3      O18508   1.135   0.403   0.736
 2230TP3     H118509   1.049   0.415   0.775
 2230TP3     H218510   1.187   0.361   0.804
 2231TP3      O18511   1.302   0.314   0.936
 2231TP3     H118512   1.302   0.221   0.916
 2231TP3     H218513   1.291   0.318   1.031
 2232TP3      O18514   0.270   0.405   0.855
 2232TP3     H118515   0.283   0.327   0.801
 2232TP3     H218516   0.291   0.375   0.944
 2233TP3      O18517   0.763   0.030   0.736
 2233TP3     H118518   0.850  -0.009   0.742
 2233TP3     H218519   0.751   0.050   0.644
 2234TP3      O18520   0.852   0.190   0.943
 2234TP3     H118521   0.816   0.130   0.878
 2234TP3     H218522   0.782   0.252   0.960
 2235TP3      O18523   0.800   1.901   9.535
 2235TP3     H118524   0.889   1.878   9.563
 2235TP3     H218525   0.796   1.875   9.443
 2236TP3      O18526   0.149   1.337   9.526
 2236TP3     H118527   0.241   1.350   9.546
 2236TP3     H218528   0.148   1.268   9.460
 2237TP3      O18529   0.062   1.855  10.048
 2237TP3     H118530   0.019   1.816   9.972
 2237TP3     H218531   0.066   1.784  10.113
 2238TP3      O18532   0.070   1.671  10.244
 2238TP3     H118533   0.048   1.583  10.276
 2238TP3     H218534   0.132   1.705  10.309
 2239TP3      O18535   1.852   1.716   0.223
 2239TP3     H118536   1.858   1.719   0.319
 2239TP3     H218537   1.937   1.751   0.194
 2240TP3      O18538   1.799   1.678   0.501
 2240TP3     H118539   1.748   1.608   0.461
 2240TP3     H218540   1.845   1.635   0.574
 2241TP3      O18541   1.653   1.276   0.978
 2241TP3     H118542   1.571   1.281   1.027
 2241TP3     H218543   1.708   1.344   1.016
 2242TP3      O18544   1.795   1.094   9.822
 2242TP3     H118545   1.866   1.158   9.828
 2242TP3     H218546   1.809   1.035   9.896
 2243TP3      O18547   1.841   0.903  10.016
 2243TP3     H118548   1.756   0.871  10.047
 2243TP3     H218549   1.893   0.914  10.095
 2244TP3      O18550   1.823   1.194   0.213
 2244TP3     H118551   1.875   1.123   0.177
 2244TP3     H218552   1.854   1.272   0.167
 2245TP3      O18553   1.639   1.470   0.413
 2245TP3     H118554   1.567   1.512   0.460
 2245TP3     H218555   1.603   1.452   0.326
 2246TP3      O18556   1.823   0.920   9.615
 2246TP3     H118557   1.780   0.965   9.542
 2246TP3     H218558   1.812   0.978   9.690
 2247TP3      O18559   1.617   0.558   9.507
 2247TP3     H118560   1.674   0.591   9.437
 2247TP3     H218561   1.645   0.467   9.519
 2248TP3      O18562   1.591   0.791  10.066
 2248TP3     H118563   1.588   0.702  10.031
 2248TP3     H218564   1.549   0.785  10.152
 2249TP3      O18565   0.082   0.965   0.184
 2249TP3     H118566   0.097   0.966   0.090
 2249TP3     H218567   0.165   0.938   0.222
 2250TP3      O18568   1.672   0.962   0.730
 2250TP3     H118569   1.728   0.884   0.729
 2250TP3     H218570   1.708   1.018   0.661
 2251TP3      O18571   1.829   0.740   0.746
 2251TP3     H118572   1.744   0.698   0.732
 2251TP3     H218573   1.869   0.691   0.818
 2252TP3      O18574   1.591   0.558   9.900
 2252TP3     H118575   1.617   0.466   9.908
 2252TP3     H218576   1.660   0.597   9.846
 2253TP3      O18577   1.611   0.575   0.133
 2253TP3     H118578   1.703   0.589   0.114
 2253TP3     H218579   1.602   0.596   0.226
 2254TP3      O18580   1.615   0.670   0.392
 2254TP3     H118581   1.544   0.701   0.448
 2254TP3     H218582   1.675   0.745   0.387
 2255TP3      O18583   0.057   0.503   0.698
 2255TP3     H118584   0.116   0.474   0.767
 2255TP3     H218585  -0.003   0.430   0.686
 2256TP3      O18586   1.902   0.107   0.945
 2256TP3     H118587   1.966   0.060   0.891
 2256TP3     H218588   1.858   0.166   0.884
 2257TP3      O18589   1.649   0.294   9.922
 2257TP3     H118590   1.667   0.248  10.004
 2257TP3     H218591   1.579   0.243   9.881
 2258TP3      O18592   0.161   0.353   0.024
 2258TP3     H118593   0.232   0.289   0.025
 2258TP3     H218594   0.185   0.417   0.092
 2259TP3      O18595   0.053   0.682   0.134
 2259TP3     H118596   0.123   0.671   0.069
 2259TP3     H218597   0.054   0.776   0.154
 2260TP3      O18598   1.788   0.252   0.749
 2260TP3     H118599   1.716   0.282   0.804
 2260TP3     H218600   1.746   0.205   0.677
 2261TP3      O18601   1.770   0.324   9.533
 2261TP3     H118602   1.800   0.291   9.448
 2261TP3     H218603   1.849   0.362   9.572
 2262TP3      O18604   0.117   0.244   9.860
 2262TP3     H118605   0.022   0.246   9.875
 2262TP3     H218606   0.135   0.324   9.812
 2263TP3      O18607   1.513   1.773  10.082
 2263TP3     H118608   1.580   1.767  10.014
 2263TP3     H218609   1.558   1.811  10.157
 2264TP3      O18610   5.538   0.086   0.321
 2264TP3     H118611   5.526   0.071   0.415
 2264TP3     H218612   5.485   0.163   0.302
 2265TP3      O18613   0.245   1.495   0.761
 2265TP3     H118614   0.229   1.428   0.695
 2265TP3     H218615   0.232   1.450   0.845
 2266TP3      O18616   0.580   1.579   0.434
 2266TP3     H118617   0.550   1.665   0.405
 2266TP3     H218618   0.674   1.578   0.416
 2267TP3      O18619   0.958   1.695   0.719
 2267TP3     H118620   0.969   1.661   0.808
 2267TP3     H218621   1.039   1.743   0.702
 2268TP3      O18622   1.193   1.831   0.679
 2268TP3     H118623   1.254   1.774   0.632
 2268TP3     H218624   1.242   1.861   0.755
 2269TP3      O18625   1.686   0.089   0.555
 2269TP3     H118626   1.641   0.128   0.480
 2269TP3     H218627   1.736   0.016   0.518
 2270TP3      O18628   0.299   1.892   0.457
 2270TP3     H118629   0.222   1.930   0.415
 2270TP3     H218630   0.296   1.926   0.546
 2271TP3      O18631   0.542   1.845   0.350
 2271TP3     H118632   0.457   1.860   0.392
 2271TP3     H218633   0.527   1.867   0.258
 2272TP3      O18634   1.009   1.804   0.287
 2272TP3     H118635   0.996   1.845   0.201
 2272TP3     H218636   1.017   1.878   0.347
 2273TP3      O18637   1.230   1.684   0.388
 2273TP3     H118638   1.151   1.722   0.350
 2273TP3     H218639   1.300   1.746   0.365
 2274TP3      O18640   1.463   1.829   0.363
 2274TP3     H118641   1.487   1.921   0.349
 2274TP3     H218642   1.506   1.782   0.292
 2275TP3      O18643   0.256   1.728   0.126
 2275TP3     H118644   0.234   1.680   0.206
 2275TP3     H218645   0.329   1.680   0.088
 2276TP3      O18646   0.463   1.595   0.018
 2276TP3     H118647   0.449   1.503   0.041
 2276TP3     H218648   0.552   1.614   0.047
 2277TP3      O18649   0.729   1.630   0.111
 2277TP3     H118650   0.738   1.541   0.077
 2277TP3     H218651   0.761   1.624   0.201
 2278TP3      O18652   1.046   0.237   0.017
 2278TP3     H118653   0.980   0.170   0.037
 2278TP3     H218654   1.109   0.192  -0.038
 2279TP3      O18655   1.510   0.034  10.269
 2279TP3     H118656   1.585   0.072  10.224
 2279TP3     H218657   1.439   0.097  10.255
 2280TP3      O18658   1.719   0.122  10.127
 2280TP3     H118659   1.747   0.063  10.057
 2280TP3     H218660   1.796   0.176  10.145
 2281TP3      O18661   0.271   0.128  10.065
 2281TP3     H118662   0.210   0.147   9.994
 2281TP3     H218663   0.295   0.036  10.051
 2282TP3      O18664   0.242   0.103   9.665
 2282TP3     H118665   0.244   0.170   9.597
 2282TP3     H218666   0.194   0.144   9.737
 2283TP3      O18667   0.759   0.077  10.101
 2283TP3     H118668   0.837   0.114  10.061
 2283TP3     H218669   0.774   0.083  10.195
 2284TP3      O18670   1.241   0.114  10.189
 2284TP3     H118671   1.250   0.113  10.094
 2284TP3     H218672   1.222   0.023  10.212
 2285TP3      O18673   1.442   0.150   9.809
 2285TP3     H118674   1.377   0.199   9.759
 2285TP3     H218675   1.396   0.072   9.839
 2286TP3      O18676   0.189   1.647   9.723
 2286TP3     H118677   0.180   1.617   9.632
 2286TP3     H218678   0.195   1.742   9.716
 2287TP3      O18679   0.455   0.248   9.513
 2287TP3     H118680   0.448   0.153   9.511
 2287TP3     H218681   0.491   0.267   9.600
 2288TP3      O18682   0.863   0.292   9.776
 2288TP3     H118683   0.894   0.231   9.842
 2288TP3     H218684   0.878   0.379   9.814
 2289TP3      O18685   1.054   1.829   9.606
 2289TP3     H118686   1.139   1.869   9.590
 2289TP3     H218687   1.063   1.740   9.573
 2290TP3      O18688   1.707   1.753   9.885
 2290TP3     H118689   1.691   1.665   9.852
 2290TP3     H218690   1.700   1.809   9.807
 2291TP3      O18691   0.293   0.182   0.701
 2291TP3     H118692   0.227   0.116   0.722
 2291TP3     H218693   0.373   0.149   0.742
 2292TP3      O18694   0.501   0.092   0.864
 2292TP3     H118695   0.586   0.058   0.836
 2292TP3     H218696   0.462   0.021   0.914
 2293TP3      O18697   0.418   1.770   9.497
 2293TP3     H118698   0.381   1.815   9.573
 2293TP3     H218699   0.342   1.738   9.448
 2294TP3      O18700   1.280   0.035   0.875
 2294TP3     H118701   1.264   0.012   0.967
 2294TP3     H218702   1.363  -0.008   0.854
 2295TP3      O18703   1.621   1.605   0.781
 2295TP3     H118704   1.564   1.597   0.704
 2295TP3     H218705   1.617   1.698   0.804
 2296TP3      O18706   3.099   1.007  10.062
 2296TP3     H118707   3.085   1.102  10.056
 2296TP3     H218708   3.029   0.969  10.009
 2297TP3      O18709   2.977   0.924   0.145
 2297TP3     H118710   3.007   0.876   0.223
 2297TP3     H218711   2.929   0.858   0.095
 2298TP3      O18712   2.189   0.858   0.265
 2298TP3     H118713   2.198   0.787   0.328
 2298TP3     H218714   2.279   0.878   0.239
 2299TP3      O18715   3.361   1.231  -0.030
 2299TP3     H118716   3.324   1.155   0.015
 2299TP3     H218717   3.379   1.293   0.040
 2300TP3      O18718   2.326   1.335   0.073
 2300TP3     H118719   2.298   1.246   0.049
 2300TP3     H218720   2.421   1.326   0.086
 2301TP3      O18721   1.969   0.668   9.922
 2301TP3     H118722   1.942   0.750   9.962
 2301TP3     H218723   1.904   0.653   9.853
 2302TP3      O18724   2.034   0.911  10.219
 2302TP3     H118725   2.064   0.823  10.240
 2302TP3     H218726   2.113   0.965  10.224
 2303TP3      O18727   3.090   1.715  10.305
 2303TP3     H118728   3.127   1.659  10.236
 2303TP3     H218729   3.055   1.653  10.369
 2304TP3      O18730   2.817   1.175   0.151
 2304TP3     H118731   2.854   1.095   0.116
 2304TP3     H218732   2.884   1.210   0.210
 2305TP3      O18733   3.711   0.321   0.240
 2305TP3     H118734   3.720   0.391   0.305
 2305TP3     H218735   3.770   0.346   0.169
 2306TP3      O18736   3.137   0.592   0.162
 2306TP3     H118737   3.150   0.499   0.175
 2306TP3     H218738   3.118   0.601   0.068
 2307TP3      O18739   2.480   0.411  10.218
 2307TP3     H118740   2.483   0.496  10.174
 2307TP3     H218741   2.434   0.354  10.156
 2308TP3      O18742   3.261   0.453  10.052
 2308TP3     H118743   3.301   0.417  10.132
 2308TP3     H218744   3.335   0.487  10.002
 2309TP3      O18745   2.119   0.660  10.288
 2309TP3     H118746   2.186   0.621  10.344
 2309TP3     H218747   2.139   0.625  10.201
 2310TP3      O18748   2.592   0.805  10.264
 2310TP3     H118749   2.678   0.770  10.288
 2310TP3     H218750   2.555   0.739  10.206
 2311TP3      O18751   3.724   0.473   0.473
 2311TP3     H118752   3.663   0.542   0.448
 2311TP3     H218753   3.682   0.431   0.549
 2312TP3      O18754   2.339   0.323   0.316
 2312TP3     H118755   2.308   0.374   0.241
 2312TP3     H218756   2.272   0.334   0.382
 2313TP3      O18757   3.063   1.266   9.979
 2313TP3     H118758   3.044   1.261   9.885
 2313TP3     H218759   3.012   1.341  10.010
 2314TP3      O18760   2.596   1.092   0.293
 2314TP3     H118761   2.546   1.165   0.331
 2314TP3     H218762   2.667   1.135   0.246
 2315TP3      O18763   3.363   0.395  -0.022
 2315TP3     H118764   3.308   0.345   0.038
 2315TP3     H218765   3.418   0.449   0.035
 2316TP3      O18766   2.307   0.499   0.100
 2316TP3     H118767   2.367   0.550   0.156
 2316TP3     H218768   2.365   0.457   0.036
 2317TP3      O18769   2.449   1.297   0.408
 2317TP3     H118770   2.453   1.392   0.396
 2317TP3     H218771   2.359   1.279   0.434
 2318TP3      O18772   2.012   1.267   9.809
 2318TP3     H118773   2.014   1.306   9.721
 2318TP3     H218774   2.040   1.338   9.867
 2319TP3      O18775   3.396   1.434   0.169
 2319TP3     H118776   3.302   1.436   0.186
 2319TP3     H218777   3.417   1.524   0.143
 2320TP3      O18778   3.469   0.239   0.357
 2320TP3     H118779   3.392   0.244   0.300
 2320TP3     H218780   3.542   0.261   0.299
 2321TP3      O18781   2.719   0.083   0.057
 2321TP3     H118782   2.764   0.010   0.099
 2321TP3     H218783   2.635   0.089   0.103
 2322TP3      O18784   3.212   1.585  10.091
 2322TP3     H118785   3.252   1.499  10.076
 2322TP3     H218786   3.287   1.645  10.097
 2323TP3      O18787   3.322   1.341  10.038
 2323TP3     H118788   3.238   1.301  10.014
 2323TP3     H218789   3.347   1.298  10.119
 2324TP3      O18790   3.509   1.216   0.522
 2324TP3     H118791   3.495   1.159   0.446
 2324TP3     H218792   3.521   1.303   0.484
 2325TP3      O18793   2.949   0.918   9.845
 2325TP3     H118794   2.882   0.982   9.819
 2325TP3     H218795   3.012   0.919   9.772
 2326TP3      O18796   2.959   0.746   9.539
 2326TP3     H118797   3.026   0.791   9.590
 2326TP3     H218798   3.006   0.675   9.495
 2327TP3      O18799   3.674   0.889   0.353
 2327TP3     H118800   3.599   0.947   0.343
 2327TP3     H218801   3.732   0.911   0.280
 2328TP3      O18802   3.312   0.948   9.907
 2328TP3     H118803   3.243   0.972   9.969
 2328TP3     H218804   3.377   0.901   9.959
 2329TP3      O18805   3.277   0.756   0.547
 2329TP3     H118806   3.267   0.828   0.609
 2329TP3     H218807   3.214   0.775   0.478
 2330TP3      O18808   2.467   0.998  10.104
 2330TP3     H118809   2.444   0.958  10.020
 2330TP3     H218810   2.517   0.930  10.150
 2331TP3      O18811   2.611   1.353   0.050
 2331TP3     H118812   2.611   1.358  -0.046
 2331TP3     H218813   2.684   1.295   0.070
 2332TP3      O18814   2.450   0.901   0.164
 2332TP3     H118815   2.504   0.872   0.091
 2332TP3     H218816   2.503   0.965   0.210
 2333TP3      O18817   3.137   1.448   0.241
 2333TP3     H118818   3.115   1.516   0.304
 2333TP3     H218819   3.093   1.369   0.275
 2334TP3      O18820   2.605   1.324   0.635
 2334TP3     H118821   2.542   1.381   0.678
 2334TP3     H218822   2.561   1.294   0.555
 2335TP3      O18823   3.174   0.876   9.681
 2335TP3     H118824   3.221   0.906   9.759
 2335TP3     H218825   3.218   0.920   9.609
 2336TP3      O18826   2.264   0.904   0.595
 2336TP3     H118827   2.273   0.985   0.646
 2336TP3     H218828   2.171   0.901   0.572
 2337TP3      O18829   2.952   1.511  10.033
 2337TP3     H118830   3.037   1.548  10.057
 2337TP3     H218831   2.914   1.576   9.973
 2338TP3      O18832   2.405   1.503   0.701
 2338TP3     H118833   2.409   1.533   0.610
 2338TP3     H218834   2.311   1.494   0.719
 2339TP3      O18835   3.563   0.101   9.672
 2339TP3     H118836   3.474   0.109   9.705
 2339TP3     H218837   3.577   0.182   9.622
 2340TP3      O18838   2.388   0.909   9.844
 2340TP3     H118839   2.324   0.974   9.812
 2340TP3     H218840   2.345   0.825   9.829
 2341TP3      O18841   3.699   1.476   9.551
 2341TP3     H118842   3.721   1.569   9.554
 2341TP3     H218843   3.784   1.432   9.543
 2342TP3      O18844   1.970   1.150   0.458
 2342TP3     H118845   1.919   1.156   0.377
 2342TP3     H218846   1.981   1.056   0.471
 2343TP3      O18847   1.956   1.427   0.121
 2343TP3     H118848   2.049   1.409   0.135
 2343TP3     H218849   1.935   1.493   0.187
 2344TP3      O18850   3.761   1.515   0.725
 2344TP3     H118851   3.751   1.420   0.713
 2344TP3     H218852   3.675   1.543   0.757
 2345TP3      O18853   2.841   1.452   0.585
 2345TP3     H118854   2.837   1.535   0.632
 2345TP3     H218855   2.758   1.409   0.604
 2346TP3      O18856   2.927   1.797   9.882
 2346TP3     H118857   2.913   1.809   9.788
 2346TP3     H218858   2.895   1.878   9.922
 2347TP3      O18859   2.273   1.681  10.074
 2347TP3     H118860   2.293   1.651  10.162
 2347TP3     H218861   2.218   1.612  10.037
 2348TP3      O18862   3.230   1.787   9.578
 2348TP3     H118863   3.255   1.703   9.539
 2348TP3     H218864   3.224   1.769   9.671
 2349TP3      O18865   3.193   1.747   9.850
 2349TP3     H118866   3.099   1.759   9.864
 2349TP3     H218867   3.219   1.683   9.916
 2350TP3      O18868   3.462   0.636   0.733
 2350TP3     H118869   3.398   0.675   0.674
 2350TP3     H218870   3.467   0.544   0.707
 2351TP3      O18871   2.196   1.293   0.516
 2351TP3     H118872   2.222   1.255   0.600
 2351TP3     H218873   2.117   1.245   0.491
 2352TP3      O18874   2.467   0.127   0.169
 2352TP3     H118875   2.403   0.125   0.097
 2352TP3     H218876   2.429   0.187   0.233
 2353TP3      O18877   2.946   0.111   0.549
 2353TP3     H118878   2.997   0.058   0.488
 2353TP3     H218879   2.855   0.101   0.519
 2354TP3      O18880   3.209   0.488   0.576
 2354TP3     H118881   3.150   0.474   0.651
 2354TP3     H218882   3.216   0.583   0.568
 2355TP3      O18883   3.316   1.004   9.489
 2355TP3     H118884   3.365   1.025   9.409
 2355TP3     H218885   3.360   1.055   9.557
 2356TP3      O18886   2.905   0.257   9.553
 2356TP3     H118887   2.852   0.274   9.631
 2356TP3     H218888   2.991   0.235   9.587
 2357TP3      O18889   2.462   0.646   0.275
 2357TP3     H118890   2.394   0.643   0.342
 2357TP3     H218891   2.462   0.737   0.246
 2358TP3      O18892   2.457   0.647  10.083
 2358TP3     H118893   2.362   0.636  10.078
 2358TP3     H218894   2.489   0.625   9.996
 2359TP3      O18895   3.008   0.672   9.949
 2359TP3     H118896   2.982   0.758   9.915
 2359TP3     H218897   3.080   0.645   9.892
 2360TP3      O18898   2.913   0.696   0.751
 2360TP3     H118899   2.864   0.622   0.786
 2360TP3     H218900   2.997   0.693   0.797
 2361TP3      O18901   3.103   0.619  10.208
 2361TP3     H118902   3.057   0.664  10.137
 2361TP3     H218903   3.150   0.548  10.165
 2362TP3      O18904   2.246   0.643   0.441
 2362TP3     H118905   2.246   0.691   0.523
 2362TP3     H218906   2.214   0.556   0.463
 2363TP3      O18907   2.573   0.473   9.448
 2363TP3     H118908   2.522   0.496   9.525
 2363TP3     H218909   2.541   0.531   9.379
 2364TP3      O18910   1.922   0.297  10.158
 2364TP3     H118911   1.958   0.329  10.240
 2364TP3     H218912   1.975   0.339  10.090
 2365TP3      O18913   1.980   0.465   9.653
 2365TP3     H118914   2.060   0.500   9.613
 2365TP3     H218915   1.928   0.543   9.673
 2366TP3      O18916   3.068   0.763   0.357
 2366TP3     H118917   3.100   0.704   0.288
 2366TP3     H218918   3.000   0.712   0.401
 2367TP3      O18919   2.766   0.395  10.179
 2367TP3     H118920   2.677   0.387  10.211
 2367TP3     H218921   2.820   0.358  10.249
 2368TP3      O18922   2.197   0.567  10.044
 2368TP3     H118923   2.122   0.588   9.989
 2368TP3     H218924   2.226   0.481  10.013
 2369TP3      O18925   2.528   0.572   9.833
 2369TP3     H118926   2.623   0.569   9.843
 2369TP3     H218927   2.513   0.620   9.752
 2370TP3      O18928   3.149   0.317   0.183
 2370TP3     H118929   3.104   0.321   0.267
 2370TP3     H218930   3.083   0.286   0.121
 2371TP3      O18931   2.439   0.680   9.599
 2371TP3     H118932   2.350   0.667   9.565
 2371TP3     H218933   2.487   0.716   9.526
 2372TP3      O18934   3.504   1.877   0.825
 2372TP3     H118935   3.530   1.909   0.739
 2372TP3     H218936   3.578   1.899   0.882
 2373TP3      O18937   2.266   1.145   0.753
 2373TP3     H118938   2.332   1.133   0.822
 2373TP3     H218939   2.183   1.144   0.800
 2374TP3      O18940   2.832   0.694   0.043
 2374TP3     H118941   2.895   0.637  -0.002
 2374TP3     H218942   2.799   0.641   0.115
 2375TP3      O18943   2.322   0.319   9.997
 2375TP3     H118944   2.265   0.245  10.019
 2375TP3     H218945   2.369   0.291   9.919
 2376TP3      O18946   2.723   0.562   0.260
 2376TP3     H118947   2.636   0.599   0.273
 2376TP3     H218948   2.771   0.585   0.340
 2377TP3      O18949   2.768   1.111   9.765
 2377TP3     H118950   2.695   1.068   9.720
 2377TP3     H218951   2.731   1.142   9.848
 2378TP3      O18952   3.474   1.068   0.294
 2378TP3     H118953   3.534   1.122   0.243
 2378TP3     H218954   3.402   1.048   0.234
 2379TP3      O18955   3.163   0.379   9.655
 2379TP3     H118956   3.151   0.396   9.562
 2379TP3     H218957   3.187   0.464   9.692
 2380TP3      O18958   2.924   1.167   0.582
 2380TP3     H118959   2.941   1.126   0.667
 2380TP3     H218960   2.890   1.254   0.604
 2381TP3      O18961   3.225   0.617   9.775
 2381TP3     H118962   3.313   0.610   9.811
 2381TP3     H218963   3.223   0.703   9.733
 2382TP3      O18964   2.291   1.063  10.306
 2382TP3     H118965   2.348   1.052  10.231
 2382TP3     H218966   2.328   1.007  10.374
 2383TP3      O18967   2.990   1.265   9.714
 2383TP3     H118968   2.948   1.350   9.716
 2383TP3     H218969   2.918   1.202   9.720
 2384TP3      O18970   1.984   0.881   0.553
 2384TP3     H118971   1.953   0.835   0.631
 2384TP3     H218972   1.920   0.859   0.485
 2385TP3      O18973   2.703   0.877   0.775
 2385TP3     H118974   2.634   0.838   0.721
 2385TP3     H218975   2.781   0.826   0.755
 2386TP3      O18976   3.126   1.433   0.588
 2386TP3     H118977   3.034   1.436   0.563
 2386TP3     H218978   3.125   1.443   0.683
 2387TP3      O18979   3.671   0.659   9.708
 2387TP3     H118980   3.607   0.626   9.644
 2387TP3     H218981   3.686   0.749   9.681
 2388TP3      O18982   3.733   1.243   0.681
 2388TP3     H118983   3.641   1.240   0.654
 2388TP3     H218984   3.782   1.217   0.604
 2389TP3      O18985   3.548   1.509   9.791
 2389TP3     H118986   3.490   1.439   9.823
 2389TP3     H218987   3.582   1.475   9.709
 2390TP3      O18988   3.269   0.998   0.110
 2390TP3     H118989   3.173   0.989   0.107
 2390TP3     H218990   3.302   0.921   0.066
 2391TP3      O18991   2.547   1.423  10.097
 2391TP3     H118992   2.572   1.506  10.058
 2391TP3     H218993   2.452   1.417  10.081
 2392TP3      O18994   2.099   0.893   9.567
 2392TP3     H118995   2.139   0.959   9.623
 2392TP3     H218996   2.005   0.903   9.583
 2393TP3      O18997   2.638   1.184   9.988
 2393TP3     H118998   2.619   1.270  10.027
 2393TP3     H218999   2.580   1.124  10.035
 2394TP3      O19000   2.731   1.595   0.361
 2394TP3     H119001   2.790   1.668   0.339
 2394TP3     H219002   2.783   1.538   0.418
 2395TP3      O19003   2.533   1.690   9.977
 2395TP3     H119004   2.441   1.697  10.003
 2395TP3     H219005   2.575   1.765  10.019
 2396TP3      O19006   3.027   1.209   0.333
 2396TP3     H119007   2.992   1.191   0.420
 2396TP3     H219008   3.085   1.135   0.315
 2397TP3      O19009   3.241   1.314   9.599
 2397TP3     H119010   3.301   1.256   9.647
 2397TP3     H219011   3.154   1.292   9.632
 2398TP3      O19012   3.335   1.618   0.555
 2398TP3     H119013   3.255   1.565   0.550
 2398TP3     H219014   3.320   1.688   0.491
 2399TP3      O19015   3.752   1.746   9.576
 2399TP3     H119016   3.815   1.817   9.590
 2399TP3     H219017   3.666   1.788   9.586
 2400TP3      O19018   2.162   0.383   0.516
 2400TP3     H119019   2.081   0.416   0.556
 2400TP3     H219020   2.187   0.308   0.569
 2401TP3      O19021   3.418   1.126   9.722
 2401TP3     H119022   3.374   1.077   9.791
 2401TP3     H219023   3.509   1.131   9.750
 2402TP3      O19024   2.122   1.560   0.352
 2402TP3     H119025   2.148   1.477   0.390
 2402TP3     H219026   2.141   1.625   0.421
 2403TP3      O19027   2.556   1.399   9.681
 2403TP3     H119028   2.633   1.353   9.715
 2403TP3     H219029   2.577   1.491   9.690
 2404TP3      O19030   2.210   1.090   9.729
 2404TP3     H119031   2.139   1.135   9.775
 2404TP3     H219032   2.258   1.161   9.685
 2405TP3      O19033   3.025   0.349   0.431
 2405TP3     H119034   3.099   0.383   0.481
 2405TP3     H219035   2.997   0.272   0.480
 2406TP3      O19036   3.089   0.301   9.908
 2406TP3     H119037   3.105   0.326   9.817
 2406TP3     H219038   3.144   0.361   9.959
 2407TP3      O19039   2.853   1.499   9.719
 2407TP3     H119040   2.781   1.561   9.728
 2407TP3     H219041   2.907   1.535   9.648
 2408TP3      O19042   2.783   0.517   9.930
 2408TP3     H119043   2.863   0.571   9.934
 2408TP3     H219044   2.774   0.482  10.018
 2409TP3      O19045   2.890   0.597   0.481
 2409TP3     H119046   2.891   0.616   0.575
 2409TP3     H219047   2.923   0.508   0.474
 2410TP3      O19048   2.863   0.199  10.006
 2410TP3     H119049   2.842   0.269  10.068
 2410TP3     H219050   2.948   0.224   9.969
 2411TP3      O19051   2.630   1.663   9.721
 2411TP3     H119052   2.621   1.748   9.679
 2411TP3     H219053   2.595   1.676   9.810
 2412TP3      O19054   2.471   0.317   9.740
 2412TP3     H119055   2.472   0.406   9.775
 2412TP3     H219056   2.563   0.292   9.737
 2413TP3      O19057   3.460   0.395   0.585
 2413TP3     H119058   3.367   0.418   0.584
 2413TP3     H219059   3.470   0.338   0.508
 2414TP3      O19060   3.345   0.753  -0.011
 2414TP3     H119061   3.261   0.711  -0.030
 2414TP3     H219062   3.391   0.691   0.045
 2415TP3      O19063   2.313   1.314   9.591
 2415TP3     H119064   2.389   1.357   9.630
 2415TP3     H219065   2.351   1.252   9.528
 2416TP3      O19066   2.174   0.640   9.506
 2416TP3     H119067   2.145   0.729   9.523
 2416TP3     H219068   2.151   0.624   9.414
 2417TP3      O19069   3.473   1.704   0.157
 2417TP3     H119070   3.460   1.775   0.093
 2417TP3     H219071   3.568   1.700   0.168
 2418TP3      O19072   2.222   0.150  10.329
 2418TP3     H119073   2.205   0.141  10.235
 2418TP3     H219074   2.183   0.072  10.368
 2419TP3      O19075   2.084   1.495   9.969
 2419TP3     H119076   2.026   1.524  10.039
 2419TP3     H219077   2.071   1.560   9.899
 2420TP3      O19078   2.049   1.782   0.825
 2420TP3     H119079   2.117   1.760   0.889
 2420TP3     H219080   2.024   1.698   0.787
 2421TP3      O19081   2.472   1.603   0.947
 2421TP3     H119082   2.551   1.557   0.972
 2421TP3     H219083   2.453   1.571   0.859
 2422TP3      O19084   2.999   1.586   9.508
 2422TP3     H119085   2.948   1.557   9.432
 2422TP3     H219086   3.090   1.570   9.484
 2423TP3      O19087   3.119   1.465   0.859
 2423TP3     H119088   3.106   1.382   0.906
 2423TP3     H219089   3.195   1.504   0.901
 2424TP3      O19090   3.272   1.539   9.451
 2424TP3     H119091   3.259   1.463   9.508
 2424TP3     H219092   3.356   1.523   9.408
 2425TP3      O19093   2.018   1.156   0.884
 2425TP3     H119094   2.026   1.061   0.880
 2425TP3     H219095   1.948   1.177   0.822
 2426TP3      O19096   2.414   1.104   9.455
 2426TP3     H119097   2.467   1.066   9.525
 2426TP3     H219098   2.459   1.081   9.374
 2427TP3      O19099   2.676   1.151   0.838
 2427TP3     H119100   2.659   1.195   0.755
 2427TP3     H219101   2.697   1.061   0.814
 2428TP3      O19102   3.250   1.172   0.611
 2428TP3     H119103   3.339   1.195   0.585
 2428TP3     H219104   3.199   1.251   0.592
 2429TP3      O19105   2.097   0.895   0.870
 2429TP3     H119106   2.147   0.823   0.832
 2429TP3     H219107   2.098   0.878   0.964
 2430TP3      O19108   2.571   0.974   9.637
 2430TP3     H119109   2.517   0.938   9.708
 2430TP3     H219110   2.608   0.897   9.594
 2431TP3      O19111   2.510   0.769   0.596
 2431TP3     H119112   2.430   0.820   0.590
 2431TP3     H219113   2.566   0.804   0.526
 2432TP3      O19114   2.692   0.785   9.479
 2432TP3     H119115   2.688   0.738   9.396
 2432TP3     H219116   2.782   0.773   9.509
 2433TP3      O19117   3.024   1.011   0.883
 2433TP3     H119118   3.099   0.972   0.839
 2433TP3     H219119   2.991   0.942   0.940
 2434TP3      O19120   3.608   1.086   9.401
 2434TP3     H119121   3.585   1.095   9.309
 2434TP3     H219122   3.607   1.176   9.435
 2435TP3      O19123   2.557   0.507   0.658
 2435TP3     H119124   2.564   0.453   0.580
 2435TP3     H219125   2.542   0.596   0.625
 2436TP3      O19126   2.588   0.361   0.420
 2436TP3     H119127   2.638   0.404   0.352
 2436TP3     H219128   2.500   0.350   0.383
 2437TP3      O19129   2.689   0.871   0.423
 2437TP3     H119130   2.784   0.877   0.428
 2437TP3     H219131   2.662   0.952   0.380
 2438TP3      O19132   3.148   0.650   0.911
 2438TP3     H119133   3.136   0.558   0.888
 2438TP3     H219134   3.243   0.661   0.917
 2439TP3      O19135   3.290   0.950   0.757
 2439TP3     H119136   3.265   1.030   0.710
 2439TP3     H219137   3.385   0.948   0.751
 2440TP3      O19138   2.404   0.568   0.888
 2440TP3     H119139   2.317   0.531   0.876
 2440TP3     H219140   2.448   0.554   0.804
 2441TP3      O19141   2.672   0.107   0.485
 2441TP3     H119142   2.643   0.196   0.466
 2441TP3     H219143   2.643   0.055   0.410
 2442TP3      O19144   2.772   0.478   0.826
 2442TP3     H119145   2.734   0.446   0.908
 2442TP3     H219146   2.698   0.480   0.765
 2443TP3      O19147   3.043   0.425   0.777
 2443TP3     H119148   2.950   0.416   0.797
 2443TP3     H219149   3.085   0.355   0.828
 2444TP3      O19150   3.230   0.303   0.948
 2444TP3     H119151   3.215   0.211   0.929
 2444TP3     H219152   3.201   0.315   1.038
 2445TP3      O19153   2.180   0.410   0.847
 2445TP3     H119154   2.187   0.330   0.796
 2445TP3     H219155   2.187   0.381   0.938
 2446TP3      O19156   2.637   0.028   0.743
 2446TP3     H119157   2.710  -0.032   0.749
 2446TP3     H219158   2.639   0.059   0.653
 2447TP3      O19159   2.737   0.181   0.951
 2447TP3     H119160   2.704   0.127   0.879
 2447TP3     H219161   2.668   0.247   0.964
 2448TP3      O19162   2.685   1.898   9.533
 2448TP3     H119163   2.774   1.877   9.561
 2448TP3     H219164   2.684   1.877   9.440
 2449TP3      O19165   2.048   1.336   9.531
 2449TP3     H119166   2.141   1.347   9.552
 2449TP3     H219167   2.047   1.277   9.455
 2450TP3      O19168   1.905   1.829  10.059
 2450TP3     H119169   1.846   1.800   9.990
 2450TP3     H219170   1.923   1.750  10.110
 2451TP3      O19171   1.972   1.612  10.216
 2451TP3     H119172   1.935   1.536  10.260
 2451TP3     H219173   2.021   1.659  10.284
 2452TP3      O19174   3.740   1.700   0.225
 2452TP3     H119175   3.735   1.706   0.320
 2452TP3     H219176   3.815   1.755   0.201
 2453TP3      O19177   3.683   1.676   0.500
 2453TP3     H119178   3.628   1.606   0.464
 2453TP3     H219179   3.728   1.635   0.573
 2454TP3      O19180   3.542   1.270   0.981
 2454TP3     H119181   3.459   1.278   1.027
 2454TP3     H219182   3.596   1.341   1.016
 2455TP3      O19183   3.681   1.092   9.818
 2455TP3     H119184   3.751   1.157   9.826
 2455TP3     H219185   3.693   1.034   9.893
 2456TP3      O19186   3.726   0.901  10.015
 2456TP3     H119187   3.640   0.870  10.044
 2456TP3     H219188   3.776   0.913  10.095
 2457TP3      O19189   3.711   1.196   0.216
 2457TP3     H119190   3.763   1.128   0.173
 2457TP3     H219191   3.737   1.277   0.172
 2458TP3      O19192   3.520   1.469   0.414
 2458TP3     H119193   3.447   1.513   0.459
 2458TP3     H219194   3.487   1.452   0.326
 2459TP3      O19195   3.711   0.918   9.612
 2459TP3     H119196   3.663   0.961   9.541
 2459TP3     H219197   3.698   0.976   9.688
 2460TP3      O19198   3.505   0.559   9.508
 2460TP3     H119199   3.560   0.591   9.437
 2460TP3     H219200   3.529   0.467   9.518
 2461TP3      O19201   3.477   0.790  10.066
 2461TP3     H119202   3.472   0.702  10.030
 2461TP3     H219203   3.434   0.783  10.152
 2462TP3      O19204   1.965   0.969   0.163
 2462TP3     H119205   1.973   0.949   0.069
 2462TP3     H219206   2.046   0.935   0.201
 2463TP3      O19207   3.565   0.962   0.729
 2463TP3     H119208   3.624   0.888   0.717
 2463TP3     H219209   3.596   1.027   0.666
 2464TP3      O19210   3.714   0.735   0.715
 2464TP3     H119211   3.627   0.696   0.719
 2464TP3     H219212   3.772   0.669   0.753
 2465TP3      O19213   3.478   0.558   9.898
 2465TP3     H119214   3.503   0.466   9.908
 2465TP3     H219215   3.546   0.596   9.843
 2466TP3      O19216   3.502   0.573   0.138
 2466TP3     H119217   3.595   0.585   0.119
 2466TP3     H219218   3.494   0.590   0.232
 2467TP3      O19219   3.527   0.662   0.402
 2467TP3     H119220   3.446   0.691   0.444
 2467TP3     H219221   3.577   0.742   0.389
 2468TP3      O19222   1.958   0.457   0.683
 2468TP3     H119223   2.021   0.465   0.754
 2468TP3     H219224   1.893   0.395   0.715
 2469TP3      O19225   3.785   0.130   0.939
 2469TP3     H119226   3.845   0.073   0.892
 2469TP3     H219227   3.753   0.191   0.873
 2470TP3      O19228   3.536   0.294   9.926
 2470TP3     H119229   3.551   0.248  10.009
 2470TP3     H219230   3.466   0.244   9.884
 2471TP3      O19231   2.056   0.357   0.078
 2471TP3     H119232   2.109   0.279   0.065
 2471TP3     H219233   2.120   0.427   0.093
 2472TP3      O19234   1.878   0.637   0.120
 2472TP3     H119235   1.954   0.643   0.063
 2472TP3     H219236   1.915   0.638   0.209
 2473TP3      O19237   3.687   0.296   0.746
 2473TP3     H119238   3.607   0.329   0.787
 2473TP3     H219239   3.656   0.234   0.680
 2474TP3      O19240   3.654   0.323   9.530
 2474TP3     H119241   3.679   0.285   9.445
 2474TP3     H219242   3.736   0.359   9.564
 2475TP3      O19243   1.940   0.270   9.845
 2475TP3     H119244   1.847   0.270   9.870
 2475TP3     H219245   1.950   0.347   9.789
 2476TP3      O19246   3.413   1.758  10.084
 2476TP3     H119247   3.482   1.763  10.018
 2476TP3     H219248   3.445   1.812  10.156
 2477TP3      O19249   1.952   0.123   0.386
 2477TP3     H119250   1.944   0.153   0.476
 2477TP3     H219251   1.909   0.191   0.334
 2478TP3      O19252   2.142   1.486   0.790
 2478TP3     H119253   2.051   1.487   0.758
 2478TP3     H219254   2.141   1.428   0.865
 2479TP3      O19255   2.468   1.574   0.436
 2479TP3     H119256   2.440   1.663   0.412
 2479TP3     H219257   2.562   1.573   0.417
 2480TP3      O19258   2.841   1.694   0.720
 2480TP3     H119259   2.853   1.661   0.809
 2480TP3     H219260   2.921   1.743   0.702
 2481TP3      O19261   3.075   1.832   0.678
 2481TP3     H119262   3.137   1.778   0.629
 2481TP3     H219263   3.125   1.862   0.755
 2482TP3      O19264   3.609   0.102   0.559
 2482TP3     H119265   3.547   0.133   0.494
 2482TP3     H219266   3.630   0.013   0.531
 2483TP3      O19267   2.173   1.876   0.460
 2483TP3     H119268   2.092   1.913   0.423
 2483TP3     H219269   2.182   1.919   0.545
 2484TP3      O19270   2.427   1.837   0.370
 2484TP3     H119271   2.336   1.852   0.397
 2484TP3     H219272   2.433   1.881   0.285
 2485TP3      O19273   2.880   1.813   0.274
 2485TP3     H119274   2.829   1.848   0.201
 2485TP3     H219275   2.890   1.887   0.334
 2486TP3      O19276   3.104   1.690   0.376
 2486TP3     H119277   3.027   1.730   0.336
 2486TP3     H219278   3.175   1.750   0.355
 2487TP3      O19279   3.345   1.830   0.362
 2487TP3     H119280   3.367   1.922   0.347
 2487TP3     H219281   3.387   1.783   0.291
 2488TP3      O19282   2.127   1.715   0.122
 2488TP3     H119283   2.123   1.668   0.205
 2488TP3     H219284   2.205   1.682   0.079
 2489TP3      O19285   2.343   1.599   0.010
 2489TP3     H119286   2.331   1.506   0.031
 2489TP3     H219287   2.431   1.620   0.043
 2490TP3      O19288   2.605   1.624   0.113
 2490TP3     H119289   2.613   1.534   0.081
 2490TP3     H219290   2.639   1.620   0.203
 2491TP3      O19291   2.945   0.233   0.012
 2491TP3     H119292   2.871   0.177   0.037
 2491TP3     H219293   3.001   0.176  -0.041
 2492TP3      O19294   3.403   0.034  10.269
 2492TP3     H119295   3.480   0.069  10.224
 2492TP3     H219296   3.330   0.085  10.235
 2493TP3      O19297   3.616   0.116  10.128
 2493TP3     H119298   3.641   0.062  10.053
 2493TP3     H219299   3.691   0.174  10.142
 2494TP3      O19300   2.157   0.113  10.060
 2494TP3     H119301   2.066   0.109  10.031
 2494TP3     H219302   2.189   0.023  10.052
 2495TP3      O19303   2.080   0.120   9.662
 2495TP3     H119304   2.133   0.184   9.614
 2495TP3     H219305   2.036   0.171   9.730
 2496TP3      O19306   2.645   0.077  10.109
 2496TP3     H119307   2.724   0.112  10.068
 2496TP3     H219308   2.665   0.078  10.203
 2497TP3      O19309   3.180   0.146  10.149
 2497TP3     H119310   3.161   0.179  10.061
 2497TP3     H219311   3.127   0.066  10.156
 2498TP3      O19312   3.330   0.151   9.808
 2498TP3     H119313   3.268   0.198   9.753
 2498TP3     H219314   3.282   0.075   9.839
 2499TP3      O19315   2.047   1.680   9.778
 2499TP3     H119316   1.976   1.663   9.715
 2499TP3     H219317   2.061   1.774   9.772
 2500TP3      O19318   2.308   0.248   9.527
 2500TP3     H119319   2.321   0.153   9.521
 2500TP3     H219320   2.362   0.275   9.601
 2501TP3      O19321   2.746   0.293   9.775
 2501TP3     H119322   2.776   0.231   9.842
 2501TP3     H219323   2.760   0.379   9.815
 2502TP3      O19324   2.941   1.833   9.605
 2502TP3     H119325   3.024   1.878   9.590
 2502TP3     H219326   2.955   1.745   9.571
 2503TP3      O19327   3.606   1.756   9.883
 2503TP3     H119328   3.586   1.667   9.854
 2503TP3     H219329   3.590   1.811   9.806
 2504TP3      O19330   2.204   0.178   0.700
 2504TP3     H119331   2.142   0.105   0.710
 2504TP3     H219332   2.282   0.150   0.748
 2505TP3      O19333   2.403   0.088   0.870
 2505TP3     H119334   2.485   0.078   0.822
 2505TP3     H219335   2.390   0.004   0.914
 2506TP3      O19336   2.294   1.783   9.522
 2506TP3     H119337   2.246   1.762   9.602
 2506TP3     H219338   2.247   1.736   9.453
 2507TP3      O19339   3.188   0.042   0.899
 2507TP3     H119340   3.178   0.015   0.990
 2507TP3     H219341   3.224  -0.035   0.855
 2508TP3      O19342   3.506   1.606   0.776
 2508TP3     H119343   3.446   1.599   0.701
 2508TP3     H219344   3.501   1.698   0.801
 2509TP3      O19345   4.982   1.007  10.061
 2509TP3     H119346   4.972   1.102  10.055
 2509TP3     H219347   4.915   0.972  10.002
 2510TP3      O19348   4.853   0.926   0.142
 2510TP3     H119349   4.881   0.880   0.221
 2510TP3     H219350   4.807   0.859   0.091
 2511TP3      O19351   4.077   0.858   0.264
 2511TP3     H119352   4.086   0.788   0.329
 2511TP3     H219353   4.167   0.879   0.238
 2512TP3      O19354   5.243   1.234  -0.031
 2512TP3     H119355   5.214   1.152   0.010
 2512TP3     H219356   5.257   1.294   0.043
 2513TP3      O19357   4.220   1.335   0.071
 2513TP3     H119358   4.188   1.247   0.051
 2513TP3     H219359   4.313   1.323   0.085
 2514TP3      O19360   3.857   0.669   9.922
 2514TP3     H119361   3.827   0.751   9.962
 2514TP3     H219362   3.793   0.651   9.852
 2515TP3      O19363   3.920   0.910  10.219
 2515TP3     H119364   3.951   0.821  10.240
 2515TP3     H219365   3.999   0.964  10.222
 2516TP3      O19366   4.968   1.705   0.002
 2516TP3     H119367   5.000   1.651  -0.070
 2516TP3     H219368   4.943   1.642   0.070
 2517TP3      O19369   4.704   1.174   0.153
 2517TP3     H119370   4.742   1.093   0.121
 2517TP3     H219371   4.772   1.211   0.210
 2518TP3      O19372   5.017   0.585   0.166
 2518TP3     H119373   5.040   0.493   0.179
 2518TP3     H219374   4.999   0.593   0.072
 2519TP3      O19375   4.368   0.408  10.216
 2519TP3     H119376   4.370   0.494  10.173
 2519TP3     H219377   4.320   0.352  10.154
 2520TP3      O19378   5.122   0.450  10.059
 2520TP3     H119379   5.167   0.415  10.136
 2520TP3     H219380   5.193   0.480  10.002
 2521TP3      O19381   4.007   0.658  10.289
 2521TP3     H119382   4.074   0.619  10.345
 2521TP3     H219383   4.026   0.624  10.202
 2522TP3      O19384   4.479   0.802  10.263
 2522TP3     H119385   4.564   0.767  10.287
 2522TP3     H219386   4.442   0.737  10.204
 2523TP3      O19387   4.222   0.335   0.328
 2523TP3     H119388   4.195   0.386   0.252
 2523TP3     H219389   4.149   0.342   0.390
 2524TP3      O19390   4.957   1.266   9.973
 2524TP3     H119391   4.938   1.262   9.879
 2524TP3     H219392   4.902   1.338  10.005
 2525TP3      O19393   4.482   1.091   0.293
 2525TP3     H119394   4.432   1.164   0.332
 2525TP3     H219395   4.554   1.134   0.247
 2526TP3      O19396   5.245   0.379  -0.033
 2526TP3     H119397   5.246   0.292   0.006
 2526TP3     H219398   5.289   0.434   0.032
 2527TP3      O19399   4.197   0.498   0.101
 2527TP3     H119400   4.257   0.550   0.155
 2527TP3     H219401   4.254   0.455   0.037
 2528TP3      O19402   4.337   1.296   0.408
 2528TP3     H119403   4.340   1.391   0.396
 2528TP3     H219404   4.246   1.279   0.434
 2529TP3      O19405   3.899   1.267   9.809
 2529TP3     H119406   3.898   1.307   9.722
 2529TP3     H219407   3.924   1.339   9.868
 2530TP3      O19408   5.260   1.422   0.177
 2530TP3     H119409   5.166   1.432   0.190
 2530TP3     H219410   5.292   1.511   0.164
 2531TP3      O19411   5.339   0.289   0.298
 2531TP3     H119412   5.248   0.272   0.274
 2531TP3     H219413   5.364   0.364   0.244
 2532TP3      O19414   4.588   0.074   0.058
 2532TP3     H119415   4.573  -0.020   0.066
 2532TP3     H219416   4.513   0.114   0.102
 2533TP3      O19417   5.088   1.588  10.094
 2533TP3     H119418   5.133   1.505  10.082
 2533TP3     H219419   5.159   1.653  10.100
 2534TP3      O19420   5.212   1.352  10.038
 2534TP3     H119421   5.132   1.309  10.009
 2534TP3     H219422   5.235   1.307  10.119
 2535TP3      O19423   5.380   1.172   0.533
 2535TP3     H119424   5.378   1.120   0.453
 2535TP3     H219425   5.405   1.260   0.504
 2536TP3      O19426   4.842   0.924   9.835
 2536TP3     H119427   4.772   0.985   9.812
 2536TP3     H219428   4.904   0.929   9.762
 2537TP3      O19429   4.842   0.744   9.548
 2537TP3     H119430   4.914   0.790   9.593
 2537TP3     H219431   4.884   0.670   9.505
 2538TP3      O19432   5.196   0.958   9.901
 2538TP3     H119433   5.127   0.979   9.963
 2538TP3     H219434   5.257   0.903   9.951
 2539TP3      O19435   5.139   0.749   0.548
 2539TP3     H119436   5.130   0.816   0.615
 2539TP3     H219437   5.072   0.771   0.482
 2540TP3      O19438   4.354   0.997  10.104
 2540TP3     H119439   4.331   0.957  10.020
 2540TP3     H219440   4.404   0.929  10.150
 2541TP3      O19441   4.503   1.352   0.050
 2541TP3     H119442   4.503   1.356  -0.046
 2541TP3     H219443   4.576   1.294   0.072
 2542TP3      O19444   4.338   0.899   0.164
 2542TP3     H119445   4.392   0.871   0.091
 2542TP3     H219446   4.391   0.965   0.210
 2543TP3      O19447   4.998   1.464   0.238
 2543TP3     H119448   4.994   1.523   0.312
 2543TP3     H219449   4.965   1.381   0.271
 2544TP3      O19450   4.493   1.324   0.635
 2544TP3     H119451   4.429   1.381   0.678
 2544TP3     H219452   4.448   1.295   0.555
 2545TP3      O19453   5.076   0.887   9.666
 2545TP3     H119454   5.117   0.918   9.746
 2545TP3     H219455   5.129   0.926   9.596
 2546TP3      O19456   4.153   0.904   0.599
 2546TP3     H119457   4.163   0.987   0.645
 2546TP3     H219458   4.061   0.904   0.570
 2547TP3      O19459   4.832   1.503  10.033
 2547TP3     H119460   4.914   1.545  10.059
 2547TP3     H219461   4.795   1.562   9.967
 2548TP3      O19462   4.290   1.500   0.703
 2548TP3     H119463   4.293   1.530   0.612
 2548TP3     H219464   4.197   1.491   0.722
 2549TP3      O19465   5.436   0.034   9.658
 2549TP3     H119466   5.354   0.074   9.687
 2549TP3     H219467   5.434   0.042   9.563
 2550TP3      O19468   4.273   0.909   9.844
 2550TP3     H119469   4.210   0.974   9.813
 2550TP3     H219470   4.228   0.825   9.834
 2551TP3      O19471   3.855   1.155   0.457
 2551TP3     H119472   3.803   1.164   0.377
 2551TP3     H219473   3.868   1.061   0.468
 2552TP3      O19474   3.822   1.443   0.131
 2552TP3     H119475   3.908   1.441   0.173
 2552TP3     H219476   3.779   1.519   0.170
 2553TP3      O19477   4.729   1.452   0.583
 2553TP3     H119478   4.725   1.535   0.631
 2553TP3     H219479   4.646   1.409   0.603
 2554TP3      O19480   4.810   1.795   9.879
 2554TP3     H119481   4.794   1.810   9.786
 2554TP3     H219482   4.781   1.875   9.922
 2555TP3      O19483   4.160   1.678  10.074
 2555TP3     H119484   4.179   1.649  10.163
 2555TP3     H219485   4.103   1.611  10.038
 2556TP3      O19486   5.106   1.769   9.569
 2556TP3     H119487   5.159   1.698   9.532
 2556TP3     H219488   5.102   1.748   9.662
 2557TP3      O19489   5.069   1.725   9.840
 2557TP3     H119490   4.976   1.743   9.856
 2557TP3     H219491   5.093   1.664   9.910
 2558TP3      O19492   5.361   0.663   0.765
 2558TP3     H119493   5.308   0.665   0.685
 2558TP3     H219494   5.442   0.618   0.740
 2559TP3      O19495   4.084   1.294   0.514
 2559TP3     H119496   4.108   1.258   0.599
 2559TP3     H219497   4.003   1.248   0.490
 2560TP3      O19498   4.347   0.139   0.181
 2560TP3     H119499   4.283   0.132   0.111
 2560TP3     H219500   4.308   0.202   0.242
 2561TP3      O19501   4.812   0.080   0.505
 2561TP3     H119502   4.812   0.037   0.591
 2561TP3     H219503   4.720   0.099   0.488
 2562TP3      O19504   5.128   0.470   0.586
 2562TP3     H119505   5.058   0.459   0.650
 2562TP3     H219506   5.127   0.564   0.565
 2563TP3      O19507   5.236   0.989   9.462
 2563TP3     H119508   5.237   0.998   9.367
 2563TP3     H219509   5.324   1.017   9.490
 2564TP3      O19510   4.802   0.287   9.548
 2564TP3     H119511   4.744   0.299   9.623
 2564TP3     H219512   4.857   0.212   9.572
 2565TP3      O19513   4.349   0.646   0.277
 2565TP3     H119514   4.281   0.644   0.344
 2565TP3     H219515   4.349   0.737   0.247
 2566TP3      O19516   4.344   0.644  10.082
 2566TP3     H119517   4.249   0.634  10.077
 2566TP3     H219518   4.375   0.622   9.994
 2567TP3      O19519   4.888   0.677   9.945
 2567TP3     H119520   4.866   0.764   9.911
 2567TP3     H219521   4.959   0.647   9.889
 2568TP3      O19522   4.807   0.693   0.751
 2568TP3     H119523   4.756   0.620   0.788
 2568TP3     H219524   4.892   0.686   0.793
 2569TP3      O19525   4.977   0.623  10.212
 2569TP3     H119526   4.935   0.674  10.143
 2569TP3     H219527   5.020   0.551  10.167
 2570TP3      O19528   4.130   0.646   0.442
 2570TP3     H119529   4.131   0.695   0.525
 2570TP3     H219530   4.088   0.563   0.464
 2571TP3      O19531   4.464   0.472   9.452
 2571TP3     H119532   4.413   0.502   9.527
 2571TP3     H219533   4.434   0.526   9.379
 2572TP3      O19534   3.812   0.298  10.155
 2572TP3     H119535   3.849   0.330  10.237
 2572TP3     H219536   3.857   0.348  10.087
 2573TP3      O19537   3.866   0.464   9.651
 2573TP3     H119538   3.945   0.502   9.612
 2573TP3     H219539   3.810   0.540   9.670
 2574TP3      O19540   4.935   0.762   0.352
 2574TP3     H119541   4.972   0.704   0.287
 2574TP3     H219542   4.871   0.708   0.400
 2575TP3      O19543   4.652   0.390  10.177
 2575TP3     H119544   4.562   0.387  10.208
 2575TP3     H219545   4.704   0.359  10.251
 2576TP3      O19546   4.083   0.567  10.045
 2576TP3     H119547   4.008   0.590   9.990
 2576TP3     H219548   4.110   0.481  10.013
 2577TP3      O19549   4.413   0.570   9.831
 2577TP3     H119550   4.509   0.568   9.839
 2577TP3     H219551   4.397   0.617   9.749
 2578TP3      O19552   5.035   0.308   0.205
 2578TP3     H119553   4.985   0.321   0.286
 2578TP3     H219554   4.969   0.285   0.140
 2579TP3      O19555   4.322   0.675   9.596
 2579TP3     H119556   4.233   0.664   9.565
 2579TP3     H219557   4.368   0.716   9.522
 2580TP3      O19558   5.412   1.865   0.835
 2580TP3     H119559   5.417   1.898   0.745
 2580TP3     H219560   5.503   1.850   0.860
 2581TP3      O19561   4.152   1.144   0.753
 2581TP3     H119562   4.217   1.135   0.822
 2581TP3     H219563   4.069   1.149   0.799
 2582TP3      O19564   4.716   0.690   0.042
 2582TP3     H119565   4.787   0.640   0.001
 2582TP3     H219566   4.687   0.635   0.115
 2583TP3      O19567   4.207   0.320   9.996
 2583TP3     H119568   4.151   0.246  10.017
 2583TP3     H219569   4.252   0.294   9.916
 2584TP3      O19570   4.610   0.557   0.265
 2584TP3     H119571   4.525   0.600   0.276
 2584TP3     H219572   4.659   0.581   0.343
 2585TP3      O19573   4.653   1.113   9.762
 2585TP3     H119574   4.579   1.070   9.718
 2585TP3     H219575   4.617   1.143   9.845
 2586TP3      O19576   5.369   1.033   0.300
 2586TP3     H119577   5.446   1.010   0.249
 2586TP3     H219578   5.296   1.026   0.239
 2587TP3      O19579   5.057   0.372   9.659
 2587TP3     H119580   4.995   0.379   9.587
 2587TP3     H219581   5.073   0.463   9.686
 2588TP3      O19582   4.804   1.165   0.579
 2588TP3     H119583   4.828   1.126   0.662
 2588TP3     H219584   4.773   1.253   0.602
 2589TP3      O19585   5.102   0.623   9.765
 2589TP3     H119586   5.186   0.606   9.808
 2589TP3     H219587   5.109   0.712   9.731
 2590TP3      O19588   4.178   1.061  10.307
 2590TP3     H119589   4.236   1.051  10.232
 2590TP3     H219590   4.217   1.006  10.375
 2591TP3      O19591   4.877   1.269   9.709
 2591TP3     H119592   4.834   1.354   9.717
 2591TP3     H219593   4.805   1.205   9.715
 2592TP3      O19594   3.877   0.887   0.544
 2592TP3     H119595   3.847   0.842   0.623
 2592TP3     H219596   3.811   0.867   0.478
 2593TP3      O19597   4.594   0.876   0.776
 2593TP3     H119598   4.526   0.838   0.721
 2593TP3     H219599   4.673   0.826   0.756
 2594TP3      O19600   5.017   1.435   0.589
 2594TP3     H119601   4.925   1.438   0.561
 2594TP3     H219602   5.013   1.444   0.684
 2595TP3      O19603   5.408   1.473   9.777
 2595TP3     H119604   5.345   1.422   9.828
 2595TP3     H219605   5.434   1.414   9.706
 2596TP3      O19606   5.155   0.995   0.113
 2596TP3     H119607   5.059   0.988   0.108
 2596TP3     H219608   5.186   0.915   0.071
 2597TP3      O19609   4.432   1.422  10.096
 2597TP3     H119610   4.455   1.507  10.057
 2597TP3     H219611   4.336   1.419  10.093
 2598TP3      O19612   3.982   0.909   9.555
 2598TP3     H119613   4.022   0.964   9.622
 2598TP3     H219614   3.889   0.908   9.577
 2599TP3      O19615   4.522   1.185   9.986
 2599TP3     H119616   4.503   1.271  10.024
 2599TP3     H219617   4.466   1.124  10.033
 2600TP3      O19618   4.617   1.595   0.361
 2600TP3     H119619   4.678   1.665   0.339
 2600TP3     H219620   4.667   1.537   0.419
 2601TP3      O19621   4.417   1.691   9.978
 2601TP3     H119622   4.325   1.696  10.004
 2601TP3     H219623   4.458   1.767  10.019
 2602TP3      O19624   4.916   1.214   0.334
 2602TP3     H119625   4.877   1.192   0.419
 2602TP3     H219626   4.981   1.146   0.318
 2603TP3      O19627   5.141   1.319   9.577
 2603TP3     H119628   5.200   1.266   9.631
 2603TP3     H219629   5.053   1.299   9.609
 2604TP3      O19630   5.235   1.605   0.545
 2604TP3     H119631   5.163   1.544   0.556
 2604TP3     H219632   5.203   1.668   0.479
 2605TP3      O19633   4.011   0.399   0.499
 2605TP3     H119634   3.917   0.413   0.492
 2605TP3     H219635   4.020   0.323   0.557
 2606TP3      O19636   5.307   1.172   9.756
 2606TP3     H119637   5.260   1.105   9.806
 2606TP3     H219638   5.395   1.173   9.793
 2607TP3      O19639   4.015   1.552   0.348
 2607TP3     H119640   4.042   1.469   0.387
 2607TP3     H219641   4.024   1.615   0.419
 2608TP3      O19642   4.444   1.401   9.676
 2608TP3     H119643   4.519   1.354   9.714
 2608TP3     H219644   4.465   1.493   9.688
 2609TP3      O19645   4.096   1.090   9.731
 2609TP3     H119646   4.025   1.135   9.777
 2609TP3     H219647   4.144   1.161   9.687
 2610TP3      O19648   4.911   0.339   0.446
 2610TP3     H119649   4.986   0.361   0.501
 2610TP3     H219650   4.880   0.254   0.479
 2611TP3      O19651   4.972   0.287   9.904
 2611TP3     H119652   4.999   0.314   9.816
 2611TP3     H219653   5.021   0.345   9.962
 2612TP3      O19654   4.736   1.502   9.730
 2612TP3     H119655   4.663   1.563   9.737
 2612TP3     H219656   4.788   1.535   9.656
 2613TP3      O19657   4.669   0.514   9.927
 2613TP3     H119658   4.746   0.571   9.931
 2613TP3     H219659   4.661   0.480  10.016
 2614TP3      O19660   4.775   0.588   0.487
 2614TP3     H119661   4.782   0.614   0.579
 2614TP3     H219662   4.812   0.500   0.484
 2615TP3      O19663   4.747   0.195  10.005
 2615TP3     H119664   4.726   0.268  10.063
 2615TP3     H219665   4.831   0.219   9.967
 2616TP3      O19666   4.512   1.665   9.723
 2616TP3     H119667   4.500   1.752   9.683
 2616TP3     H219668   4.478   1.675   9.812
 2617TP3      O19669   4.357   0.312   9.748
 2617TP3     H119670   4.359   0.402   9.780
 2617TP3     H219671   4.449   0.286   9.741
 2618TP3      O19672   5.371   0.337   0.584
 2618TP3     H119673   5.288   0.382   0.597
 2618TP3     H219674   5.382   0.334   0.489
 2619TP3      O19675   5.222   0.746  -0.001
 2619TP3     H119676   5.137   0.711  -0.027
 2619TP3     H219677   5.259   0.679   0.057
 2620TP3      O19678   4.201   1.312   9.592
 2620TP3     H119679   4.277   1.356   9.631
 2620TP3     H219680   4.238   1.255   9.525
 2621TP3      O19681   4.058   0.648   9.506
 2621TP3     H119682   4.028   0.738   9.517
 2621TP3     H219683   4.033   0.626   9.416
 2622TP3      O19684   5.370   1.675   0.167
 2622TP3     H119685   5.360   1.749   0.107
 2622TP3     H219686   5.454   1.635   0.142
 2623TP3      O19687   4.112   0.144  10.332
 2623TP3     H119688   4.095   0.138  10.238
 2623TP3     H219689   4.072   0.066  10.369
 2624TP3      O19690   3.968   1.498   9.966
 2624TP3     H119691   3.909   1.527  10.036
 2624TP3     H219692   3.957   1.563   9.897
 2625TP3      O19693   3.933   1.782   0.822
 2625TP3     H119694   4.000   1.760   0.887
 2625TP3     H219695   3.905   1.698   0.786
 2626TP3      O19696   4.354   1.604   0.948
 2626TP3     H119697   4.435   1.560   0.975
 2626TP3     H219698   4.336   1.570   0.860
 2627TP3      O19699   4.876   1.583   9.515
 2627TP3     H119700   4.830   1.553   9.436
 2627TP3     H219701   4.969   1.573   9.493
 2628TP3      O19702   4.997   1.461   0.859
 2628TP3     H119703   4.985   1.378   0.904
 2628TP3     H219704   5.069   1.504   0.906
 2629TP3      O19705   5.209   1.548   9.437
 2629TP3     H119706   5.188   1.468   9.486
 2629TP3     H219707   5.296   1.531   9.400
 2630TP3      O19708   3.904   1.155   0.881
 2630TP3     H119709   3.909   1.059   0.875
 2630TP3     H219710   3.833   1.179   0.822
 2631TP3      O19711   4.305   1.111   9.445
 2631TP3     H119712   4.354   1.072   9.518
 2631TP3     H219713   4.351   1.081   9.367
 2632TP3      O19714   4.561   1.150   0.838
 2632TP3     H119715   4.546   1.195   0.755
 2632TP3     H219716   4.586   1.061   0.814
 2633TP3      O19717   5.120   1.165   0.614
 2633TP3     H119718   5.210   1.173   0.583
 2633TP3     H219719   5.080   1.249   0.593
 2634TP3      O19720   3.981   0.891   0.860
 2634TP3     H119721   4.054   0.842   0.824
 2634TP3     H219722   3.988   0.879   0.955
 2635TP3      O19723   4.453   0.976   9.634
 2635TP3     H119724   4.400   0.941   9.706
 2635TP3     H219725   4.491   0.900   9.592
 2636TP3      O19726   4.401   0.771   0.597
 2636TP3     H119727   4.320   0.822   0.591
 2636TP3     H219728   4.456   0.806   0.527
 2637TP3      O19729   4.578   0.788   9.480
 2637TP3     H119730   4.574   0.739   9.398
 2637TP3     H219731   4.667   0.774   9.512
 2638TP3      O19732   4.904   1.010   0.884
 2638TP3     H119733   4.981   0.973   0.840
 2638TP3     H219734   4.873   0.939   0.940
 2639TP3      O19735  -0.006   1.037   9.383
 2639TP3     H119736  -0.034   1.009   9.296
 2639TP3     H219737   0.085   1.064   9.371
 2640TP3      O19738   4.446   0.513   0.668
 2640TP3     H119739   4.453   0.458   0.590
 2640TP3     H219740   4.432   0.601   0.633
 2641TP3      O19741   4.474   0.366   0.431
 2641TP3     H119742   4.524   0.413   0.363
 2641TP3     H219743   4.385   0.361   0.395
 2642TP3      O19744   4.579   0.872   0.423
 2642TP3     H119745   4.674   0.882   0.430
 2642TP3     H219746   4.549   0.952   0.379
 2643TP3      O19747   5.045   0.646   0.906
 2643TP3     H119748   5.060   0.551   0.913
 2643TP3     H219749   5.132   0.682   0.889
 2644TP3      O19750   5.158   0.943   0.762
 2644TP3     H119751   5.135   1.022   0.713
 2644TP3     H219752   5.254   0.939   0.757
 2645TP3      O19753   4.289   0.573   0.891
 2645TP3     H119754   4.206   0.527   0.878
 2645TP3     H219755   4.336   0.562   0.809
 2646TP3      O19756   4.538   0.103   0.462
 2646TP3     H119757   4.525   0.198   0.466
 2646TP3     H219758   4.476   0.074   0.395
 2647TP3      O19759   4.664   0.476   0.829
 2647TP3     H119760   4.629   0.444   0.912
 2647TP3     H219761   4.588   0.482   0.772
 2648TP3      O19762   4.921   0.406   0.746
 2648TP3     H119763   4.832   0.414   0.779
 2648TP3     H219764   4.968   0.360   0.815
 2649TP3      O19765   5.094   0.303   0.936
 2649TP3     H119766   5.080   0.211   0.917
 2649TP3     H219767   5.071   0.313   1.029
 2650TP3      O19768   4.081   0.399   0.853
 2650TP3     H119769   4.079   0.327   0.791
 2650TP3     H219770   4.095   0.357   0.938
 2651TP3      O19771   4.532   0.029   0.737
 2651TP3     H119772   4.620  -0.008   0.742
 2651TP3     H219773   4.520   0.051   0.645
 2652TP3      O19774   4.619   0.181   0.951
 2652TP3     H119775   4.584   0.125   0.881
 2652TP3     H219776   4.551   0.247   0.964
 2653TP3      O19777   4.571   1.908   9.527
 2653TP3     H119778   4.658   1.883   9.558
 2653TP3     H219779   4.567   1.875   9.438
 2654TP3      O19780   3.936   1.334   9.529
 2654TP3     H119781   4.028   1.345   9.551
 2654TP3     H219782   3.937   1.278   9.451
 2655TP3      O19783   3.795   1.834  10.061
 2655TP3     H119784   3.736   1.806   9.991
 2655TP3     H219785   3.810   1.754  10.113
 2656TP3      O19786   3.861   1.615  10.216
 2656TP3     H119787   3.822   1.539  10.259
 2656TP3     H219788   3.911   1.659  10.285
 2657TP3      O19789   5.432   1.268   0.953
 2657TP3     H119790   5.353   1.271   1.006
 2657TP3     H219791   5.442   1.357   0.919
 2658TP3      O19792   5.406   1.418   0.419
 2658TP3     H119793   5.358   1.490   0.460
 2658TP3     H219794   5.367   1.410   0.332
 2659TP3      O19795   5.518   0.607   9.400
 2659TP3     H119796   5.494   0.637   9.312
 2659TP3     H219797   5.438   0.568   9.436
 2660TP3      O19798   5.333   0.780  10.061
 2660TP3     H119799   5.319   0.688  10.039
 2660TP3     H219800   5.310   0.787  10.153
 2661TP3      O19801   3.851   0.964   0.162
 2661TP3     H119802   3.861   0.949   0.068
 2661TP3     H219803   3.934   0.935   0.199
 2662TP3      O19804   5.431   0.990   0.732
 2662TP3     H119805   5.491   0.933   0.684
 2662TP3     H219806   5.416   1.064   0.672
 2663TP3      O19807   5.332   0.536   9.899
 2663TP3     H119808   5.353   0.442   9.905
 2663TP3     H219809   5.417   0.579   9.895
 2664TP3      O19810   5.359   0.534   0.160
 2664TP3     H119811   5.443   0.574   0.137
 2664TP3     H219812   5.340   0.567   0.248
 2665TP3      O19813   5.353   0.659   0.400
 2665TP3     H119814   5.279   0.695   0.448
 2665TP3     H219815   5.412   0.734   0.389
 2666TP3      O19816   3.844   0.519   0.817
 2666TP3     H119817   3.931   0.482   0.826
 2666TP3     H219818   3.788   0.444   0.795
 2667TP3      O19819   5.382   0.270   9.939
 2667TP3     H119820   5.399   0.215  10.016
 2667TP3     H219821   5.320   0.219   9.886
 2668TP3      O19822   3.947   0.356   0.074
 2668TP3     H119823   3.999   0.276   0.063
 2668TP3     H219824   4.012   0.424   0.092
 2669TP3      O19825   3.771   0.631   0.128
 2669TP3     H119826   3.842   0.631   0.064
 2669TP3     H219827   3.803   0.689   0.198
 2670TP3      O19828   3.826   0.269   9.844
 2670TP3     H119829   3.733   0.266   9.867
 2670TP3     H219830   3.834   0.345   9.786
 2671TP3      O19831   5.279   1.774  10.083
 2671TP3     H119832   5.330   1.764  10.002
 2671TP3     H219833   5.344   1.798  10.149
 2672TP3      O19834   3.841   0.134   0.392
 2672TP3     H119835   3.784   0.128   0.469
 2672TP3     H219836   3.800   0.199   0.336
 2673TP3      O19837   4.027   1.483   0.793
 2673TP3     H119838   3.937   1.485   0.761
 2673TP3     H219839   4.022   1.437   0.877
 2674TP3      O19840   4.354   1.573   0.437
 2674TP3     H119841   4.324   1.660   0.412
 2674TP3     H219842   4.448   1.574   0.418
 2675TP3      O19843   4.728   1.694   0.719
 2675TP3     H119844   4.738   1.661   0.808
 2675TP3     H219845   4.808   1.744   0.703
 2676TP3      O19846   4.962   1.833   0.680
 2676TP3     H119847   5.020   1.779   0.626
 2676TP3     H219848   5.017   1.860   0.754
 2677TP3      O19849   5.430   0.061   0.570
 2677TP3     H119850   5.403   0.150   0.591
 2677TP3     H219851   5.349   0.013   0.554
 2678TP3      O19852   4.059   1.883   0.457
 2678TP3     H119853   3.976   1.915   0.420
 2678TP3     H219854   4.065   1.925   0.542
 2679TP3      O19855   4.310   1.835   0.367
 2679TP3     H119856   4.221   1.851   0.396
 2679TP3     H219857   4.317   1.880   0.283
 2680TP3      O19858   4.772   1.809   0.275
 2680TP3     H119859   4.720   1.844   0.203
 2680TP3     H219860   4.776   1.881   0.339
 2681TP3      O19861   5.007   1.709   0.386
 2681TP3     H119862   4.927   1.739   0.343
 2681TP3     H219863   5.075   1.769   0.356
 2682TP3      O19864   5.245   1.846   0.342
 2682TP3     H119865   5.267   1.932   0.306
 2682TP3     H219866   5.288   1.784   0.283
 2683TP3      O19867   4.018   1.715   0.121
 2683TP3     H119868   4.012   1.666   0.203
 2683TP3     H219869   4.096   1.680   0.078
 2684TP3      O19870   4.233   1.597   0.009
 2684TP3     H119871   4.220   1.505   0.031
 2684TP3     H219872   4.320   1.618   0.043
 2685TP3      O19873   4.494   1.624   0.113
 2685TP3     H119874   4.503   1.534   0.080
 2685TP3     H219875   4.526   1.620   0.203
 2686TP3      O19876   4.827   0.233   0.025
 2686TP3     H119877   4.758   0.168   0.039
 2686TP3     H219878   4.891   0.189  -0.031
 2687TP3      O19879   5.271   0.101  10.326
 2687TP3     H119880   5.340   0.110  10.261
 2687TP3     H219881   5.190   0.101  10.275
 2688TP3      O19882   5.482   0.124  10.149
 2688TP3     H119883   5.502   0.042  10.103
 2688TP3     H219884   5.559   0.140  10.203
 2689TP3      O19885   4.045   0.114  10.062
 2689TP3     H119886   3.954   0.113  10.033
 2689TP3     H219887   4.073   0.023  10.054
 2690TP3      O19888   3.974   0.119   9.666
 2690TP3     H119889   4.019   0.186   9.615
 2690TP3     H219890   3.925   0.168   9.732
 2691TP3      O19891   4.528   0.076  10.105
 2691TP3     H119892   4.606   0.113  10.063
 2691TP3     H219893   4.546   0.083  10.199
 2692TP3      O19894   5.024   0.104  10.191
 2692TP3     H119895   5.022   0.108  10.095
 2692TP3     H219896   4.997   0.014  10.211
 2693TP3      O19897   5.207   0.135   9.781
 2693TP3     H119898   5.154   0.193   9.725
 2693TP3     H219899   5.146   0.069   9.812
 2694TP3      O19900   3.939   1.684   9.774
 2694TP3     H119901   3.865   1.666   9.716
 2694TP3     H219902   3.950   1.779   9.769
 2695TP3      O19903   4.201   0.250   9.527
 2695TP3     H119904   4.209   0.155   9.521
 2695TP3     H219905   4.252   0.275   9.604
 2696TP3      O19906   4.635   0.292   9.769
 2696TP3     H119907   4.664   0.228   9.834
 2696TP3     H219908   4.648   0.377   9.811
 2697TP3      O19909   4.823   1.834   9.602
 2697TP3     H119910   4.909   1.874   9.589
 2697TP3     H219911   4.833   1.743   9.572
 2698TP3      O19912   5.437   1.732   9.862
 2698TP3     H119913   5.431   1.643   9.825
 2698TP3     H219914   5.442   1.789   9.785
 2699TP3      O19915   4.072   0.183   0.688
 2699TP3     H119916   4.011   0.111   0.701
 2699TP3     H219917   4.153   0.154   0.730
 2700TP3      O19918   4.276   0.093   0.859
 2700TP3     H119919   4.361   0.064   0.827
 2700TP3     H219920   4.239   0.017   0.903
 2701TP3      O19921   4.180   1.784   9.527
 2701TP3     H119922   4.140   1.745   9.604
 2701TP3     H219923   4.131   1.749   9.453
 2702TP3      O19924   5.057   0.033   0.872
 2702TP3     H119925   5.037   0.009   0.962
 2702TP3     H219926   5.136  -0.017   0.850
 2703TP3      O19927   5.366   1.589   0.800
 2703TP3     H119928   5.333   1.584   0.710
 2703TP3     H219929   5.385   1.682   0.813
 2704TP3      O19930   1.204   2.881  10.068
 2704TP3     H119931   1.196   2.977  10.063
 2704TP3     H219932   1.141   2.849  10.003
 2705TP3      O19933   1.102   2.821   0.141
 2705TP3     H119934   1.120   2.770   0.220
 2705TP3     H219935   1.071   2.756   0.078
 2706TP3      O19936   0.314   2.750   0.283
 2706TP3     H119937   0.323   2.668   0.332
 2706TP3     H219938   0.400   2.763   0.243
 2707TP3      O19939   1.474   3.117  -0.029
 2707TP3     H119940   1.441   3.040   0.018
 2707TP3     H219941   1.496   3.179   0.040
 2708TP3      O19942   0.450   3.219   0.081
 2708TP3     H119943   0.421   3.131   0.055
 2708TP3     H219944   0.545   3.211   0.088
 2709TP3      O19945   0.061   2.551   9.986
 2709TP3     H119946   0.007   2.625  10.013
 2709TP3     H219947   0.043   2.483  10.051
 2710TP3      O19948   0.160   2.802  10.243
 2710TP3     H119949   0.198   2.714  10.241
 2710TP3     H219950   0.233   2.861  10.223
 2711TP3      O19951   1.207   3.596  10.306
 2711TP3     H119952   1.251   3.546  10.236
 2711TP3     H219953   1.147   3.533  10.346
 2712TP3      O19954   0.931   3.060   0.157
 2712TP3     H119955   0.972   2.984   0.117
 2712TP3     H219956   0.995   3.093   0.220
 2713TP3      O19957   1.814   2.198   0.251
 2713TP3     H119958   1.833   2.267   0.314
 2713TP3     H219959   1.863   2.223   0.173
 2714TP3      O19960   1.227   2.475   0.156
 2714TP3     H119961   1.256   2.386   0.174
 2714TP3     H219962   1.228   2.482   0.061
 2715TP3      O19963   0.570   2.272  10.210
 2715TP3     H119964   0.587   2.359  10.176
 2715TP3     H219965   0.531   2.224  10.137
 2716TP3      O19966   1.374   2.328  10.061
 2716TP3     H119967   1.418   2.294  10.139
 2716TP3     H219968   1.445   2.360  10.006
 2717TP3      O19969   0.260   2.545  10.269
 2717TP3     H119970   0.313   2.491  10.327
 2717TP3     H219971   0.272   2.507  10.182
 2718TP3      O19972   0.708   2.671  10.259
 2718TP3     H119973   0.789   2.624  10.279
 2718TP3     H219974   0.661   2.612  10.199
 2719TP3      O19975   1.859   2.366   0.471
 2719TP3     H119976   1.785   2.424   0.454
 2719TP3     H219977   1.879   2.380   0.563
 2720TP3      O19978   0.452   2.207   0.319
 2720TP3     H119979   0.418   2.266   0.252
 2720TP3     H219980   0.391   2.214   0.392
 2721TP3      O19981   1.175   3.142   9.983
 2721TP3     H119982   1.160   3.141   9.889
 2721TP3     H219983   1.128   3.219  10.015
 2722TP3      O19984   0.705   2.975   0.294
 2722TP3     H119985   0.655   3.046   0.334
 2722TP3     H219986   0.777   3.019   0.249
 2723TP3      O19987   1.475   2.271  -0.011
 2723TP3     H119988   1.417   2.237   0.057
 2723TP3     H219989   1.537   2.327   0.036
 2724TP3      O19990   0.419   2.371   0.100
 2724TP3     H119991   0.479   2.427   0.150
 2724TP3     H219992   0.475   2.330   0.034
 2725TP3      O19993   0.557   3.179   0.415
 2725TP3     H119994   0.563   3.273   0.399
 2725TP3     H219995   0.467   3.165   0.443
 2726TP3      O19996   0.139   3.157   9.811
 2726TP3     H119997   0.097   3.202   9.738
 2726TP3     H219998   0.167   3.227   9.870
 2727TP3      O19999   1.510   3.320   0.167
 2727TP3     H120000   1.416   3.316   0.184
 2727TP3     H220001   1.525   3.411   0.141
 2728TP3      O20002   1.565   2.093   0.336
 2728TP3     H120003   1.496   2.136   0.285
 2728TP3     H220004   1.646   2.121   0.294
 2729TP3      O20005   0.812   1.905   0.076
 2729TP3     H120006   0.798   1.811   0.065
 2729TP3     H220007   0.765   1.927   0.156
 2730TP3      O20008   1.332   3.477  10.089
 2730TP3     H120009   1.369   3.390  10.074
 2730TP3     H220010   1.407   3.535  10.096
 2731TP3      O20011   1.431   3.231  10.042
 2731TP3     H120012   1.352   3.184  10.016
 2731TP3     H220013   1.459   3.186  10.122
 2732TP3      O20014   1.592   3.103   0.512
 2732TP3     H120015   1.600   3.045   0.436
 2732TP3     H220016   1.642   3.181   0.489
 2733TP3      O20017   1.065   2.803   9.842
 2733TP3     H120018   1.000   2.868   9.816
 2733TP3     H220019   1.129   2.803   9.771
 2734TP3      O20020   1.071   2.625   9.542
 2734TP3     H120021   1.142   2.675   9.582
 2734TP3     H220022   1.113   2.545   9.511
 2735TP3      O20023   1.790   2.760   0.353
 2735TP3     H120024   1.717   2.821   0.346
 2735TP3     H220025   1.849   2.785   0.282
 2736TP3      O20026   1.422   2.832   9.910
 2736TP3     H120027   1.355   2.852   9.975
 2736TP3     H220028   1.490   2.785   9.959
 2737TP3      O20029   1.387   2.630   0.549
 2737TP3     H120030   1.384   2.703   0.611
 2737TP3     H220031   1.325   2.654   0.480
 2738TP3      O20032   0.583   2.877  10.105
 2738TP3     H120033   0.559   2.842  10.020
 2738TP3     H220034   0.635   2.808  10.146
 2739TP3      O20035   0.729   3.238   0.050
 2739TP3     H120036   0.730   3.244  -0.046
 2739TP3     H220037   0.803   3.181   0.071
 2740TP3      O20038   0.568   2.779   0.162
 2740TP3     H120039   0.623   2.753   0.088
 2740TP3     H220040   0.618   2.846   0.207
 2741TP3      O20041   1.251   3.314   0.238
 2741TP3     H120042   1.225   3.386   0.297
 2741TP3     H220043   1.207   3.237   0.275
 2742TP3      O20044   0.718   3.210   0.639
 2742TP3     H120045   0.656   3.268   0.683
 2742TP3     H220046   0.672   3.180   0.560
 2743TP3      O20047   1.291   2.768   9.678
 2743TP3     H120048   1.338   2.796   9.756
 2743TP3     H220049   1.335   2.813   9.606
 2744TP3      O20050   0.419   2.808   0.570
 2744TP3     H120051   0.412   2.875   0.638
 2744TP3     H220052   0.359   2.837   0.502
 2745TP3      O20053   1.072   3.392  10.038
 2745TP3     H120054   1.157   3.433  10.055
 2745TP3     H220055   1.031   3.448   9.972
 2746TP3      O20056   0.521   3.395   0.701
 2746TP3     H120057   0.531   3.423   0.610
 2746TP3     H220058   0.426   3.396   0.716
 2747TP3      O20059   1.673   1.926   9.663
 2747TP3     H120060   1.588   1.952   9.701
 2747TP3     H220061   1.710   2.008   9.629
 2748TP3      O20062   0.501   2.792   9.845
 2748TP3     H120063   0.443   2.862   9.815
 2748TP3     H220064   0.453   2.711   9.829
 2749TP3      O20065   1.809   3.367   9.556
 2749TP3     H120066   1.832   3.460   9.552
 2749TP3     H220067   1.894   3.322   9.551
 2750TP3      O20068   0.140   2.982   0.459
 2750TP3     H120069   0.078   2.987   0.386
 2750TP3     H220070   0.122   2.898   0.500
 2751TP3      O20071   0.064   3.375   0.140
 2751TP3     H120072   0.078   3.282   0.123
 2751TP3     H220073   0.118   3.394   0.217
 2752TP3      O20074   1.827   3.325   0.750
 2752TP3     H120075   1.884   3.384   0.701
 2752TP3     H220076   1.748   3.377   0.767
 2753TP3      O20077   0.952   3.339   0.584
 2753TP3     H120078   0.952   3.421   0.633
 2753TP3     H220079   0.870   3.296   0.607
 2754TP3      O20080   1.044   3.688   9.884
 2754TP3     H120081   1.028   3.697   9.790
 2754TP3     H220082   1.008   3.768   9.922
 2755TP3      O20083   0.398   3.558  10.072
 2755TP3     H120084   0.407   3.527  10.162
 2755TP3     H220085   0.333   3.499  10.033
 2756TP3      O20086   1.342   3.671   9.577
 2756TP3     H120087   1.371   3.587   9.540
 2756TP3     H220088   1.339   3.655   9.671
 2757TP3      O20089   1.309   3.641   9.851
 2757TP3     H120090   1.215   3.653   9.865
 2757TP3     H220091   1.334   3.574   9.914
 2758TP3      O20092   1.571   2.512   0.750
 2758TP3     H120093   1.512   2.549   0.685
 2758TP3     H220094   1.578   2.420   0.725
 2759TP3      O20095   0.305   3.181   0.546
 2759TP3     H120096   0.346   3.132   0.618
 2759TP3     H220097   0.241   3.120   0.510
 2760TP3      O20098   0.552   2.043   0.118
 2760TP3     H120099   0.465   2.019   0.084
 2760TP3     H220100   0.533   2.096   0.195
 2761TP3      O20101   1.042   1.980   0.496
 2761TP3     H120102   1.088   1.932   0.565
 2761TP3     H220103   0.949   1.970   0.517
 2762TP3      O20104   1.327   2.357   0.567
 2762TP3     H120105   1.270   2.345   0.642
 2762TP3     H220106   1.337   2.452   0.559
 2763TP3      O20107   1.429   2.892   9.477
 2763TP3     H120108   1.405   2.978   9.443
 2763TP3     H220109   1.521   2.901   9.501
 2764TP3      O20110   1.045   2.266   9.556
 2764TP3     H120111   0.983   2.250   9.627
 2764TP3     H220112   1.003   2.228   9.479
 2765TP3      O20113   0.577   2.523   0.265
 2765TP3     H120114   0.514   2.523   0.337
 2765TP3     H220115   0.580   2.614   0.236
 2766TP3      O20116   0.573   2.511  10.080
 2766TP3     H120117   0.479   2.506  10.066
 2766TP3     H220118   0.611   2.498   9.994
 2767TP3      O20119   1.121   2.555   9.944
 2767TP3     H120120   1.097   2.642   9.911
 2767TP3     H220121   1.194   2.528   9.889
 2768TP3      O20122   1.031   2.572   0.747
 2768TP3     H120123   0.983   2.499   0.785
 2768TP3     H220124   1.115   2.572   0.792
 2769TP3      O20125   1.215   2.500  10.204
 2769TP3     H120126   1.173   2.548  10.132
 2769TP3     H220127   1.265   2.431  10.160
 2770TP3      O20128   0.370   2.523   0.444
 2770TP3     H120129   0.387   2.569   0.526
 2770TP3     H220130   0.336   2.438   0.470
 2771TP3      O20131   0.642   2.327   9.443
 2771TP3     H120132   0.607   2.358   9.527
 2771TP3     H220133   0.640   2.403   9.386
 2772TP3      O20134   0.040   2.324  10.135
 2772TP3     H120135   0.096   2.296  10.208
 2772TP3     H220136   0.075   2.277  10.059
 2773TP3      O20137   0.128   2.346   9.674
 2773TP3     H120138   0.211   2.380   9.642
 2773TP3     H220139   0.062   2.389   9.620
 2774TP3      O20140   1.168   2.648   0.354
 2774TP3     H120141   1.199   2.588   0.286
 2774TP3     H220142   1.102   2.598   0.402
 2775TP3      O20143   0.878   2.230  10.211
 2775TP3     H120144   0.871   2.319  10.246
 2775TP3     H220145   0.956   2.193  10.253
 2776TP3      O20146   0.313   2.447  10.013
 2776TP3     H120147   0.235   2.494   9.984
 2776TP3     H220148   0.305   2.360   9.974
 2777TP3      O20149   0.646   2.456   9.825
 2777TP3     H120150   0.742   2.456   9.828
 2777TP3     H220151   0.624   2.502   9.745
 2778TP3      O20152   1.279   2.201   0.177
 2778TP3     H120153   1.234   2.204   0.261
 2778TP3     H220154   1.217   2.157   0.118
 2779TP3      O20155   0.554   2.558   9.591
 2779TP3     H120156   0.466   2.557   9.552
 2779TP3     H220157   0.609   2.600   9.524
 2780TP3      O20158   1.621   3.764   0.823
 2780TP3     H120159   1.646   3.801   0.739
 2780TP3     H220160   1.695   3.784   0.881
 2781TP3      O20161   0.396   3.023   0.755
 2781TP3     H120162   0.459   3.013   0.827
 2781TP3     H220163   0.312   3.034   0.799
 2782TP3      O20164   0.924   2.493   0.011
 2782TP3     H120165   1.019   2.497   0.006
 2782TP3     H220166   0.906   2.471   0.103
 2783TP3      O20167   0.505   2.116  10.007
 2783TP3     H120168   0.435   2.051  10.017
 2783TP3     H220169   0.513   2.127   9.912
 2784TP3      O20170   0.835   2.424   0.266
 2784TP3     H120171   0.752   2.470   0.274
 2784TP3     H220172   0.886   2.453   0.341
 2785TP3      O20173   0.883   2.996   9.765
 2785TP3     H120174   0.809   2.955   9.721
 2785TP3     H220175   0.846   3.028   9.848
 2786TP3      O20176   1.598   2.943   0.288
 2786TP3     H120177   1.659   2.999   0.240
 2786TP3     H220178   1.525   2.929   0.227
 2787TP3      O20179   1.298   2.252   9.657
 2787TP3     H120180   1.220   2.255   9.602
 2787TP3     H220181   1.320   2.344   9.672
 2788TP3      O20182   1.023   3.043   0.587
 2788TP3     H120183   1.057   3.008   0.670
 2788TP3     H220184   0.995   3.132   0.609
 2789TP3      O20185   1.339   2.505   9.777
 2789TP3     H120186   1.428   2.491   9.810
 2789TP3     H220187   1.343   2.590   9.732
 2790TP3      O20188   0.414   2.955  10.309
 2790TP3     H120189   0.470   2.940  10.232
 2790TP3     H220190   0.448   2.893  10.375
 2791TP3      O20191   1.106   3.150   9.717
 2791TP3     H120192   1.065   3.237   9.719
 2791TP3     H220193   1.033   3.089   9.721
 2792TP3      O20194   0.099   2.740   0.593
 2792TP3     H120195   0.149   2.741   0.674
 2792TP3     H220196   0.101   2.649   0.565
 2793TP3      O20197   0.822   2.758   0.773
 2793TP3     H120198   0.755   2.718   0.717
 2793TP3     H220199   0.902   2.708   0.755
 2794TP3      O20200   1.231   3.315   0.588
 2794TP3     H120201   1.138   3.320   0.566
 2794TP3     H220202   1.233   3.326   0.683
 2795TP3      O20203   1.781   2.540   9.712
 2795TP3     H120204   1.720   2.509   9.646
 2795TP3     H220205   1.799   2.631   9.687
 2796TP3      O20206   1.849   3.058   0.708
 2796TP3     H120207   1.826   3.148   0.729
 2796TP3     H220208   1.883   3.061   0.619
 2797TP3      O20209   1.653   3.393   9.784
 2797TP3     H120210   1.607   3.313   9.811
 2797TP3     H220211   1.699   3.368   9.704
 2798TP3      O20212   1.388   2.886   0.109
 2798TP3     H120213   1.292   2.879   0.109
 2798TP3     H220214   1.417   2.807   0.063
 2799TP3      O20215   0.663   3.307  10.098
 2799TP3     H120216   0.690   3.390  10.058
 2799TP3     H220217   0.568   3.307  10.089
 2800TP3      O20218   0.215   2.791   9.568
 2800TP3     H120219   0.252   2.857   9.627
 2800TP3     H220220   0.135   2.831   9.535
 2801TP3      O20221   0.750   3.069   9.989
 2801TP3     H120222   0.732   3.155  10.025
 2801TP3     H220223   0.692   3.010  10.036
 2802TP3      O20224   0.849   3.475   0.359
 2802TP3     H120225   0.914   3.540   0.331
 2802TP3     H220226   0.895   3.420   0.422
 2803TP3      O20227   0.655   3.568   9.978
 2803TP3     H120228   0.563   3.574  10.002
 2803TP3     H220229   0.695   3.646  10.017
 2804TP3      O20230   1.137   3.086   0.343
 2804TP3     H120231   1.099   3.067   0.429
 2804TP3     H220232   1.208   3.022   0.334
 2805TP3      O20233   1.356   3.185   9.588
 2805TP3     H120234   1.418   3.139   9.644
 2805TP3     H220235   1.271   3.171   9.629
 2806TP3      O20236   1.412   3.517   0.562
 2806TP3     H120237   1.351   3.443   0.565
 2806TP3     H220238   1.389   3.564   0.482
 2807TP3      O20239   1.864   3.636   9.578
 2807TP3     H120240   1.933   3.702   9.586
 2807TP3     H220241   1.783   3.684   9.590
 2808TP3      O20242   0.283   2.260   0.530
 2808TP3     H120243   0.220   2.311   0.580
 2808TP3     H220244   0.280   2.173   0.569
 2809TP3      O20245   1.530   3.034   9.746
 2809TP3     H120246   1.486   2.976   9.808
 2809TP3     H220247   1.623   3.028   9.769
 2810TP3      O20248   0.229   3.459   0.352
 2810TP3     H120249   0.257   3.383   0.403
 2810TP3     H220250   0.246   3.534   0.410
 2811TP3      O20251   0.659   3.281   9.670
 2811TP3     H120252   0.735   3.234   9.707
 2811TP3     H220253   0.681   3.373   9.681
 2812TP3      O20254   0.331   2.981   9.734
 2812TP3     H120255   0.259   3.025   9.778
 2812TP3     H220256   0.374   3.050   9.684
 2813TP3      O20257   1.144   2.221   0.413
 2813TP3     H120258   1.213   2.248   0.473
 2813TP3     H220259   1.111   2.139   0.449
 2814TP3      O20260   1.210   2.178   9.899
 2814TP3     H120261   1.238   2.205   9.811
 2814TP3     H220262   1.267   2.227   9.958
 2815TP3      O20263   0.969   3.385   9.725
 2815TP3     H120264   0.893   3.442   9.729
 2815TP3     H220265   1.021   3.420   9.653
 2816TP3      O20266   0.903   2.394   9.929
 2816TP3     H120267   0.981   2.450   9.926
 2816TP3     H220268   0.895   2.368  10.021
 2817TP3      O20269   1.002   2.471   0.483
 2817TP3     H120270   1.008   2.497   0.575
 2817TP3     H220271   1.042   2.384   0.479
 2818TP3      O20272   0.980   2.073   9.974
 2818TP3     H120273   0.958   2.132  10.047
 2818TP3     H220274   1.065   2.104   9.944
 2819TP3      O20275   0.742   3.540   9.719
 2819TP3     H120276   0.732   3.625   9.675
 2819TP3     H220277   0.709   3.556   9.808
 2820TP3      O20278   0.574   2.201   9.740
 2820TP3     H120279   0.580   2.290   9.775
 2820TP3     H220280   0.665   2.176   9.725
 2821TP3      O20281   1.579   2.266   0.607
 2821TP3     H120282   1.487   2.285   0.592
 2821TP3     H220283   1.611   2.231   0.524
 2822TP3      O20284   1.459   2.637  -0.011
 2822TP3     H120285   1.379   2.590  -0.032
 2822TP3     H220286   1.508   2.576   0.045
 2823TP3      O20287   0.408   3.203   9.580
 2823TP3     H120288   0.480   3.252   9.621
 2823TP3     H220289   0.452   3.141   9.523
 2824TP3      O20290   0.276   2.536   9.511
 2824TP3     H120291   0.261   2.627   9.536
 2824TP3     H220292   0.196   2.510   9.465
 2825TP3      O20293   1.573   3.598   0.152
 2825TP3     H120294   1.566   3.673   0.093
 2825TP3     H220295   1.667   3.587   0.166
 2826TP3      O20296   0.310   1.975   0.024
 2826TP3     H120297   0.309   1.955  -0.069
 2826TP3     H220298   0.278   1.895   0.066
 2827TP3      O20299   0.200   3.401   9.950
 2827TP3     H120300   0.116   3.422   9.990
 2827TP3     H220301   0.200   3.450   9.868
 2828TP3      O20302   0.177   3.661   0.816
 2828TP3     H120303   0.231   3.660   0.895
 2828TP3     H220304   0.185   3.572   0.781
 2829TP3      O20305   0.583   3.492   0.951
 2829TP3     H120306   0.665   3.451   0.980
 2829TP3     H220307   0.569   3.458   0.863
 2830TP3      O20308   1.112   3.470   9.510
 2830TP3     H120309   1.062   3.442   9.434
 2830TP3     H220310   1.204   3.457   9.484
 2831TP3      O20311   1.231   3.353   0.855
 2831TP3     H120312   1.216   3.270   0.902
 2831TP3     H220313   1.306   3.392   0.899
 2832TP3      O20314   1.390   3.422   9.455
 2832TP3     H120315   1.376   3.343   9.508
 2832TP3     H220316   1.475   3.408   9.413
 2833TP3      O20317   0.148   3.050   0.867
 2833TP3     H120318   0.140   2.955   0.862
 2833TP3     H220319   0.058   3.081   0.871
 2834TP3      O20320   0.525   2.992   9.458
 2834TP3     H120321   0.576   2.953   9.528
 2834TP3     H220322   0.585   2.997   9.384
 2835TP3      O20323   0.795   3.035   0.839
 2835TP3     H120324   0.776   3.081   0.757
 2835TP3     H220325   0.819   2.946   0.812
 2836TP3      O20326   1.344   3.056   0.604
 2836TP3     H120327   1.434   3.071   0.576
 2836TP3     H220328   1.300   3.140   0.592
 2837TP3      O20329   0.221   2.731   0.835
 2837TP3     H120330   0.265   2.646   0.837
 2837TP3     H220331   0.217   2.758   0.927
 2838TP3      O20332   0.685   2.858   9.637
 2838TP3     H120333   0.632   2.823   9.709
 2838TP3     H220334   0.723   2.781   9.595
 2839TP3      O20335   0.635   2.640   0.582
 2839TP3     H120336   0.562   2.702   0.581
 2839TP3     H220337   0.697   2.676   0.518
 2840TP3      O20338   0.805   2.666   9.481
 2840TP3     H120339   0.806   2.636   9.390
 2840TP3     H220340   0.895   2.653   9.512
 2841TP3      O20341   1.134   2.896   0.876
 2841TP3     H120342   1.212   2.859   0.834
 2841TP3     H220343   1.105   2.827   0.936
 2842TP3      O20344   1.714   2.968   9.418
 2842TP3     H120345   1.689   2.968   9.326
 2842TP3     H220346   1.729   3.060   9.439
 2843TP3      O20347   0.667   2.382   0.665
 2843TP3     H120348   0.677   2.325   0.589
 2843TP3     H220349   0.659   2.470   0.628
 2844TP3      O20350   0.701   2.227   0.429
 2844TP3     H120351   0.753   2.277   0.367
 2844TP3     H220352   0.613   2.223   0.390
 2845TP3      O20353   0.816   2.760   0.422
 2845TP3     H120354   0.905   2.785   0.446
 2845TP3     H220355   0.779   2.838   0.381
 2846TP3      O20356   1.267   2.540   0.909
 2846TP3     H120357   1.280   2.446   0.897
 2846TP3     H220358   1.356   2.576   0.914
 2847TP3      O20359   1.400   2.834   0.747
 2847TP3     H120360   1.372   2.914   0.701
 2847TP3     H220361   1.496   2.836   0.742
 2848TP3      O20362   0.502   2.435   0.887
 2848TP3     H120363   0.418   2.390   0.879
 2848TP3     H220364   0.545   2.419   0.803
 2849TP3      O20365   0.759   1.962   0.488
 2849TP3     H120366   0.738   2.054   0.473
 2849TP3     H220367   0.688   1.914   0.445
 2850TP3      O20368   0.891   2.353   0.829
 2850TP3     H120369   0.856   2.326   0.914
 2850TP3     H220370   0.814   2.356   0.772
 2851TP3      O20371   1.162   2.296   0.768
 2851TP3     H120372   1.071   2.296   0.796
 2851TP3     H220373   1.207   2.239   0.831
 2852TP3      O20374   1.330   2.171   0.951
 2852TP3     H120375   1.329   2.077   0.936
 2852TP3     H220376   1.304   2.182   1.042
 2853TP3      O20377   0.286   2.248   0.867
 2853TP3     H120378   0.287   2.169   0.814
 2853TP3     H220379   0.300   2.218   0.956
 2854TP3      O20380   0.753   1.884   0.752
 2854TP3     H120381   0.812   1.808   0.749
 2854TP3     H220382   0.748   1.915   0.662
 2855TP3      O20383   0.827   2.038   0.966
 2855TP3     H120384   0.805   1.987   0.889
 2855TP3     H220385   0.766   2.112   0.966
 2856TP3      O20386   0.795   3.777   9.534
 2856TP3     H120387   0.884   3.758   9.563
 2856TP3     H220388   0.795   3.757   9.441
 2857TP3      O20389   0.143   3.207   9.488
 2857TP3     H120390   0.224   3.219   9.537
 2857TP3     H220391   0.171   3.179   9.401
 2858TP3      O20392   0.068   3.738  10.047
 2858TP3     H120393   0.025   3.699   9.971
 2858TP3     H220394   0.073   3.667  10.111
 2859TP3      O20395   0.080   3.549  10.238
 2859TP3     H120396   0.053   3.467  10.280
 2859TP3     H220397   0.140   3.589  10.300
 2860TP3      O20398   1.844   3.590   0.205
 2860TP3     H120399   1.834   3.604   0.299
 2860TP3     H220400   1.928   3.630   0.184
 2861TP3      O20401   1.771   3.601   0.474
 2861TP3     H120402   1.725   3.518   0.459
 2861TP3     H220403   1.851   3.576   0.518
 2862TP3      O20404   1.655   3.135   1.004
 2862TP3     H120405   1.570   3.154   1.043
 2862TP3     H220406   1.709   3.212   1.025
 2863TP3      O20407   1.793   2.979   9.823
 2863TP3     H120408   1.865   3.043   9.826
 2863TP3     H220409   1.810   2.921   9.897
 2864TP3      O20410   1.841   2.787  10.015
 2864TP3     H120411   1.756   2.754  10.045
 2864TP3     H220412   1.892   2.797  10.096
 2865TP3      O20413   1.825   3.078   0.209
 2865TP3     H120414   1.880   3.011   0.169
 2865TP3     H220415   1.853   3.160   0.168
 2866TP3      O20416   1.632   3.370   0.413
 2866TP3     H120417   1.551   3.386   0.462
 2866TP3     H220418   1.602   3.343   0.327
 2867TP3      O20419   1.820   2.802   9.619
 2867TP3     H120420   1.779   2.848   9.546
 2867TP3     H220421   1.809   2.861   9.694
 2868TP3      O20422   1.620   2.444   9.509
 2868TP3     H120423   1.680   2.470   9.439
 2868TP3     H220424   1.622   2.349   9.507
 2869TP3      O20425   1.591   2.670  10.063
 2869TP3     H120426   1.589   2.581  10.030
 2869TP3     H220427   1.550   2.664  10.150
 2870TP3      O20428   0.075   2.837   0.182
 2870TP3     H120429   0.092   2.844   0.088
 2870TP3     H220430   0.160   2.820   0.221
 2871TP3      O20431   1.673   2.843   0.729
 2871TP3     H120432   1.736   2.774   0.707
 2871TP3     H220433   1.720   2.924   0.708
 2872TP3      O20434   1.824   2.610   0.710
 2872TP3     H120435   1.736   2.576   0.728
 2872TP3     H220436   1.883   2.539   0.734
 2873TP3      O20437   1.589   2.427   9.900
 2873TP3     H120438   1.613   2.334   9.903
 2873TP3     H220439   1.659   2.467   9.848
 2874TP3      O20440   1.614   2.457   0.140
 2874TP3     H120441   1.706   2.468   0.118
 2874TP3     H220442   1.610   2.473   0.234
 2875TP3      O20443   1.640   2.537   0.409
 2875TP3     H120444   1.561   2.571   0.450
 2875TP3     H220445   1.694   2.615   0.393
 2876TP3      O20446   0.116   2.395   0.695
 2876TP3     H120447   0.154   2.361   0.775
 2876TP3     H220448   0.027   2.361   0.694
 2877TP3      O20449   1.871   1.957   0.931
 2877TP3     H120450   1.936   1.898   0.893
 2877TP3     H220451   1.861   2.026   0.866
 2878TP3      O20452   1.643   2.157   9.914
 2878TP3     H120453   1.664   2.113   9.997
 2878TP3     H220454   1.576   2.101   9.874
 2879TP3      O20455   0.192   2.222   0.014
 2879TP3     H120456   0.225   2.133   0.027
 2879TP3     H220457   0.255   2.277   0.062
 2880TP3      O20458   0.042   2.563   0.128
 2880TP3     H120459   0.112   2.552   0.064
 2880TP3     H220460   0.044   2.656   0.150
 2881TP3      O20461   1.799   2.136   0.739
 2881TP3     H120462   1.718   2.185   0.753
 2881TP3     H220463   1.779   2.078   0.665
 2882TP3      O20464   1.795   2.154   9.547
 2882TP3     H120465   1.827   2.146   9.457
 2882TP3     H220466   1.859   2.210   9.591
 2883TP3      O20467   0.114   2.201   9.905
 2883TP3     H120468   0.031   2.156   9.896
 2883TP3     H220469   0.128   2.243   9.820
 2884TP3      O20470   1.536   3.649  10.089
 2884TP3     H120471   1.591   3.645  10.010
 2884TP3     H220472   1.591   3.690  10.155
 2885TP3      O20473   0.066   2.014   0.380
 2885TP3     H120474   0.012   1.993   0.455
 2885TP3     H220475   0.005   2.049   0.315
 2886TP3      O20476   0.245   3.384   0.764
 2886TP3     H120477   0.227   3.311   0.703
 2886TP3     H220478   0.232   3.346   0.851
 2887TP3      O20479   0.586   3.456   0.436
 2887TP3     H120480   0.557   3.544   0.411
 2887TP3     H220481   0.679   3.455   0.416
 2888TP3      O20482   0.969   3.582   0.718
 2888TP3     H120483   0.971   3.549   0.808
 2888TP3     H220484   1.056   3.619   0.704
 2889TP3      O20485   1.217   3.697   0.687
 2889TP3     H120486   1.286   3.638   0.657
 2889TP3     H220487   1.255   3.741   0.763
 2890TP3      O20488   1.712   1.937   0.558
 2890TP3     H120489   1.643   1.957   0.495
 2890TP3     H220490   1.735   1.846   0.539
 2891TP3      O20491   0.283   3.732   0.461
 2891TP3     H120492   0.212   3.780   0.418
 2891TP3     H220493   0.293   3.774   0.545
 2892TP3      O20494   0.542   3.718   0.368
 2892TP3     H120495   0.451   3.726   0.395
 2892TP3     H220496   0.547   3.768   0.287
 2893TP3      O20497   0.994   3.700   0.249
 2893TP3     H120498   0.933   3.727   0.180
 2893TP3     H220499   0.967   3.750   0.326
 2894TP3      O20500   1.214   3.568   0.341
 2894TP3     H120501   1.134   3.604   0.304
 2894TP3     H220502   1.284   3.606   0.288
 2895TP3      O20503   1.419   3.761   0.310
 2895TP3     H120504   1.477   3.837   0.316
 2895TP3     H220505   1.470   3.696   0.260
 2896TP3      O20506   0.257   3.623   0.122
 2896TP3     H120507   0.237   3.577   0.203
 2896TP3     H220508   0.329   3.573   0.083
 2897TP3      O20509   0.456   3.480   0.013
 2897TP3     H120510   0.444   3.388   0.037
 2897TP3     H220511   0.544   3.500   0.044
 2898TP3      O20512   0.718   3.508   0.114
 2898TP3     H120513   0.727   3.419   0.080
 2898TP3     H220514   0.750   3.503   0.204
 2899TP3      O20515   1.077   2.079  10.318
 2899TP3     H120516   1.021   2.004  10.336
 2899TP3     H220517   1.152   2.043  10.272
 2900TP3      O20518   1.549   1.927  10.321
 2900TP3     H120519   1.612   1.977  10.269
 2900TP3     H220520   1.464   1.962  10.296
 2901TP3      O20521   1.729   2.024  10.141
 2901TP3     H120522   1.791   1.957  10.114
 2901TP3     H220523   1.782   2.101  10.159
 2902TP3      O20524   0.325   1.923  10.071
 2902TP3     H120525   0.233   1.921  10.042
 2902TP3     H220526   0.354   1.832  10.063
 2903TP3      O20527   0.199   1.912   9.670
 2903TP3     H120528   0.245   1.990   9.640
 2903TP3     H220529   0.107   1.937   9.671
 2904TP3      O20530   0.787   1.910  10.085
 2904TP3     H120531   0.844   1.960  10.026
 2904TP3     H220532   0.833   1.827  10.097
 2905TP3      O20533   1.284   1.942  10.212
 2905TP3     H120534   1.327   1.918  10.130
 2905TP3     H220535   1.258   1.858  10.250
 2906TP3      O20536   1.447   1.992   9.810
 2906TP3     H120537   1.377   2.046   9.774
 2906TP3     H220538   1.404   1.909   9.833
 2907TP3      O20539   0.183   3.551   9.726
 2907TP3     H120540   0.139   3.536   9.643
 2907TP3     H220541   0.198   3.646   9.728
 2908TP3      O20542   0.375   2.100   9.570
 2908TP3     H120543   0.424   2.063   9.496
 2908TP3     H220544   0.443   2.135   9.628
 2909TP3      O20545   0.854   2.196   9.750
 2909TP3     H120546   0.892   2.121   9.796
 2909TP3     H220547   0.870   2.271   9.807
 2910TP3      O20548   1.052   3.717   9.606
 2910TP3     H120549   1.133   3.765   9.588
 2910TP3     H220550   1.068   3.629   9.572
 2911TP3      O20551   1.710   3.639   9.878
 2911TP3     H120552   1.692   3.550   9.846
 2911TP3     H220553   1.701   3.695   9.801
 2912TP3      O20554   0.287   2.005   0.716
 2912TP3     H120555   0.225   1.940   0.749
 2912TP3     H220556   0.368   1.987   0.763
 2913TP3      O20557   0.492   1.937   0.887
 2913TP3     H120558   0.578   1.909   0.854
 2913TP3     H220559   0.459   1.861   0.934
 2914TP3      O20560   0.400   3.648   9.490
 2914TP3     H120561   0.375   3.696   9.569
 2914TP3     H220562   0.319   3.606   9.462
 2915TP3      O20563   1.352   1.901   0.899
 2915TP3     H120564   1.341   1.850   0.980
 2915TP3     H220565   1.444   1.889   0.876
 2916TP3      O20566   1.602   3.492   0.775
 2916TP3     H120567   1.543   3.494   0.700
 2916TP3     H220568   1.615   3.584   0.798
 2917TP3      O20569   3.097   2.889  10.064
 2917TP3     H120570   3.084   2.983  10.059
 2917TP3     H220571   3.030   2.852  10.007
 2918TP3      O20572   2.978   2.805   0.142
 2918TP3     H120573   3.005   2.762   0.222
 2918TP3     H220574   2.928   2.739   0.094
 2919TP3      O20575   2.194   2.746   0.267
 2919TP3     H120576   2.203   2.674   0.329
 2919TP3     H220577   2.283   2.766   0.240
 2920TP3      O20578   3.363   3.114  -0.029
 2920TP3     H120579   3.325   3.040   0.017
 2920TP3     H220580   3.380   3.179   0.040
 2921TP3      O20581   2.333   3.220   0.076
 2921TP3     H120582   2.301   3.133   0.054
 2921TP3     H220583   2.428   3.209   0.085
 2922TP3      O20584   1.973   2.553   9.925
 2922TP3     H120585   1.944   2.637   9.960
 2922TP3     H220586   1.911   2.534   9.855
 2923TP3      O20587   2.034   2.791  10.221
 2923TP3     H120588   2.066   2.702  10.238
 2923TP3     H220589   2.113   2.845  10.222
 2924TP3      O20590   3.090   3.607  10.303
 2924TP3     H120591   3.127   3.550  10.235
 2924TP3     H220592   3.055   3.546  10.368
 2925TP3      O20593   2.819   3.058   0.151
 2925TP3     H120594   2.858   2.979   0.113
 2925TP3     H220595   2.885   3.092   0.211
 2926TP3      O20596   3.699   2.198   0.253
 2926TP3     H120597   3.718   2.267   0.316
 2926TP3     H220598   3.742   2.227   0.172
 2927TP3      O20599   3.133   2.477   0.161
 2927TP3     H120600   3.148   2.384   0.173
 2927TP3     H220601   3.117   2.487   0.067
 2928TP3      O20602   2.477   2.283  10.208
 2928TP3     H120603   2.482   2.368  10.164
 2928TP3     H220604   2.424   2.229  10.150
 2929TP3      O20605   3.255   2.319  10.060
 2929TP3     H120606   3.299   2.287  10.139
 2929TP3     H220607   3.326   2.354  10.006
 2930TP3      O20608   2.118   2.536  10.287
 2930TP3     H120609   2.182   2.494  10.343
 2930TP3     H220610   2.136   2.501  10.200
 2931TP3      O20611   2.591   2.683  10.260
 2931TP3     H120612   2.676   2.649  10.284
 2931TP3     H220613   2.554   2.617  10.201
 2932TP3      O20614   3.745   2.368   0.470
 2932TP3     H120615   3.668   2.421   0.452
 2932TP3     H220616   3.760   2.379   0.565
 2933TP3      O20617   2.342   2.205   0.312
 2933TP3     H120618   2.319   2.263   0.239
 2933TP3     H220619   2.269   2.215   0.374
 2934TP3      O20620   3.061   3.148   9.981
 2934TP3     H120621   3.045   3.144   9.887
 2934TP3     H220622   3.011   3.224  10.011
 2935TP3      O20623   2.597   2.974   0.291
 2935TP3     H120624   2.549   3.046   0.332
 2935TP3     H220625   2.669   3.017   0.244
 2936TP3      O20626   3.358   2.264  -0.012
 2936TP3     H120627   3.294   2.233   0.052
 2936TP3     H220628   3.415   2.323   0.037
 2937TP3      O20629   2.312   2.372   0.095
 2937TP3     H120630   2.368   2.430   0.147
 2937TP3     H220631   2.371   2.336   0.028
 2938TP3      O20632   2.454   3.173   0.418
 2938TP3     H120633   2.454   3.268   0.406
 2938TP3     H220634   2.365   3.152   0.446
 2939TP3      O20635   2.011   3.151   9.807
 2939TP3     H120636   2.013   3.190   9.719
 2939TP3     H220637   2.038   3.222   9.865
 2940TP3      O20638   3.397   3.318   0.167
 2940TP3     H120639   3.303   3.319   0.185
 2940TP3     H220640   3.417   3.408   0.142
 2941TP3      O20641   3.447   2.098   0.338
 2941TP3     H120642   3.378   2.138   0.286
 2941TP3     H220643   3.528   2.126   0.295
 2942TP3      O20644   2.695   1.891   0.065
 2942TP3     H120645   2.668   1.799   0.066
 2942TP3     H220646   2.617   1.939   0.093
 2943TP3      O20647   3.211   3.470  10.092
 2943TP3     H120648   3.251   3.384  10.077
 2943TP3     H220649   3.286   3.530  10.097
 2944TP3      O20650   3.319   3.226  10.040
 2944TP3     H120651   3.236   3.184  10.016
 2944TP3     H220652   3.346   3.182  10.121
 2945TP3      O20653   3.503   3.104   0.520
 2945TP3     H120654   3.493   3.046   0.445
 2945TP3     H220655   3.516   3.191   0.482
 2946TP3      O20656   2.949   2.802   9.845
 2946TP3     H120657   2.884   2.867   9.820
 2946TP3     H220658   3.009   2.799   9.771
 2947TP3      O20659   2.954   2.622   9.543
 2947TP3     H120660   3.028   2.668   9.581
 2947TP3     H220661   2.987   2.535   9.522
 2948TP3      O20662   3.671   2.764   0.354
 2948TP3     H120663   3.598   2.825   0.344
 2948TP3     H220664   3.732   2.788   0.284
 2949TP3      O20665   3.310   2.828   9.907
 2949TP3     H120666   3.242   2.852   9.970
 2949TP3     H220667   3.375   2.780   9.959
 2950TP3      O20668   3.277   2.629   0.548
 2950TP3     H120669   3.272   2.703   0.609
 2950TP3     H220670   3.214   2.651   0.480
 2951TP3      O20671   2.464   2.880  10.103
 2951TP3     H120672   2.441   2.843  10.018
 2951TP3     H220673   2.515   2.812  10.147
 2952TP3      O20674   2.614   3.236   0.049
 2952TP3     H120675   2.615   3.243  -0.047
 2952TP3     H220676   2.689   3.179   0.070
 2953TP3      O20677   2.453   2.782   0.162
 2953TP3     H120678   2.506   2.755   0.088
 2953TP3     H220679   2.506   2.848   0.207
 2954TP3      O20680   3.138   3.327   0.239
 2954TP3     H120681   3.117   3.400   0.298
 2954TP3     H220682   3.092   3.252   0.275
 2955TP3      O20683   2.614   3.201   0.643
 2955TP3     H120684   2.553   3.264   0.681
 2955TP3     H220685   2.571   3.172   0.562
 2956TP3      O20686   3.174   2.759   9.679
 2956TP3     H120687   3.221   2.789   9.757
 2956TP3     H220688   3.215   2.807   9.607
 2957TP3      O20689   2.269   2.780   0.615
 2957TP3     H120690   2.285   2.864   0.658
 2957TP3     H220691   2.181   2.789   0.578
 2958TP3      O20692   2.952   3.396  10.033
 2958TP3     H120693   3.037   3.431  10.058
 2958TP3     H220694   2.915   3.461   9.974
 2959TP3      O20695   2.420   3.380   0.709
 2959TP3     H120696   2.418   3.420   0.622
 2959TP3     H220697   2.328   3.358   0.727
 2960TP3      O20698   3.555   1.924   9.664
 2960TP3     H120699   3.469   1.947   9.699
 2960TP3     H220700   3.590   2.006   9.630
 2961TP3      O20701   2.383   2.793   9.842
 2961TP3     H120702   2.324   2.860   9.810
 2961TP3     H220703   2.336   2.711   9.830
 2962TP3      O20704   3.695   3.367   9.563
 2962TP3     H120705   3.714   3.461   9.556
 2962TP3     H220706   3.779   3.325   9.549
 2963TP3      O20707   1.959   3.041   0.456
 2963TP3     H120708   1.909   3.055   0.375
 2963TP3     H220709   1.973   2.947   0.460
 2964TP3      O20710   1.931   3.327   0.126
 2964TP3     H120711   2.014   3.332   0.175
 2964TP3     H220712   1.880   3.401   0.158
 2965TP3      O20713   3.756   3.389   0.724
 2965TP3     H120714   3.743   3.294   0.717
 2965TP3     H220715   3.672   3.422   0.755
 2966TP3      O20716   2.843   3.338   0.582
 2966TP3     H120717   2.842   3.420   0.630
 2966TP3     H220718   2.762   3.294   0.607
 2967TP3      O20719   2.925   3.680   9.881
 2967TP3     H120720   2.913   3.693   9.787
 2967TP3     H220721   2.894   3.762   9.920
 2968TP3      O20722   2.273   3.566  10.070
 2968TP3     H120723   2.293   3.536  10.158
 2968TP3     H220724   2.217   3.497  10.033
 2969TP3      O20725   3.231   3.664   9.571
 2969TP3     H120726   3.261   3.579   9.540
 2969TP3     H220727   3.224   3.655   9.666
 2970TP3      O20728   3.192   3.634   9.847
 2970TP3     H120729   3.098   3.643   9.863
 2970TP3     H220730   3.222   3.571   9.913
 2971TP3      O20731   3.462   2.507   0.740
 2971TP3     H120732   3.399   2.546   0.679
 2971TP3     H220733   3.467   2.415   0.713
 2972TP3      O20734   2.201   3.154   0.520
 2972TP3     H120735   2.179   3.202   0.600
 2972TP3     H220736   2.118   3.117   0.490
 2973TP3      O20737   2.449   2.003   0.151
 2973TP3     H120738   2.372   1.992   0.094
 2973TP3     H220739   2.426   2.076   0.208
 2974TP3      O20740   2.926   1.982   0.493
 2974TP3     H120741   2.970   1.931   0.561
 2974TP3     H220742   2.833   1.971   0.513
 2975TP3      O20743   3.213   2.357   0.572
 2975TP3     H120744   3.155   2.347   0.647
 2975TP3     H220745   3.221   2.452   0.561
 2976TP3      O20746   3.310   2.902   9.489
 2976TP3     H120747   3.303   2.978   9.431
 2976TP3     H220748   3.365   2.933   9.562
 2977TP3      O20749   2.927   2.274   9.567
 2977TP3     H120750   2.867   2.253   9.639
 2977TP3     H220751   2.887   2.235   9.490
 2978TP3      O20752   2.458   2.527   0.270
 2978TP3     H120753   2.392   2.527   0.339
 2978TP3     H220754   2.462   2.618   0.240
 2979TP3      O20755   2.455   2.522  10.078
 2979TP3     H120756   2.360   2.511  10.073
 2979TP3     H220757   2.486   2.506   9.989
 2980TP3      O20758   3.004   2.554   9.950
 2980TP3     H120759   2.979   2.641   9.917
 2980TP3     H220760   3.076   2.527   9.893
 2981TP3      O20761   2.913   2.575   0.750
 2981TP3     H120762   2.865   2.500   0.787
 2981TP3     H220763   2.997   2.574   0.797
 2982TP3      O20764   3.104   2.499  10.207
 2982TP3     H120765   3.059   2.547  10.137
 2982TP3     H220766   3.148   2.427  10.162
 2983TP3      O20767   2.245   2.530   0.442
 2983TP3     H120768   2.241   2.578   0.525
 2983TP3     H220769   2.205   2.445   0.461
 2984TP3      O20770   2.531   2.305   9.465
 2984TP3     H120771   2.496   2.276   9.550
 2984TP3     H220772   2.518   2.400   9.466
 2985TP3      O20773   1.904   2.224  10.160
 2985TP3     H120774   1.964   2.233  10.234
 2985TP3     H220775   1.960   2.221  10.083
 2986TP3      O20776   1.973   2.337   9.661
 2986TP3     H120777   2.052   2.369   9.618
 2986TP3     H220778   1.920   2.416   9.675
 2987TP3      O20779   3.066   2.646   0.359
 2987TP3     H120780   3.097   2.589   0.288
 2987TP3     H220781   2.997   2.596   0.402
 2988TP3      O20782   2.763   2.246  10.162
 2988TP3     H120783   2.674   2.250  10.197
 2988TP3     H220784   2.815   2.210  10.234
 2989TP3      O20785   2.195   2.438  10.044
 2989TP3     H120786   2.120   2.468   9.991
 2989TP3     H220787   2.212   2.349  10.015
 2990TP3      O20788   2.524   2.454   9.824
 2990TP3     H120789   2.620   2.452   9.834
 2990TP3     H220790   2.511   2.498   9.740
 2991TP3      O20791   3.158   2.200   0.175
 2991TP3     H120792   3.111   2.206   0.258
 2991TP3     H220793   3.096   2.156   0.116
 2992TP3      O20794   2.442   2.555   9.580
 2992TP3     H120795   2.350   2.543   9.555
 2992TP3     H220796   2.480   2.607   9.510
 2993TP3      O20797   3.505   3.759   0.828
 2993TP3     H120798   3.529   3.798   0.744
 2993TP3     H220799   3.577   3.783   0.887
 2994TP3      O20800   2.280   3.004   0.806
 2994TP3     H120801   2.292   3.092   0.769
 2994TP3     H220802   2.190   3.004   0.838
 2995TP3      O20803   2.829   2.570   0.045
 2995TP3     H120804   2.897   2.518   0.003
 2995TP3     H220805   2.797   2.514   0.117
 2996TP3      O20806   2.305   2.169  10.015
 2996TP3     H120807   2.254   2.092  10.039
 2996TP3     H220808   2.345   2.145   9.931
 2997TP3      O20809   2.718   2.432   0.265
 2997TP3     H120810   2.633   2.474   0.275
 2997TP3     H220811   2.768   2.462   0.341
 2998TP3      O20812   2.769   2.996   9.769
 2998TP3     H120813   2.696   2.953   9.724
 2998TP3     H220814   2.731   3.028   9.851
 2999TP3      O20815   3.478   2.950   0.293
 2999TP3     H120816   3.538   3.005   0.242
 2999TP3     H220817   3.405   2.933   0.234
 3000TP3      O20818   3.180   2.255   9.665
 3000TP3     H120819   3.102   2.260   9.610
 3000TP3     H220820   3.199   2.346   9.688
 3001TP3      O20821   2.917   3.048   0.583
 3001TP3     H120822   2.940   3.013   0.669
 3001TP3     H220823   2.886   3.137   0.601
 3002TP3      O20824   3.221   2.503   9.780
 3002TP3     H120825   3.311   2.492   9.812
 3002TP3     H220826   3.222   2.588   9.735
 3003TP3      O20827   2.289   2.944  10.307
 3003TP3     H120828   2.346   2.935  10.230
 3003TP3     H220829   2.330   2.890  10.374
 3004TP3      O20830   2.992   3.148   9.715
 3004TP3     H120831   2.950   3.234   9.716
 3004TP3     H220832   2.920   3.086   9.720
 3005TP3      O20833   1.995   2.768   0.545
 3005TP3     H120834   1.963   2.725   0.625
 3005TP3     H220835   1.928   2.748   0.480
 3006TP3      O20836   2.705   2.761   0.779
 3006TP3     H120837   2.639   2.722   0.722
 3006TP3     H220838   2.785   2.712   0.759
 3007TP3      O20839   3.126   3.313   0.583
 3007TP3     H120840   3.033   3.320   0.561
 3007TP3     H220841   3.130   3.332   0.677
 3008TP3      O20842   3.671   2.544   9.709
 3008TP3     H120843   3.609   2.510   9.644
 3008TP3     H220844   3.685   2.635   9.685
 3009TP3      O20845   3.721   3.105   0.686
 3009TP3     H120846   3.632   3.116   0.653
 3009TP3     H220847   3.773   3.089   0.607
 3010TP3      O20848   3.542   3.398   9.794
 3010TP3     H120849   3.489   3.323   9.821
 3010TP3     H220850   3.584   3.370   9.713
 3011TP3      O20851   3.269   2.883   0.112
 3011TP3     H120852   3.174   2.875   0.109
 3011TP3     H220853   3.302   2.806   0.065
 3012TP3      O20854   2.547   3.309  10.097
 3012TP3     H120855   2.573   3.392  10.057
 3012TP3     H220856   2.452   3.307  10.091
 3013TP3      O20857   2.096   2.762   9.584
 3013TP3     H120858   2.138   2.838   9.626
 3013TP3     H220859   2.002   2.779   9.594
 3014TP3      O20860   2.636   3.069   9.991
 3014TP3     H120861   2.616   3.156  10.027
 3014TP3     H220862   2.577   3.010  10.037
 3015TP3      O20863   2.730   3.482   0.361
 3015TP3     H120864   2.788   3.555   0.341
 3015TP3     H220865   2.781   3.426   0.420
 3016TP3      O20866   2.533   3.576   9.975
 3016TP3     H120867   2.441   3.583  10.001
 3016TP3     H220868   2.575   3.651  10.018
 3017TP3      O20869   3.025   3.091   0.336
 3017TP3     H120870   2.987   3.074   0.422
 3017TP3     H220871   3.094   3.026   0.327
 3018TP3      O20872   3.243   3.187   9.592
 3018TP3     H120873   3.302   3.134   9.646
 3018TP3     H220874   3.156   3.170   9.629
 3019TP3      O20875   3.334   3.505   0.551
 3019TP3     H120876   3.254   3.454   0.542
 3019TP3     H220877   3.324   3.577   0.488
 3020TP3      O20878   3.749   3.637   9.580
 3020TP3     H120879   3.814   3.706   9.593
 3020TP3     H220880   3.665   3.682   9.587
 3021TP3      O20881   2.131   2.271   0.483
 3021TP3     H120882   2.039   2.293   0.466
 3021TP3     H220883   2.126   2.198   0.546
 3022TP3      O20884   3.416   3.007   9.725
 3022TP3     H120885   3.375   2.957   9.796
 3022TP3     H220886   3.508   3.014   9.752
 3023TP3      O20887   2.125   3.417   0.313
 3023TP3     H120888   2.196   3.356   0.332
 3023TP3     H220889   2.093   3.443   0.399
 3024TP3      O20890   2.559   3.280   9.682
 3024TP3     H120891   2.637   3.234   9.712
 3024TP3     H220892   2.579   3.373   9.693
 3025TP3      O20893   2.210   2.976   9.728
 3025TP3     H120894   2.138   3.020   9.772
 3025TP3     H220895   2.257   3.045   9.682
 3026TP3      O20896   3.027   2.225   0.415
 3026TP3     H120897   3.098   2.247   0.476
 3026TP3     H220898   2.993   2.141   0.447
 3027TP3      O20899   3.101   2.154   9.901
 3027TP3     H120900   3.121   2.189   9.814
 3027TP3     H220901   3.148   2.211   9.961
 3028TP3      O20902   2.852   3.381   9.717
 3028TP3     H120903   2.780   3.444   9.727
 3028TP3     H220904   2.906   3.418   9.647
 3029TP3      O20905   2.781   2.396   9.929
 3029TP3     H120906   2.858   2.452   9.934
 3029TP3     H220907   2.776   2.355  10.015
 3030TP3      O20908   2.890   2.476   0.481
 3030TP3     H120909   2.894   2.498   0.574
 3030TP3     H220910   2.926   2.388   0.475
 3031TP3      O20911   2.861   2.057   9.980
 3031TP3     H120912   2.833   2.126  10.041
 3031TP3     H220913   2.948   2.084   9.953
 3032TP3      O20914   2.626   3.545   9.718
 3032TP3     H120915   2.627   3.632   9.679
 3032TP3     H220916   2.594   3.559   9.807
 3033TP3      O20917   2.462   2.205   9.714
 3033TP3     H120918   2.460   2.288   9.761
 3033TP3     H220919   2.552   2.175   9.723
 3034TP3      O20920   3.463   2.259   0.593
 3034TP3     H120921   3.370   2.284   0.585
 3034TP3     H220922   3.481   2.211   0.512
 3035TP3      O20923   3.345   2.636  -0.012
 3035TP3     H120924   3.260   2.596  -0.033
 3035TP3     H220925   3.389   2.573   0.045
 3036TP3      O20926   2.314   3.201   9.593
 3036TP3     H120927   2.392   3.241   9.633
 3036TP3     H220928   2.349   3.138   9.530
 3037TP3      O20929   2.170   2.514   9.510
 3037TP3     H120930   2.142   2.602   9.534
 3037TP3     H220931   2.143   2.504   9.418
 3038TP3      O20932   3.472   3.587   0.154
 3038TP3     H120933   3.460   3.658   0.090
 3038TP3     H220934   3.567   3.584   0.168
 3039TP3      O20935   2.199   1.975   0.034
 3039TP3     H120936   2.189   1.964  -0.061
 3039TP3     H220937   2.164   1.893   0.070
 3040TP3      O20938   2.083   3.379   9.967
 3040TP3     H120939   2.027   3.408  10.040
 3040TP3     H220940   2.068   3.443   9.898
 3041TP3      O20941   2.061   3.713   0.827
 3041TP3     H120942   2.123   3.676   0.890
 3041TP3     H220943   2.053   3.646   0.759
 3042TP3      O20944   2.456   3.472   0.971
 3042TP3     H120945   2.548   3.483   0.996
 3042TP3     H220946   2.460   3.440   0.881
 3043TP3      O20947   3.001   3.470   9.508
 3043TP3     H120948   2.953   3.439   9.431
 3043TP3     H220949   3.093   3.453   9.487
 3044TP3      O20950   3.128   3.362   0.850
 3044TP3     H120951   3.110   3.279   0.894
 3044TP3     H220952   3.201   3.399   0.898
 3045TP3      O20953   3.282   3.418   9.457
 3045TP3     H120954   3.271   3.338   9.508
 3045TP3     H220955   3.361   3.403   9.405
 3046TP3      O20956   2.022   2.984   0.904
 3046TP3     H120957   2.024   2.891   0.885
 3046TP3     H220958   1.956   3.019   0.844
 3047TP3      O20959   2.413   2.988   9.462
 3047TP3     H120960   2.466   2.949   9.531
 3047TP3     H220961   2.458   2.966   9.381
 3048TP3      O20962   2.668   3.031   0.854
 3048TP3     H120963   2.654   3.080   0.773
 3048TP3     H220964   2.693   2.943   0.825
 3049TP3      O20965   3.246   3.056   0.606
 3049TP3     H120966   3.336   3.078   0.582
 3049TP3     H220967   3.197   3.137   0.592
 3050TP3      O20968   2.105   2.719   0.854
 3050TP3     H120969   2.185   2.717   0.802
 3050TP3     H220970   2.135   2.729   0.944
 3051TP3      O20971   2.573   2.857   9.641
 3051TP3     H120972   2.519   2.820   9.710
 3051TP3     H220973   2.610   2.781   9.596
 3052TP3      O20974   2.517   2.646   0.598
 3052TP3     H120975   2.436   2.697   0.595
 3052TP3     H220976   2.572   2.684   0.530
 3053TP3      O20977   2.693   2.675   9.475
 3053TP3     H120978   2.692   2.642   9.385
 3053TP3     H220979   2.783   2.658   9.505
 3054TP3      O20980   3.019   2.894   0.880
 3054TP3     H120981   3.094   2.855   0.835
 3054TP3     H220982   2.990   2.827   0.942
 3055TP3      O20983   3.613   2.980   9.404
 3055TP3     H120984   3.568   2.965   9.320
 3055TP3     H220985   3.601   3.073   9.421
 3056TP3      O20986   2.554   2.384   0.666
 3056TP3     H120987   2.562   2.329   0.589
 3056TP3     H220988   2.544   2.473   0.631
 3057TP3      O20989   2.587   2.230   0.430
 3057TP3     H120990   2.641   2.276   0.365
 3057TP3     H220991   2.501   2.223   0.388
 3058TP3      O20992   2.693   2.759   0.429
 3058TP3     H120993   2.786   2.775   0.443
 3058TP3     H220994   2.662   2.837   0.382
 3059TP3      O20995   3.147   2.542   0.913
 3059TP3     H120996   3.154   2.449   0.890
 3059TP3     H220997   3.238   2.571   0.923
 3060TP3      O20998   3.294   2.832   0.747
 3060TP3     H120999   3.266   2.911   0.702
 3060TP3     H221000   3.390   2.834   0.743
 3061TP3      O21001   2.390   2.443   0.888
 3061TP3     H121002   2.310   2.393   0.875
 3061TP3     H221003   2.438   2.433   0.806
 3062TP3      O21004   2.646   1.964   0.496
 3062TP3     H121005   2.625   2.055   0.474
 3062TP3     H221006   2.577   1.913   0.452
 3063TP3      O21007   2.776   2.352   0.828
 3063TP3     H121008   2.739   2.324   0.912
 3063TP3     H221009   2.701   2.356   0.768
 3064TP3      O21010   3.051   2.303   0.778
 3064TP3     H121011   2.958   2.298   0.801
 3064TP3     H221012   3.093   2.241   0.837
 3065TP3      O21013   3.221   2.170   0.954
 3065TP3     H121014   3.218   2.075   0.938
 3065TP3     H221015   3.194   2.180   1.045
 3066TP3      O21016   2.179   2.254   0.859
 3066TP3     H121017   2.182   2.176   0.803
 3066TP3     H221018   2.191   2.221   0.947
 3067TP3      O21019   2.636   1.884   0.757
 3067TP3     H121020   2.693   1.807   0.752
 3067TP3     H221021   2.633   1.917   0.668
 3068TP3      O21022   2.712   2.038   0.970
 3068TP3     H121023   2.690   1.986   0.893
 3068TP3     H221024   2.652   2.112   0.967
 3069TP3      O21025   2.679   3.765   9.535
 3069TP3     H121026   2.770   3.752   9.560
 3069TP3     H221027   2.679   3.758   9.439
 3070TP3      O21028   2.050   3.237   9.536
 3070TP3     H121029   2.143   3.228   9.559
 3070TP3     H221030   2.050   3.275   9.448
 3071TP3      O21031   1.903   3.714  10.059
 3071TP3     H121032   1.848   3.685   9.986
 3071TP3     H221033   1.923   3.634  10.107
 3072TP3      O21034   1.975   3.494  10.210
 3072TP3     H121035   1.940   3.418  10.257
 3072TP3     H221036   2.024   3.543  10.277
 3073TP3      O21037   3.737   3.587   0.225
 3073TP3     H121038   3.731   3.593   0.320
 3073TP3     H221039   3.808   3.648   0.202
 3074TP3      O21040   3.679   3.565   0.500
 3074TP3     H121041   3.626   3.493   0.465
 3074TP3     H221042   3.727   3.526   0.573
 3075TP3      O21043   3.538   3.148   0.985
 3075TP3     H121044   3.454   3.160   1.031
 3075TP3     H221045   3.592   3.221   1.016
 3076TP3      O21046   3.679   2.979   9.820
 3076TP3     H121047   3.749   3.044   9.825
 3076TP3     H221048   3.693   2.922   9.896
 3077TP3      O21049   3.723   2.787  10.016
 3077TP3     H121050   3.638   2.753  10.043
 3077TP3     H221051   3.772   2.799  10.097
 3078TP3      O21052   3.716   3.078   0.214
 3078TP3     H121053   3.768   3.016   0.165
 3078TP3     H221054   3.738   3.164   0.177
 3079TP3      O21055   3.519   3.355   0.413
 3079TP3     H121056   3.447   3.400   0.458
 3079TP3     H221057   3.486   3.339   0.325
 3080TP3      O21058   3.705   2.808   9.613
 3080TP3     H121059   3.662   2.855   9.541
 3080TP3     H221060   3.693   2.865   9.689
 3081TP3      O21061   3.515   2.448   9.505
 3081TP3     H121062   3.575   2.472   9.435
 3081TP3     H221063   3.507   2.353   9.500
 3082TP3      O21064   3.477   2.667  10.063
 3082TP3     H121065   3.472   2.577  10.030
 3082TP3     H221066   3.435   2.662  10.149
 3083TP3      O21067   1.964   2.841   0.163
 3083TP3     H121068   1.976   2.829   0.069
 3083TP3     H221069   2.049   2.817   0.200
 3084TP3      O21070   3.571   2.844   0.733
 3084TP3     H121071   3.629   2.769   0.717
 3084TP3     H221072   3.617   2.919   0.695
 3085TP3      O21073   3.713   2.609   0.714
 3085TP3     H121074   3.624   2.574   0.725
 3085TP3     H221075   3.770   2.536   0.737
 3086TP3      O21076   3.474   2.425   9.899
 3086TP3     H121077   3.497   2.332   9.901
 3086TP3     H221078   3.543   2.466   9.847
 3087TP3      O21079   3.495   2.451   0.140
 3087TP3     H121080   3.588   2.462   0.118
 3087TP3     H221081   3.490   2.469   0.234
 3088TP3      O21082   3.525   2.537   0.406
 3088TP3     H121083   3.444   2.567   0.448
 3088TP3     H221084   3.576   2.616   0.391
 3089TP3      O21085   1.951   2.366   0.744
 3089TP3     H121086   2.035   2.345   0.785
 3089TP3     H221087   1.899   2.286   0.754
 3090TP3      O21088   3.758   1.958   0.931
 3090TP3     H121089   3.821   1.897   0.893
 3090TP3     H221090   3.749   2.027   0.866
 3091TP3      O21091   3.531   2.155   9.910
 3091TP3     H121092   3.550   2.114   9.994
 3091TP3     H221093   3.464   2.100   9.870
 3092TP3      O21094   2.072   2.219   0.063
 3092TP3     H121095   2.111   2.132   0.062
 3092TP3     H221096   2.146   2.278   0.078
 3093TP3      O21097   1.883   2.510   0.126
 3093TP3     H121098   1.952   2.504   0.060
 3093TP3     H221099   1.912   2.578   0.187
 3094TP3      O21100   3.685   2.141   0.744
 3094TP3     H121101   3.606   2.184   0.777
 3094TP3     H221102   3.656   2.093   0.667
 3095TP3      O21103   3.679   2.152   9.549
 3095TP3     H121104   3.710   2.139   9.459
 3095TP3     H221105   3.744   2.210   9.588
 3096TP3      O21106   1.934   2.143   9.855
 3096TP3     H121107   1.839   2.146   9.867
 3096TP3     H221108   1.953   2.214   9.794
 3097TP3      O21109   3.411   3.644  10.082
 3097TP3     H121110   3.481   3.649  10.017
 3097TP3     H221111   3.442   3.697  10.156
 3098TP3      O21112   1.938   1.996   0.394
 3098TP3     H121113   1.865   1.978   0.454
 3098TP3     H221114   1.902   2.058   0.331
 3099TP3      O21115   2.161   3.286   0.763
 3099TP3     H121116   2.121   3.357   0.712
 3099TP3     H221117   2.108   3.281   0.843
 3100TP3      O21118   2.467   3.450   0.436
 3100TP3     H121119   2.432   3.537   0.413
 3100TP3     H221120   2.560   3.456   0.415
 3101TP3      O21121   2.848   3.579   0.718
 3101TP3     H121122   2.860   3.547   0.807
 3101TP3     H221123   2.927   3.631   0.700
 3102TP3      O21124   3.081   3.722   0.677
 3102TP3     H121125   3.145   3.666   0.634
 3102TP3     H221126   3.123   3.750   0.758
 3103TP3      O21127   3.595   1.936   0.558
 3103TP3     H121128   3.523   1.956   0.498
 3103TP3     H221129   3.618   1.845   0.540
 3104TP3      O21130   2.168   3.739   0.429
 3104TP3     H121131   2.094   3.799   0.418
 3104TP3     H221132   2.134   3.670   0.486
 3105TP3      O21133   2.429   3.716   0.365
 3105TP3     H121134   2.337   3.727   0.392
 3105TP3     H221135   2.435   3.762   0.281
 3106TP3      O21136   2.881   3.699   0.274
 3106TP3     H121137   2.828   3.734   0.203
 3106TP3     H221138   2.891   3.772   0.335
 3107TP3      O21139   3.103   3.569   0.368
 3107TP3     H121140   3.026   3.613   0.332
 3107TP3     H221141   3.175   3.631   0.353
 3108TP3      O21142   3.341   3.713   0.358
 3108TP3     H121143   3.367   3.804   0.347
 3108TP3     H221144   3.385   3.667   0.287
 3109TP3      O21145   2.128   3.606   0.110
 3109TP3     H121146   2.123   3.558   0.193
 3109TP3     H221147   2.207   3.572   0.067
 3110TP3      O21148   2.345   3.483   0.004
 3110TP3     H121149   2.331   3.392   0.030
 3110TP3     H221150   2.432   3.504   0.039
 3111TP3      O21151   2.605   3.508   0.113
 3111TP3     H121152   2.615   3.418   0.081
 3111TP3     H221153   2.638   3.505   0.203
 3112TP3      O21154   2.927   2.084   0.007
 3112TP3     H121155   2.868   2.012   0.027
 3112TP3     H221156   3.003   2.043  -0.033
 3113TP3      O21157   3.431   1.924  10.315
 3113TP3     H121158   3.492   1.978  10.265
 3113TP3     H221159   3.345   1.962  10.298
 3114TP3      O21160   3.613   2.027  10.140
 3114TP3     H121161   3.677   1.960  10.115
 3114TP3     H221162   3.665   2.105  10.156
 3115TP3      O21163   2.165   1.936  10.079
 3115TP3     H121164   2.073   1.919  10.058
 3115TP3     H221165   2.209   1.852  10.065
 3116TP3      O21166   2.044   1.942   9.691
 3116TP3     H121167   2.113   1.991   9.647
 3116TP3     H221168   2.005   2.004   9.753
 3117TP3      O21169   2.650   1.907  10.094
 3117TP3     H121170   2.721   1.956  10.053
 3117TP3     H221171   2.671   1.908  10.188
 3118TP3      O21172   3.157   1.965  10.229
 3118TP3     H121173   3.178   1.953  10.136
 3118TP3     H221174   3.136   1.876  10.260
 3119TP3      O21175   3.332   1.986   9.822
 3119TP3     H121176   3.255   2.042   9.815
 3119TP3     H221177   3.297   1.898   9.837
 3120TP3      O21178   2.045   3.564   9.778
 3120TP3     H121179   1.975   3.549   9.715
 3120TP3     H221180   2.066   3.657   9.768
 3121TP3      O21181   2.256   2.064   9.570
 3121TP3     H121182   2.298   1.985   9.538
 3121TP3     H221183   2.326   2.112   9.614
 3122TP3      O21184   2.737   2.189   9.760
 3122TP3     H121185   2.771   2.116   9.812
 3122TP3     H221186   2.751   2.266   9.815
 3123TP3      O21187   2.939   3.717   9.604
 3123TP3     H121188   3.019   3.766   9.586
 3123TP3     H221189   2.957   3.629   9.570
 3124TP3      O21190   3.605   3.644   9.884
 3124TP3     H121191   3.584   3.556   9.854
 3124TP3     H221192   3.591   3.700   9.807
 3125TP3      O21193   2.177   2.006   0.716
 3125TP3     H121194   2.118   1.936   0.745
 3125TP3     H221195   2.258   1.990   0.763
 3126TP3      O21196   2.380   1.940   0.889
 3126TP3     H121197   2.465   1.913   0.854
 3126TP3     H221198   2.346   1.862   0.932
 3127TP3      O21199   2.225   3.639   9.490
 3127TP3     H121200   2.226   3.722   9.538
 3127TP3     H221201   2.262   3.576   9.551
 3128TP3      O21202   3.237   1.899   0.899
 3128TP3     H121203   3.226   1.849   0.979
 3128TP3     H221204   3.329   1.888   0.876
 3129TP3      O21205   3.505   3.490   0.774
 3129TP3     H121206   3.444   3.485   0.700
 3129TP3     H221207   3.502   3.581   0.802
 3130TP3      O21208   4.974   2.884  10.062
 3130TP3     H121209   4.969   2.980  10.062
 3130TP3     H221210   4.911   2.857   9.995
 3131TP3      O21211   4.900   2.818   0.134
 3131TP3     H121212   4.910   2.772   0.217
 3131TP3     H221213   4.851   2.757   0.079
 3132TP3      O21214   4.104   2.769   0.280
 3132TP3     H121215   4.093   2.684   0.322
 3132TP3     H221216   4.146   2.823   0.346
 3133TP3      O21217   5.244   3.117  -0.035
 3133TP3     H121218   5.219   3.036   0.010
 3133TP3     H221219   5.261   3.180   0.035
 3134TP3      O21220   4.218   3.216   0.064
 3134TP3     H121221   4.183   3.128   0.052
 3134TP3     H221222   4.310   3.202   0.087
 3135TP3      O21223   3.859   2.560   9.921
 3135TP3     H121224   3.826   2.642   9.959
 3135TP3     H221225   3.797   2.539   9.852
 3136TP3      O21226   3.913   2.794  10.223
 3136TP3     H121227   3.946   2.705  10.237
 3136TP3     H221228   3.991   2.850  10.230
 3137TP3      O21229   4.970   3.586  10.314
 3137TP3     H121230   5.004   3.533  10.242
 3137TP3     H221231   4.947   3.522  10.381
 3138TP3      O21232   4.717   3.063   0.125
 3138TP3     H121233   4.761   2.980   0.104
 3138TP3     H221234   4.772   3.102   0.192
 3139TP3      O21235   5.009   2.455   0.160
 3139TP3     H121236   5.039   2.365   0.176
 3139TP3     H221237   5.014   2.465   0.065
 3140TP3      O21238   4.358   2.291  10.212
 3140TP3     H121239   4.357   2.372  10.161
 3140TP3     H221240   4.308   2.228  10.159
 3141TP3      O21241   5.119   2.320  10.048
 3141TP3     H121242   5.162   2.288  10.128
 3141TP3     H221243   5.191   2.351   9.993
 3142TP3      O21244   3.998   2.539  10.284
 3142TP3     H121245   4.057   2.489  10.341
 3142TP3     H221246   4.013   2.503  10.197
 3143TP3      O21247   4.515   2.635  10.212
 3143TP3     H121248   4.596   2.625  10.163
 3143TP3     H221249   4.449   2.588  10.160
 3144TP3      O21250   4.221   2.203   0.312
 3144TP3     H121251   4.196   2.260   0.239
 3144TP3     H221252   4.148   2.211   0.374
 3145TP3      O21253   4.956   3.147   9.974
 3145TP3     H121254   4.938   3.143   9.880
 3145TP3     H221255   4.904   3.220  10.006
 3146TP3      O21256   4.407   2.975   0.318
 3146TP3     H121257   4.373   3.061   0.343
 3146TP3     H221258   4.468   2.952   0.388
 3147TP3      O21259   5.223   2.264  -0.029
 3147TP3     H121260   5.187   2.193   0.024
 3147TP3     H221261   5.284   2.309   0.030
 3148TP3      O21262   4.185   2.369   0.095
 3148TP3     H121263   4.234   2.437   0.141
 3148TP3     H221264   4.246   2.335   0.029
 3149TP3      O21265   4.310   3.204   0.419
 3149TP3     H121266   4.323   3.299   0.414
 3149TP3     H221267   4.220   3.194   0.451
 3150TP3      O21268   3.897   3.154   9.801
 3150TP3     H121269   3.895   3.197   9.715
 3150TP3     H221270   3.921   3.224   9.862
 3151TP3      O21271   5.268   3.309   0.168
 3151TP3     H121272   5.173   3.318   0.176
 3151TP3     H221273   5.300   3.398   0.159
 3152TP3      O21274   5.309   2.127   0.281
 3152TP3     H121275   5.217   2.140   0.260
 3152TP3     H221276   5.352   2.206   0.248
 3153TP3      O21277   4.579   1.891   0.062
 3153TP3     H121278   4.554   1.798   0.065
 3153TP3     H221279   4.502   1.937   0.093
 3154TP3      O21280   5.091   3.467  10.093
 3154TP3     H121281   5.138   3.385  10.079
 3154TP3     H221282   5.160   3.533  10.098
 3155TP3      O21283   5.214   3.230  10.031
 3155TP3     H121284   5.131   3.189  10.005
 3155TP3     H221285   5.237   3.186  10.113
 3156TP3      O21286   5.354   3.057   0.539
 3156TP3     H121287   5.361   3.006   0.459
 3156TP3     H221288   5.376   3.147   0.512
 3157TP3      O21289   4.837   2.810   9.834
 3157TP3     H121290   4.768   2.872   9.811
 3157TP3     H221291   4.898   2.813   9.760
 3158TP3      O21292   4.838   2.621   9.542
 3158TP3     H121293   4.910   2.669   9.582
 3158TP3     H221294   4.876   2.536   9.518
 3159TP3      O21295   5.190   2.834   9.902
 3159TP3     H121296   5.122   2.856   9.965
 3159TP3     H221297   5.253   2.781   9.951
 3160TP3      O21298   5.140   2.644   0.539
 3160TP3     H121299   5.133   2.720   0.598
 3160TP3     H221300   5.074   2.660   0.472
 3161TP3      O21301   4.348   2.860  10.125
 3161TP3     H121302   4.316   2.843  10.036
 3161TP3     H221303   4.401   2.783  10.146
 3162TP3      O21304   4.504   3.230   0.051
 3162TP3     H121305   4.516   3.234  -0.044
 3162TP3     H221306   4.574   3.172   0.081
 3163TP3      O21307   4.401   2.804   0.119
 3163TP3     H121308   4.421   2.857   0.042
 3163TP3     H221309   4.405   2.865   0.192
 3164TP3      O21310   5.005   3.353   0.213
 3164TP3     H121311   4.993   3.417   0.283
 3164TP3     H221312   4.970   3.272   0.249
 3165TP3      O21313   4.494   3.228   0.640
 3165TP3     H121314   4.424   3.282   0.677
 3165TP3     H221315   4.452   3.180   0.569
 3166TP3      O21316   5.067   2.769   9.665
 3166TP3     H121317   5.109   2.801   9.745
 3166TP3     H221318   5.119   2.807   9.594
 3167TP3      O21319   4.148   2.788   0.580
 3167TP3     H121320   4.167   2.868   0.629
 3167TP3     H221321   4.052   2.787   0.572
 3168TP3      O21322   4.836   3.387  10.030
 3168TP3     H121323   4.919   3.426  10.059
 3168TP3     H221324   4.794   3.456   9.978
 3169TP3      O21325   4.281   3.391   0.707
 3169TP3     H121326   4.283   3.427   0.618
 3169TP3     H221327   4.188   3.381   0.727
 3170TP3      O21328   5.440   1.928   9.667
 3170TP3     H121329   5.354   1.955   9.701
 3170TP3     H221330   5.428   1.927   9.572
 3171TP3      O21331   4.260   2.801   9.856
 3171TP3     H121332   4.205   2.869   9.818
 3171TP3     H221333   4.207   2.721   9.850
 3172TP3      O21334   3.849   3.038   0.457
 3172TP3     H121335   3.799   3.049   0.376
 3172TP3     H221336   3.860   2.943   0.467
 3173TP3      O21337   3.821   3.331   0.140
 3173TP3     H121338   3.907   3.334   0.182
 3173TP3     H221339   3.776   3.409   0.171
 3174TP3      O21340   4.730   3.342   0.580
 3174TP3     H121341   4.724   3.426   0.626
 3174TP3     H221342   4.647   3.298   0.601
 3175TP3      O21343   4.805   3.681   9.882
 3175TP3     H121344   4.792   3.699   9.789
 3175TP3     H221345   4.777   3.761   9.927
 3176TP3      O21346   4.159   3.564  10.071
 3176TP3     H121347   4.178   3.535  10.160
 3176TP3     H221348   4.101   3.496  10.035
 3177TP3      O21349   5.100   3.651   9.568
 3177TP3     H121350   5.159   3.584   9.534
 3177TP3     H221351   5.097   3.635   9.663
 3178TP3      O21352   5.064   3.609   9.842
 3178TP3     H121353   4.971   3.627   9.858
 3178TP3     H221354   5.090   3.551   9.913
 3179TP3      O21355   5.317   2.537   0.780
 3179TP3     H121356   5.279   2.587   0.707
 3179TP3     H221357   5.349   2.457   0.739
 3180TP3      O21358   4.062   3.193   0.526
 3180TP3     H121359   4.090   3.152   0.608
 3180TP3     H221360   3.986   3.142   0.499
 3181TP3      O21361   4.335   2.005   0.150
 3181TP3     H121362   4.258   1.991   0.095
 3181TP3     H221363   4.310   2.076   0.209
 3182TP3      O21364   4.806   1.976   0.494
 3182TP3     H121365   4.852   1.929   0.564
 3182TP3     H221366   4.714   1.966   0.515
 3183TP3      O21367   5.113   2.361   0.576
 3183TP3     H121368   5.048   2.341   0.643
 3183TP3     H221369   5.111   2.456   0.567
 3184TP3      O21370   5.232   2.868   9.469
 3184TP3     H121371   5.242   2.885   9.376
 3184TP3     H221372   5.314   2.897   9.509
 3185TP3      O21373   4.807   2.274   9.571
 3185TP3     H121374   4.752   2.250   9.646
 3185TP3     H221375   4.765   2.232   9.496
 3186TP3      O21376   4.318   2.562   0.232
 3186TP3     H121377   4.267   2.548   0.312
 3186TP3     H221378   4.304   2.654   0.210
 3187TP3      O21379   4.329   2.516  10.060
 3187TP3     H121380   4.235   2.503  10.059
 3187TP3     H221381   4.358   2.492   9.972
 3188TP3      O21382   4.886   2.566   9.947
 3188TP3     H121383   4.863   2.651   9.910
 3188TP3     H221384   4.958   2.535   9.892
 3189TP3      O21385   4.820   2.560   0.757
 3189TP3     H121386   4.767   2.489   0.792
 3189TP3     H221387   4.902   2.556   0.806
 3190TP3      O21388   4.992   2.509  10.202
 3190TP3     H121389   4.957   2.563  10.132
 3190TP3     H221390   5.028   2.432  10.158
 3191TP3      O21391   4.120   2.525   0.425
 3191TP3     H121392   4.124   2.571   0.509
 3191TP3     H221393   4.083   2.440   0.446
 3192TP3      O21394   4.413   2.302   9.474
 3192TP3     H121395   4.384   2.258   9.554
 3192TP3     H221396   4.394   2.394   9.489
 3193TP3      O21397   3.788   2.228  10.150
 3193TP3     H121398   3.850   2.232  10.223
 3193TP3     H221399   3.843   2.213  10.073
 3194TP3      O21400   3.858   2.339   9.660
 3194TP3     H121401   3.937   2.374   9.619
 3194TP3     H221402   3.802   2.415   9.675
 3195TP3      O21403   4.931   2.636   0.346
 3195TP3     H121404   4.971   2.575   0.284
 3195TP3     H221405   4.881   2.581   0.406
 3196TP3      O21406   4.640   2.280  10.172
 3196TP3     H121407   4.550   2.270  10.201
 3196TP3     H221408   4.690   2.220  10.228
 3197TP3      O21409   4.071   2.435  10.041
 3197TP3     H121410   3.997   2.468   9.990
 3197TP3     H221411   4.082   2.345  10.012
 3198TP3      O21412   4.408   2.441   9.814
 3198TP3     H121413   4.503   2.446   9.824
 3198TP3     H221414   4.391   2.486   9.731
 3199TP3      O21415   5.047   2.178   0.192
 3199TP3     H121416   4.996   2.191   0.272
 3199TP3     H221417   4.990   2.128   0.135
 3200TP3      O21418   4.318   2.542   9.575
 3200TP3     H121419   4.225   2.538   9.553
 3200TP3     H221420   4.355   2.606   9.513
 3201TP3      O21421   5.392   3.740   0.826
 3201TP3     H121422   5.432   3.792   0.757
 3201TP3     H221423   5.453   3.747   0.900
 3202TP3      O21424   4.147   3.020   0.750
 3202TP3     H121425   4.218   3.018   0.815
 3202TP3     H221426   4.067   3.029   0.801
 3203TP3      O21427   4.761   2.550   0.059
 3203TP3     H121428   4.812   2.530  -0.020
 3203TP3     H221429   4.809   2.506   0.129
 3204TP3      O21430   4.199   2.161  10.022
 3204TP3     H121431   4.144   2.086  10.046
 3204TP3     H221432   4.243   2.133   9.942
 3205TP3      O21433   4.573   2.444   0.324
 3205TP3     H121434   4.508   2.497   0.370
 3205TP3     H221435   4.652   2.451   0.377
 3206TP3      O21436   4.647   2.998   9.767
 3206TP3     H121437   4.573   2.957   9.723
 3206TP3     H221438   4.612   3.027   9.851
 3207TP3      O21439   5.376   2.921   0.305
 3207TP3     H121440   5.452   2.892   0.254
 3207TP3     H221441   5.303   2.917   0.244
 3208TP3      O21442   5.064   2.272   9.653
 3208TP3     H121443   4.981   2.275   9.606
 3208TP3     H221444   5.075   2.361   9.687
 3209TP3      O21445   4.841   3.079   0.566
 3209TP3     H121446   4.771   3.013   0.569
 3209TP3     H221447   4.797   3.162   0.584
 3210TP3      O21448   5.103   2.513   9.776
 3210TP3     H121449   5.190   2.495   9.811
 3210TP3     H221450   5.110   2.601   9.738
 3211TP3      O21451   4.151   2.930  -0.002
 3211TP3     H121452   4.218   2.914  -0.068
 3211TP3     H221453   4.180   2.880   0.074
 3212TP3      O21454   4.875   3.149   9.710
 3212TP3     H121455   4.834   3.235   9.714
 3212TP3     H221456   4.803   3.087   9.719
 3213TP3      O21457   3.872   2.768   0.545
 3213TP3     H121458   3.844   2.723   0.625
 3213TP3     H221459   3.804   2.748   0.481
 3214TP3      O21460   4.614   2.737   0.812
 3214TP3     H121461   4.594   2.788   0.733
 3214TP3     H221462   4.689   2.683   0.787
 3215TP3      O21463   5.011   3.382   0.612
 3215TP3     H121464   4.929   3.350   0.575
 3215TP3     H221465   5.009   3.355   0.704
 3216TP3      O21466   5.411   3.348   9.765
 3216TP3     H121467   5.352   3.304   9.826
 3216TP3     H221468   5.383   3.318   9.679
 3217TP3      O21469   5.172   2.881   0.113
 3217TP3     H121470   5.077   2.874   0.111
 3217TP3     H221471   5.203   2.802   0.069
 3218TP3      O21472   4.432   3.305  10.090
 3218TP3     H121473   4.455   3.388  10.049
 3218TP3     H221474   4.339   3.313  10.110
 3219TP3      O21475   3.979   2.777   9.572
 3219TP3     H121476   4.019   2.845   9.626
 3219TP3     H221477   3.885   2.788   9.586
 3220TP3      O21478   4.515   3.059   9.996
 3220TP3     H121479   4.495   3.148  10.025
 3220TP3     H221480   4.458   3.003  10.050
 3221TP3      O21481   4.610   3.485   0.362
 3221TP3     H121482   4.671   3.555   0.340
 3221TP3     H221483   4.661   3.426   0.418
 3222TP3      O21484   4.417   3.576   9.975
 3222TP3     H121485   4.325   3.582  10.002
 3222TP3     H221486   4.459   3.650  10.019
 3223TP3      O21487   4.927   3.109   0.311
 3223TP3     H121488   4.894   3.093   0.400
 3223TP3     H221489   4.980   3.032   0.292
 3224TP3      O21490   5.140   3.201   9.580
 3224TP3     H121491   5.194   3.142   9.631
 3224TP3     H221492   5.050   3.183   9.610
 3225TP3      O21493   5.227   3.518   0.526
 3225TP3     H121494   5.165   3.455   0.564
 3225TP3     H221495   5.191   3.536   0.439
 3226TP3      O21496   4.012   2.268   0.483
 3226TP3     H121497   3.921   2.292   0.469
 3226TP3     H221498   4.008   2.200   0.551
 3227TP3      O21499   5.296   3.044   9.751
 3227TP3     H121500   5.254   2.977   9.805
 3227TP3     H221501   5.380   3.060   9.794
 3228TP3      O21502   4.012   3.450   0.349
 3228TP3     H121503   4.032   3.371   0.399
 3228TP3     H221504   4.028   3.522   0.411
 3229TP3      O21505   4.438   3.284   9.691
 3229TP3     H121506   4.518   3.241   9.721
 3229TP3     H221507   4.457   3.378   9.698
 3230TP3      O21508   4.095   2.979   9.725
 3230TP3     H121509   4.023   3.025   9.767
 3230TP3     H221510   4.143   3.048   9.678
 3231TP3      O21511   4.915   2.217   0.425
 3231TP3     H121512   4.984   2.237   0.489
 3231TP3     H221513   4.875   2.136   0.457
 3232TP3      O21514   4.989   2.146   9.880
 3232TP3     H121515   5.011   2.185   9.795
 3232TP3     H221516   5.029   2.205   9.943
 3233TP3      O21517   4.729   3.379   9.720
 3233TP3     H121518   4.659   3.442   9.733
 3233TP3     H221519   4.783   3.416   9.650
 3234TP3      O21520   4.665   2.404   9.929
 3234TP3     H121521   4.744   2.458   9.933
 3234TP3     H221522   4.660   2.363  10.016
 3235TP3      O21523   4.786   2.466   0.496
 3235TP3     H121524   4.791   2.497   0.586
 3235TP3     H221525   4.821   2.377   0.499
 3236TP3      O21526   4.757   2.052   9.983
 3236TP3     H121527   4.754   2.100  10.066
 3236TP3     H221528   4.840   2.079   9.943
 3237TP3      O21529   4.507   3.550   9.718
 3237TP3     H121530   4.508   3.637   9.680
 3237TP3     H221531   4.476   3.563   9.808
 3238TP3      O21532   4.354   2.186   9.715
 3238TP3     H121533   4.348   2.270   9.760
 3238TP3     H221534   4.445   2.159   9.728
 3239TP3      O21535   5.384   2.324   0.610
 3239TP3     H121536   5.289   2.309   0.603
 3239TP3     H221537   5.408   2.362   0.525
 3240TP3      O21538   5.229   2.628  -0.001
 3240TP3     H121539   5.145   2.593  -0.032
 3240TP3     H221540   5.264   2.559   0.055
 3241TP3      O21541   4.205   3.191   9.584
 3241TP3     H121542   4.270   3.237   9.636
 3241TP3     H221543   4.257   3.144   9.518
 3242TP3      O21544   4.049   2.524   9.508
 3242TP3     H121545   4.023   2.613   9.531
 3242TP3     H221546   4.009   2.508   9.423
 3243TP3      O21547   5.371   3.568   0.186
 3243TP3     H121548   5.359   3.635   0.119
 3243TP3     H221549   5.455   3.528   0.164
 3244TP3      O21550   4.087   1.972   0.033
 3244TP3     H121551   4.077   1.960  -0.061
 3244TP3     H221552   4.054   1.890   0.071
 3245TP3      O21553   3.965   3.378   9.967
 3245TP3     H121554   3.909   3.408  10.038
 3245TP3     H221555   3.952   3.443   9.897
 3246TP3      O21556   3.935   3.669   0.822
 3246TP3     H121557   4.000   3.650   0.889
 3246TP3     H221558   3.909   3.583   0.788
 3247TP3      O21559   4.353   3.492   0.950
 3247TP3     H121560   4.434   3.446   0.974
 3247TP3     H221561   4.332   3.459   0.863
 3248TP3      O21562   4.871   3.478   9.515
 3248TP3     H121563   4.833   3.443   9.435
 3248TP3     H221564   4.963   3.492   9.494
 3249TP3      O21565   4.999   3.352   0.878
 3249TP3     H121566   4.983   3.267   0.920
 3249TP3     H221567   5.074   3.388   0.926
 3250TP3      O21568   5.205   3.429   9.440
 3250TP3     H121569   5.177   3.351   9.488
 3250TP3     H221570   5.292   3.408   9.408
 3251TP3      O21571   3.902   3.028   0.883
 3251TP3     H121572   3.905   2.932   0.876
 3251TP3     H221573   3.830   3.053   0.826
 3252TP3      O21574   4.380   3.039   9.443
 3252TP3     H121575   4.397   2.984   9.520
 3252TP3     H221576   4.361   2.977   9.373
 3253TP3      O21577   4.570   3.059   0.852
 3253TP3     H121578   4.552   3.092   0.764
 3253TP3     H221579   4.623   2.980   0.837
 3254TP3      O21580   5.090   2.960   0.592
 3254TP3     H121581   5.160   3.022   0.568
 3254TP3     H221582   5.010   3.012   0.586
 3255TP3      O21583   3.982   2.758   0.864
 3255TP3     H121584   4.070   2.736   0.833
 3255TP3     H221585   3.989   2.758   0.959
 3256TP3      O21586   4.445   2.863   9.644
 3256TP3     H121587   4.391   2.827   9.714
 3256TP3     H221588   4.484   2.786   9.602
 3257TP3      O21589   4.395   2.645   0.534
 3257TP3     H121590   4.314   2.692   0.552
 3257TP3     H221591   4.464   2.711   0.541
 3258TP3      O21592   4.571   2.672   9.494
 3258TP3     H121593   4.574   2.675   9.399
 3258TP3     H221594   4.662   2.654   9.520
 3259TP3      O21595   4.900   2.888   0.921
 3259TP3     H121596   4.962   2.849   0.859
 3259TP3     H221597   4.865   2.815   0.971
 3260TP3      O21598  -0.004   2.912   9.396
 3260TP3     H121599  -0.025   2.894   9.305
 3260TP3     H221600   0.068   2.974   9.393
 3261TP3      O21601   4.437   2.402   0.664
 3261TP3     H121602   4.439   2.336   0.595
 3261TP3     H221603   4.427   2.485   0.617
 3262TP3      O21604   4.457   2.220   0.444
 3262TP3     H121605   4.508   2.277   0.386
 3262TP3     H221606   4.372   2.212   0.400
 3263TP3      O21607   4.660   2.724   0.305
 3263TP3     H121608   4.749   2.705   0.331
 3263TP3     H221609   4.627   2.784   0.372
 3264TP3      O21610   5.049   2.532   0.914
 3264TP3     H121611   5.079   2.442   0.925
 3264TP3     H221612   5.128   2.580   0.889
 3265TP3      O21613   5.172   2.808   0.791
 3265TP3     H121614   5.134   2.870   0.728
 3265TP3     H221615   5.267   2.819   0.780
 3266TP3      O21616   4.274   2.443   0.887
 3266TP3     H121617   4.195   2.391   0.871
 3266TP3     H221618   4.324   2.438   0.806
 3267TP3      O21619   4.528   1.957   0.496
 3267TP3     H121620   4.504   2.048   0.480
 3267TP3     H221621   4.460   1.906   0.452
 3268TP3      O21622   4.661   2.350   0.824
 3268TP3     H121623   4.624   2.322   0.908
 3268TP3     H221624   4.585   2.366   0.768
 3269TP3      O21625   4.922   2.276   0.744
 3269TP3     H121626   4.833   2.284   0.778
 3269TP3     H221627   4.971   2.234   0.815
 3270TP3      O21628   5.094   2.176   0.938
 3270TP3     H121629   5.098   2.081   0.927
 3270TP3     H221630   5.069   2.189   1.030
 3271TP3      O21631   4.067   2.253   0.855
 3271TP3     H121632   4.068   2.173   0.803
 3271TP3     H221633   4.078   2.223   0.945
 3272TP3      O21634   4.521   1.882   0.758
 3272TP3     H121635   4.579   1.805   0.754
 3272TP3     H221636   4.516   1.913   0.668
 3273TP3      O21637   4.596   2.039   0.969
 3273TP3     H121638   4.574   1.986   0.892
 3273TP3     H221639   4.536   2.113   0.966
 3274TP3      O21640   4.558   3.771   9.532
 3274TP3     H121641   4.649   3.759   9.561
 3274TP3     H221642   4.563   3.762   9.437
 3275TP3      O21643   3.943   3.251   9.526
 3275TP3     H121644   4.035   3.231   9.544
 3275TP3     H221645   3.946   3.312   9.453
 3276TP3      O21646   3.797   3.716  10.061
 3276TP3     H121647   3.738   3.689   9.991
 3276TP3     H221648   3.813   3.636  10.111
 3277TP3      O21649   3.862   3.495  10.215
 3277TP3     H121650   3.822   3.422  10.261
 3277TP3     H221651   3.912   3.542  10.282
 3278TP3      O21652   5.434   3.152   0.958
 3278TP3     H121653   5.352   3.153   1.007
 3278TP3     H221654   5.459   3.244   0.952
 3279TP3      O21655   5.392   3.300   0.421
 3279TP3     H121656   5.361   3.388   0.444
 3279TP3     H221657   5.364   3.289   0.330
 3280TP3      O21658   5.527   2.470   9.442
 3280TP3     H121659   5.506   2.543   9.384
 3280TP3     H221660   5.490   2.393   9.398
 3281TP3      O21661   5.333   2.660  10.058
 3281TP3     H121662   5.321   2.568  10.035
 3281TP3     H221663   5.312   2.663  10.151
 3282TP3      O21664   3.858   2.832   0.171
 3282TP3     H121665   3.865   2.823   0.076
 3282TP3     H221666   3.947   2.820   0.203
 3283TP3      O21667   5.432   2.876   0.732
 3283TP3     H121668   5.495   2.825   0.680
 3283TP3     H221669   5.407   2.949   0.675
 3284TP3      O21670   5.340   2.416   9.900
 3284TP3     H121671   5.355   2.322   9.901
 3284TP3     H221672   5.427   2.454   9.887
 3285TP3      O21673   5.359   2.399   0.167
 3285TP3     H121674   5.441   2.440   0.140
 3285TP3     H221675   5.342   2.435   0.254
 3286TP3      O21676   5.358   2.536   0.405
 3286TP3     H121677   5.283   2.575   0.449
 3286TP3     H221678   5.413   2.610   0.380
 3287TP3      O21679   3.839   2.368   0.748
 3287TP3     H121680   3.924   2.343   0.787
 3287TP3     H221681   3.786   2.289   0.757
 3288TP3      O21682   5.366   2.146   9.932
 3288TP3     H121683   5.374   2.112  10.021
 3288TP3     H221684   5.313   2.082   9.886
 3289TP3      O21685   3.955   2.214   0.052
 3289TP3     H121686   3.994   2.127   0.056
 3289TP3     H221687   4.028   2.273   0.073
 3290TP3      O21688   3.764   2.506   0.126
 3290TP3     H121689   3.833   2.505   0.059
 3290TP3     H221690   3.788   2.579   0.184
 3291TP3      O21691   3.820   2.147   9.856
 3291TP3     H121692   3.725   2.146   9.867
 3291TP3     H221693   3.836   2.217   9.793
 3292TP3      O21694   5.275   3.658  10.082
 3292TP3     H121695   5.333   3.646  10.007
 3292TP3     H221696   5.331   3.694  10.151
 3293TP3      O21697   3.817   1.987   0.386
 3293TP3     H121698   3.747   1.974   0.451
 3293TP3     H221699   3.783   2.054   0.327
 3294TP3      O21700   4.020   3.368   0.802
 3294TP3     H121701   3.932   3.368   0.767
 3294TP3     H221702   4.011   3.337   0.892
 3295TP3      O21703   4.349   3.473   0.445
 3295TP3     H121704   4.323   3.562   0.419
 3295TP3     H221705   4.442   3.468   0.424
 3296TP3      O21706   4.727   3.586   0.715
 3296TP3     H121707   4.732   3.552   0.804
 3296TP3     H221708   4.807   3.638   0.705
 3297TP3      O21709   5.001   3.684   0.669
 3297TP3     H121710   5.002   3.589   0.660
 3297TP3     H221711   5.025   3.700   0.761
 3298TP3      O21712   5.408   1.926   0.567
 3298TP3     H121713   5.340   1.988   0.542
 3298TP3     H221714   5.387   1.845   0.521
 3299TP3      O21715   4.053   3.756   0.456
 3299TP3     H121716   3.973   3.791   0.418
 3299TP3     H221717   4.062   3.802   0.540
 3300TP3      O21718   4.311   3.732   0.370
 3300TP3     H121719   4.220   3.743   0.396
 3300TP3     H221720   4.317   3.776   0.285
 3301TP3      O21721   4.763   3.699   0.274
 3301TP3     H121722   4.712   3.729   0.199
 3301TP3     H221723   4.771   3.775   0.331
 3302TP3      O21724   5.007   3.596   0.351
 3302TP3     H121725   4.920   3.626   0.322
 3302TP3     H221726   5.066   3.665   0.322
 3303TP3      O21727   5.238   3.758   0.347
 3303TP3     H121728   5.252   3.845   0.310
 3303TP3     H221729   5.288   3.700   0.290
 3304TP3      O21730   4.019   3.601   0.114
 3304TP3     H121731   4.011   3.556   0.198
 3304TP3     H221732   4.098   3.564   0.074
 3305TP3      O21733   4.233   3.479   0.004
 3305TP3     H121734   4.220   3.387   0.027
 3305TP3     H221735   4.320   3.500   0.040
 3306TP3      O21736   4.490   3.503   0.112
 3306TP3     H121737   4.501   3.413   0.082
 3306TP3     H221738   4.521   3.502   0.203
 3307TP3      O21739   4.788   2.072  10.282
 3307TP3     H121740   4.734   2.003  10.321
 3307TP3     H221741   4.873   2.030  10.267
 3308TP3      O21742   5.305   1.904   0.034
 3308TP3     H121743   5.358   1.965  -0.018
 3308TP3     H221744   5.215   1.924   0.008
 3309TP3      O21745   5.453   2.051  10.179
 3309TP3     H121746   5.516   1.994  10.134
 3309TP3     H221747   5.501   2.133  10.193
 3310TP3      O21748   4.053   1.933  10.079
 3310TP3     H121749   3.961   1.917  10.061
 3310TP3     H221750   4.096   1.849  10.066
 3311TP3      O21751   3.927   1.947   9.688
 3311TP3     H121752   3.995   1.997   9.643
 3311TP3     H221753   3.889   2.009   9.750
 3312TP3      O21754   4.532   1.912  10.091
 3312TP3     H121755   4.605   1.959  10.051
 3312TP3     H221756   4.552   1.911  10.184
 3313TP3      O21757   5.041   1.953  10.244
 3313TP3     H121758   5.078   1.938  10.158
 3313TP3     H221759   5.014   1.866  10.274
 3314TP3      O21760   5.200   1.967   9.816
 3314TP3     H121761   5.121   2.021   9.821
 3314TP3     H221762   5.168   1.877   9.826
 3315TP3      O21763   3.934   3.563   9.775
 3315TP3     H121764   3.861   3.549   9.714
 3315TP3     H221765   3.951   3.657   9.771
 3316TP3      O21766   4.147   2.059   9.563
 3316TP3     H121767   4.177   1.970   9.544
 3316TP3     H221768   4.218   2.097   9.615
 3317TP3      O21769   4.628   2.186   9.771
 3317TP3     H121770   4.662   2.117   9.827
 3317TP3     H221771   4.638   2.266   9.822
 3318TP3      O21772   4.816   3.727   9.608
 3318TP3     H121773   4.898   3.772   9.590
 3318TP3     H221774   4.830   3.637   9.577
 3319TP3      O21775   5.440   3.604   9.869
 3319TP3     H121776   5.439   3.516   9.831
 3319TP3     H221777   5.432   3.663   9.794
 3320TP3      O21778   4.061   2.006   0.714
 3320TP3     H121779   4.002   1.936   0.743
 3320TP3     H221780   4.143   1.989   0.761
 3321TP3      O21781   4.264   1.939   0.887
 3321TP3     H121782   4.350   1.911   0.855
 3321TP3     H221783   4.229   1.862   0.931
 3322TP3      O21784   4.111   3.643   9.499
 3322TP3     H121785   4.085   3.714   9.557
 3322TP3     H221786   4.149   3.577   9.558
 3323TP3      O21787   5.136   1.902   0.899
 3323TP3     H121788   5.116   1.857   0.981
 3323TP3     H221789   5.230   1.887   0.885
 3324TP3      O21790   5.389   3.458   0.813
 3324TP3     H121791   5.383   3.436   0.720
 3324TP3     H221792   5.405   3.552   0.814
 3325TP3      O21793   1.210   4.775  10.064
 3325TP3     H121794   1.205   4.871  10.058
 3325TP3     H221795   1.142   4.744  10.004
 3326TP3      O21796   1.093   4.686   0.141
 3326TP3     H121797   1.118   4.641   0.221
 3326TP3     H221798   1.040   4.622   0.093
 3327TP3      O21799   0.308   4.641   0.262
 3327TP3     H121800   0.315   4.563   0.318
 3327TP3     H221801   0.399   4.667   0.247
 3328TP3      O21802   1.472   4.985  -0.036
 3328TP3     H121803   1.434   4.909   0.007
 3328TP3     H221804   1.484   5.049   0.034
 3329TP3      O21805   0.440   5.071   0.086
 3329TP3     H121806   0.407   4.986   0.057
 3329TP3     H221807   0.535   5.059   0.093
 3330TP3      O21808   0.055   4.406   9.980
 3330TP3     H121809   0.030   4.490  10.020
 3330TP3     H221810   0.047   4.343  10.051
 3331TP3      O21811   0.165   4.677  10.227
 3331TP3     H121812   0.202   4.590  10.241
 3331TP3     H221813   0.239   4.736  10.235
 3332TP3      O21814   1.175   5.384  10.281
 3332TP3     H121815   1.252   5.357  10.231
 3332TP3     H221816   1.181   5.334  10.363
 3333TP3      O21817   0.938   4.931   0.158
 3333TP3     H121818   0.981   4.851   0.126
 3333TP3     H221819   1.003   4.972   0.215
 3334TP3      O21820   1.815   4.086   0.248
 3334TP3     H121821   1.829   4.153   0.316
 3334TP3     H221822   1.876   4.110   0.178
 3335TP3      O21823   1.258   4.322   0.162
 3335TP3     H121824   1.352   4.304   0.156
 3335TP3     H221825   1.233   4.349   0.074
 3336TP3      O21826   0.595   4.170  10.204
 3336TP3     H121827   0.601   4.257  10.163
 3336TP3     H221828   0.546   4.118  10.141
 3337TP3      O21829   1.368   4.213  10.067
 3337TP3     H121830   1.416   4.183  10.144
 3337TP3     H221831   1.435   4.247  10.008
 3338TP3      O21832   0.257   4.421  10.280
 3338TP3     H121833   0.319   4.375  10.336
 3338TP3     H221834   0.275   4.389  10.192
 3339TP3      O21835   0.716   4.569  10.256
 3339TP3     H121836   0.801   4.534  10.282
 3339TP3     H221837   0.681   4.504  10.195
 3340TP3      O21838   1.837   4.248   0.471
 3340TP3     H121839   1.775   4.320   0.457
 3340TP3     H221840   1.875   4.265   0.557
 3341TP3      O21841   0.445   4.090   0.330
 3341TP3     H121842   0.421   4.150   0.260
 3341TP3     H221843   0.373   4.096   0.393
 3342TP3      O21844   1.197   5.038   9.976
 3342TP3     H121845   1.173   5.037   9.883
 3342TP3     H221846   1.152   5.115  10.011
 3343TP3      O21847   0.709   4.854   0.299
 3343TP3     H121848   0.657   4.923   0.341
 3343TP3     H221849   0.779   4.901   0.254
 3344TP3      O21850   1.496   4.153  -0.014
 3344TP3     H121851   1.539   4.069   0.000
 3344TP3     H221852   1.548   4.215   0.036
 3345TP3      O21853   0.438   4.250   0.099
 3345TP3     H121854   0.493   4.309   0.151
 3345TP3     H221855   0.496   4.216   0.032
 3346TP3      O21856   0.556   5.047   0.425
 3346TP3     H121857   0.558   5.141   0.412
 3346TP3     H221858   0.466   5.028   0.452
 3347TP3      O21859   0.122   5.030   9.819
 3347TP3     H121860   0.069   5.088   9.764
 3347TP3     H221861   0.150   5.085   9.892
 3348TP3      O21862   1.478   5.168   0.171
 3348TP3     H121863   1.384   5.184   0.181
 3348TP3     H221864   1.516   5.255   0.159
 3349TP3      O21865   1.565   3.991   0.324
 3349TP3     H121866   1.504   4.043   0.272
 3349TP3     H221867   1.652   4.017   0.292
 3350TP3      O21868   0.801   3.774   0.062
 3350TP3     H121869   0.769   3.684   0.061
 3350TP3     H221870   0.727   3.826   0.093
 3351TP3      O21871   1.386   5.364  10.106
 3351TP3     H121872   1.427   5.281  10.083
 3351TP3     H221873   1.454   5.412  10.154
 3352TP3      O21874   1.457   5.108  10.034
 3352TP3     H121875   1.370   5.079  10.008
 3352TP3     H221876   1.476   5.060  10.115
 3353TP3      O21877   1.615   4.972   0.527
 3353TP3     H121878   1.605   4.914   0.451
 3353TP3     H221879   1.623   5.059   0.490
 3354TP3      O21880   1.064   4.692   9.843
 3354TP3     H121881   1.000   4.758   9.817
 3354TP3     H221882   1.126   4.689   9.770
 3355TP3      O21883   1.074   4.507   9.542
 3355TP3     H121884   1.144   4.556   9.584
 3355TP3     H221885   1.117   4.429   9.508
 3356TP3      O21886   1.782   4.652   0.360
 3356TP3     H121887   1.710   4.713   0.349
 3356TP3     H221888   1.841   4.670   0.286
 3357TP3      O21889   1.423   4.715   9.907
 3357TP3     H121890   1.356   4.739   9.971
 3357TP3     H221891   1.490   4.671   9.959
 3358TP3      O21892   1.393   4.535   0.538
 3358TP3     H121893   1.389   4.605   0.603
 3358TP3     H221894   1.327   4.559   0.473
 3359TP3      O21895   0.579   4.761  10.103
 3359TP3     H121896   0.554   4.724  10.018
 3359TP3     H221897   0.633   4.693  10.143
 3360TP3      O21898   0.720   5.076   0.052
 3360TP3     H121899   0.721   5.089  -0.043
 3360TP3     H221900   0.800   5.026   0.070
 3361TP3      O21901   0.577   4.663   0.160
 3361TP3     H121902   0.631   4.641   0.084
 3361TP3     H221903   0.627   4.730   0.206
 3362TP3      O21904   1.216   5.236   0.215
 3362TP3     H121905   1.220   5.306   0.280
 3362TP3     H221906   1.181   5.161   0.262
 3363TP3      O21907   0.719   5.099   0.642
 3363TP3     H121908   0.657   5.156   0.687
 3363TP3     H221909   0.670   5.066   0.566
 3364TP3      O21910   1.290   4.645   9.679
 3364TP3     H121911   1.336   4.674   9.757
 3364TP3     H221912   1.331   4.692   9.606
 3365TP3      O21913   0.418   4.678   0.581
 3365TP3     H121914   0.426   4.750   0.644
 3365TP3     H221915   0.328   4.685   0.549
 3366TP3      O21916   1.071   5.268  10.046
 3366TP3     H121917   1.079   5.319  10.126
 3366TP3     H221918   0.998   5.308   9.999
 3367TP3      O21919   0.519   5.283   0.704
 3367TP3     H121920   0.527   5.308   0.612
 3367TP3     H221921   0.425   5.283   0.721
 3368TP3      O21922   1.672   3.813   9.661
 3368TP3     H121923   1.588   3.841   9.697
 3368TP3     H221924   1.710   3.894   9.626
 3369TP3      O21925   0.497   4.681   9.842
 3369TP3     H121926   0.439   4.752   9.812
 3369TP3     H221927   0.446   4.601   9.827
 3370TP3      O21928   1.804   5.207   9.556
 3370TP3     H121929   1.823   5.301   9.558
 3370TP3     H221930   1.890   5.166   9.547
 3371TP3      O21931   0.138   4.886   0.420
 3371TP3     H121932   0.063   4.887   0.361
 3371TP3     H221933   0.140   4.798   0.456
 3372TP3      O21934   0.092   5.187   0.103
 3372TP3     H121935   0.174   5.139   0.119
 3372TP3     H221936   0.061   5.212   0.190
 3373TP3      O21937   1.881   5.255   0.741
 3373TP3     H121938   1.857   5.163   0.739
 3373TP3     H221939   1.800   5.300   0.767
 3374TP3      O21940   0.959   5.224   0.596
 3374TP3     H121941   0.976   5.294   0.659
 3374TP3     H221942   0.874   5.189   0.621
 3375TP3      O21943   0.382   5.402  10.079
 3375TP3     H121944   0.398   5.381  10.171
 3375TP3     H221945   0.317   5.338  10.051
 3376TP3      O21946   1.320   5.523   9.585
 3376TP3     H121947   1.366   5.451   9.540
 3376TP3     H221948   1.312   5.493   9.675
 3377TP3      O21949   1.279   5.452   9.864
 3377TP3     H121950   1.194   5.408   9.855
 3377TP3     H221951   1.317   5.415   9.944
 3378TP3      O21952   1.578   4.403   0.762
 3378TP3     H121953   1.512   4.444   0.706
 3378TP3     H221954   1.579   4.311   0.736
 3379TP3      O21955   0.301   5.058   0.544
 3379TP3     H121956   0.328   5.006   0.620
 3379TP3     H221957   0.237   5.003   0.499
 3380TP3      O21958   0.567   3.896   0.161
 3380TP3     H121959   0.493   3.887   0.100
 3380TP3     H221960   0.541   3.969   0.218
 3381TP3      O21961   1.048   3.810   0.496
 3381TP3     H121962   1.090   3.773   0.574
 3381TP3     H221963   0.956   3.822   0.521
 3382TP3      O21964   1.336   4.272   0.560
 3382TP3     H121965   1.274   4.261   0.632
 3382TP3     H221966   1.347   4.367   0.552
 3383TP3      O21967   1.426   4.785   9.487
 3383TP3     H121968   1.413   4.862   9.431
 3383TP3     H221969   1.483   4.817   9.558
 3384TP3      O21970   1.046   4.140   9.564
 3384TP3     H121971   0.982   4.125   9.633
 3384TP3     H221972   1.004   4.106   9.485
 3385TP3      O21973   0.581   4.410   0.269
 3385TP3     H121974   0.514   4.413   0.337
 3385TP3     H221975   0.583   4.500   0.234
 3386TP3      O21976   0.583   4.410  10.075
 3386TP3     H121977   0.488   4.402  10.068
 3386TP3     H221978   0.615   4.394   9.987
 3387TP3      O21979   1.121   4.443   9.948
 3387TP3     H121980   1.095   4.530   9.915
 3387TP3     H221981   1.192   4.416   9.891
 3388TP3      O21982   1.036   4.465   0.765
 3388TP3     H121983   0.985   4.393   0.801
 3388TP3     H221984   1.119   4.462   0.812
 3389TP3      O21985   1.218   4.391  10.215
 3389TP3     H121986   1.175   4.447  10.151
 3389TP3     H221987   1.257   4.321  10.162
 3390TP3      O21988   0.367   4.426   0.438
 3390TP3     H121989   0.377   4.489   0.509
 3390TP3     H221990   0.302   4.364   0.472
 3391TP3      O21991   0.647   4.198   9.459
 3391TP3     H121992   0.613   4.195   9.548
 3391TP3     H221993   0.643   4.290   9.434
 3392TP3      O21994   0.061   4.170  10.126
 3392TP3     H121995   0.116   4.156  10.203
 3392TP3     H221996   0.108   4.125  10.055
 3393TP3      O21997   0.136   4.227   9.681
 3393TP3     H121998   0.218   4.261   9.646
 3393TP3     H221999   0.068   4.275   9.634
 3394TP3      O22000   1.173   4.514   0.348
 3394TP3     H122001   1.203   4.447   0.287
 3394TP3     H222002   1.108   4.470   0.402
 3395TP3      O22003   0.874   4.137  10.158
 3395TP3     H122004   0.784   4.141  10.192
 3395TP3     H222005   0.923   4.092  10.227
 3396TP3      O22006   0.325   4.326  10.031
 3396TP3     H122007   0.247   4.345   9.979
 3396TP3     H222008   0.350   4.237  10.005
 3397TP3      O22009   0.646   4.344   9.820
 3397TP3     H122010   0.742   4.344   9.825
 3397TP3     H222011   0.627   4.391   9.738
 3398TP3      O22012   1.259   4.034   0.177
 3398TP3     H122013   1.232   4.125   0.190
 3398TP3     H222014   1.250   4.019   0.083
 3399TP3      O22015   0.554   4.444   9.584
 3399TP3     H122016   0.464   4.438   9.552
 3399TP3     H222017   0.600   4.493   9.515
 3400TP3      O22018   0.395   4.899   0.774
 3400TP3     H122019   0.464   4.862   0.829
 3400TP3     H222020   0.361   4.973   0.825
 3401TP3      O22021   0.948   4.451   0.048
 3401TP3     H122022   1.014   4.399   0.002
 3401TP3     H222023   0.920   4.396   0.120
 3402TP3      O22024   0.438   4.067   9.995
 3402TP3     H122025   0.396   3.985  10.020
 3402TP3     H222026   0.469   4.052   9.906
 3403TP3      O22027   0.841   4.316   0.281
 3403TP3     H122028   0.756   4.360   0.281
 3403TP3     H222029   0.887   4.352   0.356
 3404TP3      O22030   0.886   4.891   9.765
 3404TP3     H122031   0.814   4.845   9.721
 3404TP3     H222032   0.850   4.916   9.850
 3405TP3      O22033   1.584   4.829   0.295
 3405TP3     H122034   1.646   4.885   0.249
 3405TP3     H222035   1.512   4.816   0.233
 3406TP3      O22036   1.295   4.132   9.672
 3406TP3     H122037   1.218   4.134   9.615
 3406TP3     H222038   1.315   4.224   9.688
 3407TP3      O22039   1.023   4.936   0.582
 3407TP3     H122040   1.041   4.900   0.669
 3407TP3     H222041   0.993   5.025   0.599
 3408TP3      O22042   1.338   4.387   9.779
 3408TP3     H122043   1.428   4.379   9.810
 3408TP3     H222044   1.336   4.471   9.732
 3409TP3      O22045   0.401   4.811  10.304
 3409TP3     H122046   0.459   4.806  10.229
 3409TP3     H222047   0.441   4.754  10.370
 3410TP3      O22048   1.107   5.053   9.716
 3410TP3     H122049   1.066   5.139   9.724
 3410TP3     H222050   1.033   4.992   9.720
 3411TP3      O22051   0.142   4.641   0.557
 3411TP3     H122052   0.159   4.628   0.650
 3411TP3     H222053   0.047   4.628   0.549
 3412TP3      O22054   0.824   4.646   0.774
 3412TP3     H122055   0.759   4.602   0.719
 3412TP3     H222056   0.904   4.594   0.762
 3413TP3      O22057   1.241   5.187   0.589
 3413TP3     H122058   1.150   5.200   0.564
 3413TP3     H222059   1.243   5.201   0.684
 3414TP3      O22060   1.780   4.425   9.714
 3414TP3     H122061   1.718   4.394   9.647
 3414TP3     H222062   1.799   4.515   9.689
 3415TP3      O22063   1.835   4.978   0.688
 3415TP3     H122064   1.746   4.990   0.654
 3415TP3     H222065   1.889   4.965   0.610
 3416TP3      O22066   1.674   5.255   9.811
 3416TP3     H122067   1.612   5.190   9.846
 3416TP3     H222068   1.699   5.220   9.726
 3417TP3      O22069   1.378   4.764   0.111
 3417TP3     H122070   1.282   4.756   0.110
 3417TP3     H222071   1.409   4.688   0.062
 3418TP3      O22072   0.649   5.168  10.107
 3418TP3     H122073   0.663   5.249  10.059
 3418TP3     H222074   0.554   5.162  10.118
 3419TP3      O22075   0.204   4.671   9.568
 3419TP3     H122076   0.245   4.736   9.625
 3419TP3     H222077   0.132   4.718   9.526
 3420TP3      O22078   0.756   4.944   9.994
 3420TP3     H122079   0.730   5.029  10.029
 3420TP3     H222080   0.696   4.882  10.035
 3421TP3      O22081   0.827   5.355   0.372
 3421TP3     H122082   0.862   5.442   0.392
 3421TP3     H222083   0.879   5.295   0.425
 3422TP3      O22084   0.630   5.411   9.974
 3422TP3     H122085   0.539   5.418  10.001
 3422TP3     H222086   0.675   5.483  10.019
 3423TP3      O22087   1.141   4.990   0.340
 3423TP3     H122088   1.101   4.969   0.424
 3423TP3     H222089   1.223   4.941   0.338
 3424TP3      O22090   1.359   5.075   9.580
 3424TP3     H122091   1.416   5.025   9.639
 3424TP3     H222092   1.272   5.067   9.619
 3425TP3      O22093   1.446   5.368   0.555
 3425TP3     H122094   1.376   5.304   0.567
 3425TP3     H222095   1.406   5.436   0.502
 3426TP3      O22096   1.870   5.468   9.574
 3426TP3     H122097   1.940   5.533   9.575
 3426TP3     H222098   1.791   5.518   9.595
 3427TP3      O22099   0.221   4.103   0.527
 3427TP3     H122100   0.161   4.155   0.581
 3427TP3     H222101   0.253   4.035   0.587
 3428TP3      O22102   1.530   4.896   9.724
 3428TP3     H122103   1.486   4.849   9.795
 3428TP3     H222104   1.621   4.900   9.751
 3429TP3      O22105   0.244   5.314   0.368
 3429TP3     H122106   0.268   5.230   0.409
 3429TP3     H222107   0.194   5.359   0.436
 3430TP3      O22108   0.663   5.146   9.654
 3430TP3     H122109   0.736   5.101   9.697
 3430TP3     H222110   0.680   5.239   9.669
 3431TP3      O22111   0.322   4.865   9.730
 3431TP3     H122112   0.248   4.908   9.774
 3431TP3     H222113   0.362   4.935   9.677
 3432TP3      O22114   1.186   4.070   0.469
 3432TP3     H122115   1.247   4.144   0.473
 3432TP3     H222116   1.143   4.069   0.554
 3433TP3      O22117   1.206   4.049   9.912
 3433TP3     H122118   1.229   4.078   9.824
 3433TP3     H222119   1.257   4.106   9.970
 3434TP3      O22120   0.969   5.291   9.751
 3434TP3     H122121   0.881   5.330   9.748
 3434TP3     H222122   1.014   5.328   9.675
 3435TP3      O22123   0.902   4.280   9.922
 3435TP3     H122124   0.979   4.337   9.929
 3435TP3     H222125   0.894   4.242  10.010
 3436TP3      O22126   1.005   4.367   0.509
 3436TP3     H122127   1.006   4.418   0.590
 3436TP3     H222128   1.022   4.277   0.536
 3437TP3      O22129   0.970   3.945   9.981
 3437TP3     H122130   0.938   4.014  10.039
 3437TP3     H222131   1.057   3.974   9.954
 3438TP3      O22132   0.720   5.404   9.721
 3438TP3     H122133   0.699   5.490   9.683
 3438TP3     H222134   0.684   5.408   9.810
 3439TP3      O22135   0.573   4.098   9.722
 3439TP3     H122136   0.579   4.183   9.766
 3439TP3     H222137   0.663   4.064   9.725
 3440TP3      O22138   1.581   4.166   0.614
 3440TP3     H122139   1.492   4.187   0.584
 3440TP3     H222140   1.633   4.165   0.534
 3441TP3      O22141   1.458   4.522  10.303
 3441TP3     H122142   1.376   4.477  10.280
 3441TP3     H222143   1.504   4.460  10.359
 3442TP3      O22144   0.402   5.079   9.569
 3442TP3     H122145   0.470   5.132   9.610
 3442TP3     H222146   0.451   5.016   9.515
 3443TP3      O22147   0.283   4.419   9.517
 3443TP3     H122148   0.260   4.509   9.539
 3443TP3     H222149   0.210   4.388   9.464
 3444TP3      O22150   1.574   5.416   0.171
 3444TP3     H122151   1.549   5.473   0.099
 3444TP3     H222152   1.667   5.435   0.186
 3445TP3      O22153   0.332   3.867   0.026
 3445TP3     H122154   0.332   3.853  -0.069
 3445TP3     H222155   0.296   3.785   0.062
 3446TP3      O22156   0.178   5.252   9.982
 3446TP3     H122157   0.119   5.301  10.040
 3446TP3     H222158   0.173   5.299   9.899
 3447TP3      O22159   0.135   5.505   0.814
 3447TP3     H122160   0.190   5.500   0.892
 3447TP3     H222161   0.160   5.429   0.762
 3448TP3      O22162   0.612   5.345   0.963
 3448TP3     H122163   0.689   5.288   0.969
 3448TP3     H222164   0.574   5.324   0.878
 3449TP3      O22165   1.080   5.393   9.535
 3449TP3     H122166   1.053   5.372   9.445
 3449TP3     H222167   1.151   5.456   9.524
 3450TP3      O22168   1.247   5.221   0.855
 3450TP3     H122169   1.229   5.143   0.909
 3450TP3     H222170   1.324   5.261   0.896
 3451TP3      O22171   1.418   5.307   9.444
 3451TP3     H122172   1.387   5.232   9.495
 3451TP3     H222173   1.504   5.281   9.413
 3452TP3      O22174   0.108   4.888   0.801
 3452TP3     H122175   0.198   4.859   0.789
 3452TP3     H222176   0.116   4.970   0.851
 3453TP3      O22177   0.531   4.869   9.459
 3453TP3     H122178   0.584   4.838   9.532
 3453TP3     H222179   0.584   4.849   9.381
 3454TP3      O22180   0.818   4.918   0.826
 3454TP3     H122181   0.785   4.961   0.748
 3454TP3     H222182   0.828   4.826   0.801
 3455TP3      O22183   1.353   4.932   0.594
 3455TP3     H122184   1.445   4.954   0.577
 3455TP3     H222185   1.308   5.017   0.589
 3456TP3      O22186   0.174   4.587   0.825
 3456TP3     H122187   0.222   4.506   0.838
 3456TP3     H222188   0.186   4.636   0.906
 3457TP3      O22189   0.692   4.745   9.644
 3457TP3     H122190   0.634   4.710   9.712
 3457TP3     H222191   0.727   4.667   9.601
 3458TP3      O22192   0.650   4.525   0.582
 3458TP3     H122193   0.573   4.582   0.581
 3458TP3     H222194   0.710   4.564   0.519
 3459TP3      O22195   0.810   4.554   9.484
 3459TP3     H122196   0.810   4.532   9.391
 3459TP3     H222197   0.899   4.538   9.513
 3460TP3      O22198   1.133   4.783   0.889
 3460TP3     H122199   1.210   4.746   0.847
 3460TP3     H222200   1.102   4.714   0.948
 3461TP3      O22201   1.736   4.861   9.414
 3461TP3     H122202   1.687   4.861   9.332
 3461TP3     H222203   1.731   4.951   9.446
 3462TP3      O22204   0.672   4.266   0.663
 3462TP3     H122205   0.681   4.210   0.586
 3462TP3     H222206   0.665   4.355   0.627
 3463TP3      O22207   0.704   4.106   0.427
 3463TP3     H122208   0.753   4.161   0.365
 3463TP3     H222209   0.614   4.106   0.392
 3464TP3      O22210   0.831   4.646   0.423
 3464TP3     H122211   0.918   4.680   0.446
 3464TP3     H222212   0.787   4.719   0.380
 3465TP3      O22213   1.271   4.419   0.922
 3465TP3     H122214   1.303   4.330   0.935
 3465TP3     H222215   1.346   4.475   0.943
 3466TP3      O22216   1.408   4.720   0.748
 3466TP3     H122217   1.378   4.798   0.701
 3466TP3     H222218   1.503   4.724   0.743
 3467TP3      O22219   0.506   4.324   0.882
 3467TP3     H122220   0.422   4.278   0.871
 3467TP3     H222221   0.551   4.311   0.799
 3468TP3      O22222   0.769   3.840   0.481
 3468TP3     H122223   0.749   3.932   0.464
 3468TP3     H222224   0.695   3.793   0.443
 3469TP3      O22225   0.892   4.243   0.830
 3469TP3     H122226   0.860   4.215   0.917
 3469TP3     H222227   0.813   4.245   0.776
 3470TP3      O22228   1.137   4.161   0.729
 3470TP3     H122229   1.054   4.180   0.773
 3470TP3     H222230   1.193   4.127   0.798
 3471TP3      O22231   1.318   4.073   0.928
 3471TP3     H122232   1.323   3.978   0.919
 3471TP3     H222233   1.295   4.088   1.020
 3472TP3      O22234   0.291   4.141   0.860
 3472TP3     H122235   0.297   4.057   0.814
 3472TP3     H222236   0.303   4.119   0.952
 3473TP3      O22237   0.759   3.770   0.748
 3473TP3     H122238   0.820   3.696   0.746
 3473TP3     H222239   0.754   3.799   0.657
 3474TP3      O22240   0.829   3.926   0.964
 3474TP3     H122241   0.806   3.876   0.885
 3474TP3     H222242   0.767   3.999   0.965
 3475TP3      O22243   0.139   5.052   9.475
 3475TP3     H122244   0.218   5.070   9.525
 3475TP3     H222245   0.167   5.062   9.383
 3476TP3      O22246   0.081   5.385  10.222
 3476TP3     H122247   0.060   5.302  10.267
 3476TP3     H222248   0.130   5.435  10.287
 3477TP3      O22249   1.841   5.453   0.212
 3477TP3     H122250   1.850   5.460   0.307
 3477TP3     H222251   1.905   5.515   0.177
 3478TP3      O22252   1.828   5.380   0.488
 3478TP3     H122253   1.764   5.317   0.455
 3478TP3     H222254   1.855   5.345   0.573
 3479TP3      O22255   1.640   5.024   0.962
 3479TP3     H122256   1.556   5.036   1.007
 3479TP3     H222257   1.700   5.082   1.007
 3480TP3      O22258   1.789   4.860   9.821
 3480TP3     H122259   1.861   4.923   9.823
 3480TP3     H222260   1.806   4.802   9.895
 3481TP3      O22261   1.843   4.669  10.013
 3481TP3     H122262   1.758   4.639  10.045
 3481TP3     H222263   1.895   4.684  10.093
 3482TP3      O22264   1.824   4.949   0.223
 3482TP3     H122265   1.873   4.893   0.163
 3482TP3     H222266   1.848   5.038   0.197
 3483TP3      O22267   1.622   5.214   0.415
 3483TP3     H122268   1.561   5.274   0.457
 3483TP3     H222269   1.588   5.204   0.326
 3484TP3      O22270   1.821   4.684   9.618
 3484TP3     H122271   1.785   4.732   9.543
 3484TP3     H222272   1.809   4.743   9.692
 3485TP3      O22273   1.619   4.334   9.508
 3485TP3     H122274   1.680   4.362   9.440
 3485TP3     H222275   1.616   4.239   9.500
 3486TP3      O22276   1.592   4.557  10.064
 3486TP3     H122277   1.588   4.468  10.031
 3486TP3     H222278   1.549   4.553  10.150
 3487TP3      O22279   0.066   4.718   0.163
 3487TP3     H122280   0.081   4.727   0.069
 3487TP3     H222281   0.153   4.708   0.201
 3488TP3      O22282   1.682   4.725   0.730
 3488TP3     H122283   1.743   4.654   0.712
 3488TP3     H222284   1.728   4.804   0.699
 3489TP3      O22285   1.828   4.494   0.708
 3489TP3     H122286   1.741   4.462   0.732
 3489TP3     H222287   1.887   4.422   0.731
 3490TP3      O22288   1.589   4.312   9.905
 3490TP3     H122289   1.612   4.219   9.907
 3490TP3     H222290   1.657   4.353   9.852
 3491TP3      O22291   1.608   4.344   0.149
 3491TP3     H122292   1.699   4.358   0.123
 3491TP3     H222293   1.605   4.366   0.242
 3492TP3      O22294   1.629   4.432   0.412
 3492TP3     H122295   1.551   4.467   0.455
 3492TP3     H222296   1.685   4.508   0.397
 3493TP3      O22297   0.057   4.222   0.735
 3493TP3     H122298   0.136   4.217   0.790
 3493TP3     H222299  -0.012   4.184   0.790
 3494TP3      O22300   1.864   3.854   0.938
 3494TP3     H122301   1.936   3.801   0.904
 3494TP3     H222302   1.855   3.925   0.875
 3495TP3      O22303   1.646   4.041   9.915
 3495TP3     H122304   1.666   3.994   9.996
 3495TP3     H222305   1.579   3.988   9.873
 3496TP3      O22306   0.208   4.108   0.028
 3496TP3     H122307   0.246   4.020   0.033
 3496TP3     H222308   0.277   4.166   0.060
 3497TP3      O22309   0.036   4.443   0.139
 3497TP3     H122310   0.108   4.427   0.079
 3497TP3     H222311   0.037   4.538   0.152
 3498TP3      O22312   1.801   4.038   0.751
 3498TP3     H122313   1.723   4.080   0.787
 3498TP3     H222314   1.769   3.988   0.676
 3499TP3      O22315   1.801   4.034   9.546
 3499TP3     H122316   1.829   4.032   9.454
 3499TP3     H222317   1.863   4.094   9.588
 3500TP3      O22318   0.111   4.035   9.873
 3500TP3     H122319   0.016   4.026   9.879
 3500TP3     H222320   0.125   4.101   9.805
 3501TP3      O22321   0.084   3.906   0.378
 3501TP3     H122322   0.123   3.988   0.410
 3501TP3     H222323   0.045   3.929   0.294
 3502TP3      O22324   0.233   5.277   0.698
 3502TP3     H122325   0.240   5.204   0.637
 3502TP3     H222326   0.233   5.236   0.785
 3503TP3      O22327   0.555   5.320   0.430
 3503TP3     H122328   0.495   5.368   0.371
 3503TP3     H222329   0.642   5.345   0.399
 3504TP3      O22330   1.036   5.471   0.757
 3504TP3     H122331   1.013   5.433   0.841
 3504TP3     H222332   1.122   5.512   0.772
 3505TP3      O22333   1.704   3.852   0.560
 3505TP3     H122334   1.640   3.885   0.496
 3505TP3     H222335   1.720   3.761   0.532
 3506TP3      O22336   1.242   5.469   0.370
 3506TP3     H122337   1.172   5.517   0.415
 3506TP3     H222338   1.275   5.530   0.304
 3507TP3      O22339   0.245   5.468   0.118
 3507TP3     H122340   0.221   5.437   0.205
 3507TP3     H222341   0.317   5.412   0.091
 3508TP3      O22342   0.457   5.331   0.019
 3508TP3     H122343   0.444   5.240   0.044
 3508TP3     H222344   0.546   5.352   0.047
 3509TP3      O22345   0.720   5.342   0.120
 3509TP3     H122346   0.725   5.250   0.093
 3509TP3     H222347   0.763   5.345   0.205
 3510TP3      O22348   1.023   3.958  10.306
 3510TP3     H122349   0.966   3.884  10.329
 3510TP3     H222350   1.102   3.917  10.270
 3511TP3      O22351   1.538   3.835  10.329
 3511TP3     H122352   1.601   3.863  10.262
 3511TP3     H222353   1.453   3.846  10.287
 3512TP3      O22354   1.724   3.903  10.145
 3512TP3     H122355   1.786   3.836  10.114
 3512TP3     H222356   1.778   3.980  10.162
 3513TP3      O22357   0.326   3.826  10.072
 3513TP3     H122358   0.235   3.814  10.046
 3513TP3     H222359   0.366   3.740  10.059
 3514TP3      O22360   0.228   3.820   9.711
 3514TP3     H122361   0.275   3.880   9.652
 3514TP3     H222362   0.181   3.878   9.771
 3515TP3      O22363   0.764   3.789  10.092
 3515TP3     H122364   0.832   3.841  10.050
 3515TP3     H222365   0.782   3.797  10.186
 3516TP3      O22366   1.272   3.847  10.224
 3516TP3     H122367   1.286   3.838  10.130
 3516TP3     H222368   1.252   3.758  10.254
 3517TP3      O22369   1.448   3.880   9.812
 3517TP3     H122370   1.377   3.935   9.781
 3517TP3     H222371   1.407   3.796   9.831
 3518TP3      O22372   0.170   5.377   9.739
 3518TP3     H122373   0.087   5.364   9.694
 3518TP3     H222374   0.199   5.464   9.712
 3519TP3      O22375   0.385   3.975   9.552
 3519TP3     H122376   0.438   3.947   9.478
 3519TP3     H222377   0.447   4.021   9.610
 3520TP3      O22378   0.850   4.073   9.756
 3520TP3     H122379   0.883   4.001   9.809
 3520TP3     H222380   0.867   4.151   9.808
 3521TP3      O22381   1.753   5.500   9.902
 3521TP3     H122382   1.729   5.409   9.883
 3521TP3     H222383   1.733   5.548   9.821
 3522TP3      O22384   0.291   3.890   0.707
 3522TP3     H122385   0.232   3.823   0.741
 3522TP3     H222386   0.373   3.877   0.753
 3523TP3      O22387   0.497   3.827   0.876
 3523TP3     H122388   0.583   3.797   0.848
 3523TP3     H222389   0.462   3.753   0.927
 3524TP3      O22390   0.426   5.495   9.506
 3524TP3     H122391   0.375   5.517   9.584
 3524TP3     H222392   0.364   5.449   9.449
 3525TP3      O22393   1.357   3.798   0.904
 3525TP3     H122394   1.344   3.750   0.986
 3525TP3     H222395   1.449   3.784   0.882
 3526TP3      O22396   1.642   5.395   0.759
 3526TP3     H122397   1.575   5.380   0.692
 3526TP3     H222398   1.663   5.488   0.750
 3527TP3      O22399   3.094   4.776  10.063
 3527TP3     H122400   3.090   4.872  10.061
 3527TP3     H222401   3.026   4.748  10.002
 3528TP3      O22402   2.985   4.686   0.132
 3528TP3     H122403   3.004   4.644   0.216
 3528TP3     H222404   2.933   4.621   0.085
 3529TP3      O22405   2.189   4.640   0.288
 3529TP3     H122406   2.193   4.561   0.343
 3529TP3     H222407   2.255   4.698   0.325
 3530TP3      O22408   3.364   4.987  -0.037
 3530TP3     H122409   3.324   4.913   0.009
 3530TP3     H222410   3.380   5.051   0.032
 3531TP3      O22411   2.326   5.059   0.075
 3531TP3     H122412   2.295   4.972   0.053
 3531TP3     H222413   2.421   5.049   0.083
 3532TP3      O22414   1.971   4.434   9.928
 3532TP3     H122415   1.944   4.519   9.962
 3532TP3     H222416   1.911   4.417   9.855
 3533TP3      O22417   2.036   4.677  10.218
 3533TP3     H122418   2.066   4.587  10.234
 3533TP3     H222419   2.114   4.731  10.230
 3534TP3      O22420   3.032   5.456  10.225
 3534TP3     H122421   3.111   5.403  10.219
 3534TP3     H222422   2.995   5.436  10.311
 3535TP3      O22423   2.823   4.920   0.166
 3535TP3     H122424   2.871   4.849   0.124
 3535TP3     H222425   2.886   4.959   0.227
 3536TP3      O22426   3.700   4.084   0.254
 3536TP3     H122427   3.719   4.150   0.321
 3536TP3     H222428   3.747   4.114   0.176
 3537TP3      O22429   3.076   4.346   0.148
 3537TP3     H122430   3.116   4.262   0.169
 3537TP3     H222431   3.104   4.364   0.059
 3538TP3      O22432   2.478   4.172  10.215
 3538TP3     H122433   2.479   4.256  10.168
 3538TP3     H222434   2.424   4.115  10.160
 3539TP3      O22435   3.259   4.200  10.057
 3539TP3     H122436   3.303   4.171  10.137
 3539TP3     H222437   3.329   4.237  10.004
 3540TP3      O22438   2.116   4.421  10.289
 3540TP3     H122439   2.183   4.384  10.346
 3540TP3     H222440   2.137   4.386  10.202
 3541TP3      O22441   2.605   4.558  10.251
 3541TP3     H122442   2.688   4.517  10.275
 3541TP3     H222443   2.563   4.495  10.192
 3542TP3      O22444   3.745   4.251   0.471
 3542TP3     H122445   3.671   4.308   0.454
 3542TP3     H222446   3.765   4.265   0.564
 3543TP3      O22447   2.341   4.083   0.312
 3543TP3     H122448   2.313   4.146   0.245
 3543TP3     H222449   2.270   4.085   0.377
 3544TP3      O22450   3.082   5.041   9.977
 3544TP3     H122451   3.058   5.038   9.884
 3544TP3     H222452   3.039   5.119  10.010
 3545TP3      O22453   2.602   4.841   0.312
 3545TP3     H122454   2.547   4.912   0.347
 3545TP3     H222455   2.670   4.886   0.262
 3546TP3      O22456   3.362   4.155  -0.013
 3546TP3     H122457   3.303   4.124   0.055
 3546TP3     H222458   3.424   4.212   0.033
 3547TP3      O22459   2.315   4.266   0.106
 3547TP3     H122460   2.371   4.322   0.159
 3547TP3     H222461   2.373   4.230   0.039
 3548TP3      O22462   2.445   5.041   0.419
 3548TP3     H122463   2.456   5.134   0.399
 3548TP3     H222464   2.353   5.033   0.446
 3549TP3      O22465   2.009   5.021   9.807
 3549TP3     H122466   2.012   5.070   9.725
 3549TP3     H222467   2.030   5.086   9.874
 3550TP3      O22468   3.390   5.167   0.173
 3550TP3     H122469   3.296   5.169   0.195
 3550TP3     H222470   3.413   5.258   0.161
 3551TP3      O22471   3.449   3.977   0.334
 3551TP3     H122472   3.380   4.023   0.287
 3551TP3     H222473   3.530   4.007   0.293
 3552TP3      O22474   2.694   3.775   0.065
 3552TP3     H122475   2.668   3.683   0.067
 3552TP3     H222476   2.615   3.822   0.093
 3553TP3      O22477   3.275   5.362  10.106
 3553TP3     H122478   3.312   5.276  10.086
 3553TP3     H222479   3.342   5.404  10.160
 3554TP3      O22480   3.346   5.104  10.031
 3554TP3     H122481   3.257   5.078  10.007
 3554TP3     H222482   3.364   5.058  10.113
 3555TP3      O22483   3.504   4.971   0.528
 3555TP3     H122484   3.494   4.915   0.451
 3555TP3     H222485   3.509   5.060   0.493
 3556TP3      O22486   2.948   4.692   9.842
 3556TP3     H122487   2.883   4.758   9.820
 3556TP3     H222488   3.008   4.691   9.768
 3557TP3      O22489   2.948   4.520   9.545
 3557TP3     H122490   3.024   4.562   9.585
 3557TP3     H222491   2.982   4.437   9.511
 3558TP3      O22492   3.672   4.648   0.357
 3558TP3     H122493   3.598   4.708   0.348
 3558TP3     H222494   3.731   4.672   0.286
 3559TP3      O22495   3.307   4.710   9.908
 3559TP3     H122496   3.240   4.737   9.971
 3559TP3     H222497   3.374   4.668   9.961
 3560TP3      O22498   3.277   4.514   0.550
 3560TP3     H122499   3.275   4.584   0.615
 3560TP3     H222500   3.216   4.543   0.482
 3561TP3      O22501   2.460   4.753  10.107
 3561TP3     H122502   2.437   4.720  10.020
 3561TP3     H222503   2.517   4.686  10.144
 3562TP3      O22504   2.606   5.064   0.054
 3562TP3     H122505   2.617   5.090  -0.038
 3562TP3     H222506   2.689   5.024   0.077
 3563TP3      O22507   2.474   4.651   0.159
 3563TP3     H122508   2.526   4.631   0.081
 3563TP3     H222509   2.522   4.722   0.202
 3564TP3      O22510   3.131   5.179   0.240
 3564TP3     H122511   3.064   5.245   0.220
 3564TP3     H222512   3.083   5.106   0.279
 3565TP3      O22513   2.595   5.086   0.647
 3565TP3     H122514   2.533   5.147   0.688
 3565TP3     H222515   2.552   5.059   0.566
 3566TP3      O22516   3.176   4.642   9.678
 3566TP3     H122517   3.221   4.672   9.757
 3566TP3     H222518   3.216   4.693   9.607
 3567TP3      O22519   2.260   4.682   0.593
 3567TP3     H122520   2.270   4.760   0.648
 3567TP3     H222521   2.166   4.677   0.575
 3568TP3      O22522   2.956   5.277  10.027
 3568TP3     H122523   2.964   5.343  10.095
 3568TP3     H222524   2.877   5.302   9.979
 3569TP3      O22525   2.397   5.261   0.719
 3569TP3     H122526   2.396   5.295   0.629
 3569TP3     H222527   2.306   5.238   0.737
 3570TP3      O22528   3.554   3.815   9.668
 3570TP3     H122529   3.467   3.836   9.702
 3570TP3     H222530   3.586   3.897   9.630
 3571TP3      O22531   2.382   4.676   9.843
 3571TP3     H122532   2.327   4.747   9.810
 3571TP3     H222533   2.331   4.597   9.827
 3572TP3      O22534   3.689   5.204   9.556
 3572TP3     H122535   3.705   5.299   9.561
 3572TP3     H222536   3.776   5.166   9.547
 3573TP3      O22537   1.968   4.918   0.460
 3573TP3     H122538   1.917   4.932   0.380
 3573TP3     H222539   1.982   4.824   0.463
 3574TP3      O22540   1.922   5.194   0.164
 3574TP3     H122541   2.013   5.209   0.188
 3574TP3     H222542   1.880   5.279   0.175
 3575TP3      O22543   3.766   5.260   0.738
 3575TP3     H122544   3.747   5.166   0.733
 3575TP3     H222545   3.682   5.300   0.759
 3576TP3      O22546   2.843   5.196   0.612
 3576TP3     H122547   2.854   5.278   0.661
 3576TP3     H222548   2.755   5.166   0.636
 3577TP3      O22549   2.271   5.393  10.065
 3577TP3     H122550   2.286   5.371  10.156
 3577TP3     H222551   2.209   5.326  10.034
 3578TP3      O22552   3.204   5.519   9.589
 3578TP3     H122553   3.252   5.449   9.544
 3578TP3     H222554   3.199   5.489   9.679
 3579TP3      O22555   3.170   5.453   9.867
 3579TP3     H122556   3.083   5.412   9.866
 3579TP3     H222557   3.210   5.421   9.948
 3580TP3      O22558   3.466   4.393   0.746
 3580TP3     H122559   3.398   4.431   0.692
 3580TP3     H222560   3.469   4.301   0.721
 3581TP3      O22561   2.188   5.072   0.516
 3581TP3     H122562   2.198   5.061   0.611
 3581TP3     H222563   2.110   5.021   0.495
 3582TP3      O22564   2.449   3.887   0.147
 3582TP3     H122565   2.372   3.876   0.090
 3582TP3     H222566   2.424   3.957   0.207
 3583TP3      O22567   2.928   3.870   0.490
 3583TP3     H122568   2.978   3.824   0.558
 3583TP3     H222569   2.837   3.852   0.512
 3584TP3      O22570   3.206   4.246   0.542
 3584TP3     H122571   3.153   4.228   0.620
 3584TP3     H222572   3.225   4.339   0.547
 3585TP3      O22573   3.308   4.791   9.490
 3585TP3     H122574   3.298   4.869   9.435
 3585TP3     H222575   3.361   4.821   9.564
 3586TP3      O22576   2.930   4.157   9.565
 3586TP3     H122577   2.868   4.136   9.635
 3586TP3     H222578   2.891   4.118   9.486
 3587TP3      O22579   2.457   4.423   0.306
 3587TP3     H122580   2.375   4.423   0.357
 3587TP3     H222581   2.454   4.505   0.256
 3588TP3      O22582   2.457   4.404  10.077
 3588TP3     H122583   2.361   4.397  10.072
 3588TP3     H222584   2.486   4.388   9.987
 3589TP3      O22585   3.005   4.445   9.949
 3589TP3     H122586   2.979   4.531   9.916
 3589TP3     H222587   3.075   4.417   9.890
 3590TP3      O22588   2.920   4.462   0.770
 3590TP3     H122589   2.872   4.390   0.813
 3590TP3     H222590   3.007   4.460   0.811
 3591TP3      O22591   3.124   4.393  10.198
 3591TP3     H122592   3.085   4.444  10.128
 3591TP3     H222593   3.162   4.317  10.154
 3592TP3      O22594   2.228   4.403   0.457
 3592TP3     H122595   2.192   4.458   0.527
 3592TP3     H222596   2.189   4.317   0.471
 3593TP3      O22597   2.535   4.199   9.458
 3593TP3     H122598   2.499   4.193   9.546
 3593TP3     H222599   2.525   4.291   9.434
 3594TP3      O22600   1.896   4.105  10.168
 3594TP3     H122601   1.957   4.118  10.240
 3594TP3     H222602   1.949   4.114  10.089
 3595TP3      O22603   1.972   4.225   9.660
 3595TP3     H122604   2.048   4.261   9.615
 3595TP3     H222605   1.915   4.300   9.676
 3596TP3      O22606   3.044   4.521   0.359
 3596TP3     H122607   3.066   4.458   0.291
 3596TP3     H222608   2.981   4.475   0.415
 3597TP3      O22609   2.759   4.136  10.156
 3597TP3     H122610   2.669   4.138  10.189
 3597TP3     H222611   2.809   4.091  10.224
 3598TP3      O22612   2.194   4.324  10.047
 3598TP3     H122613   2.120   4.354   9.994
 3598TP3     H222614   2.211   4.235  10.016
 3599TP3      O22615   2.527   4.340   9.823
 3599TP3     H122616   2.622   4.341   9.831
 3599TP3     H222617   2.509   4.387   9.742
 3600TP3      O22618   3.174   4.079   0.178
 3600TP3     H122619   3.117   4.082   0.254
 3600TP3     H222620   3.133   4.016   0.119
 3601TP3      O22621   2.445   4.446   9.587
 3601TP3     H122622   2.356   4.440   9.550
 3601TP3     H222623   2.495   4.492   9.520
 3602TP3      O22624   2.270   4.892   0.766
 3602TP3     H122625   2.336   4.895   0.835
 3602TP3     H222626   2.189   4.917   0.809
 3603TP3      O22627   2.850   4.439   0.018
 3603TP3     H122628   2.888   4.425  -0.069
 3603TP3     H222629   2.915   4.405   0.079
 3604TP3      O22630   2.308   4.055  10.019
 3604TP3     H122631   2.256   3.978  10.041
 3604TP3     H222632   2.348   4.034   9.935
 3605TP3      O22633   2.735   4.266   0.280
 3605TP3     H122634   2.730   4.299   0.190
 3605TP3     H222635   2.824   4.233   0.290
 3606TP3      O22636   2.769   4.890   9.770
 3606TP3     H122637   2.698   4.846   9.724
 3606TP3     H222638   2.732   4.915   9.854
 3607TP3      O22639   3.472   4.826   0.298
 3607TP3     H122640   3.533   4.883   0.253
 3607TP3     H222641   3.400   4.814   0.237
 3608TP3      O22642   3.181   4.142   9.664
 3608TP3     H122643   3.100   4.147   9.612
 3608TP3     H222644   3.198   4.232   9.691
 3609TP3      O22645   2.907   4.919   0.598
 3609TP3     H122646   2.935   4.892   0.685
 3609TP3     H222647   2.884   5.012   0.608
 3610TP3      O22648   3.222   4.388   9.779
 3610TP3     H122649   3.310   4.377   9.814
 3610TP3     H222650   3.222   4.474   9.738
 3611TP3      O22651   2.278   4.791  10.312
 3611TP3     H122652   2.339   4.790  10.238
 3611TP3     H222653   2.321   4.737  10.379
 3612TP3      O22654   2.991   5.048   9.717
 3612TP3     H122655   2.950   5.134   9.721
 3612TP3     H222656   2.917   4.986   9.723
 3613TP3      O22657   1.991   4.640   0.541
 3613TP3     H122658   1.956   4.599   0.619
 3613TP3     H222659   1.922   4.631   0.475
 3614TP3      O22660   2.711   4.650   0.781
 3614TP3     H122661   2.648   4.620   0.715
 3614TP3     H222662   2.790   4.598   0.765
 3615TP3      O22663   3.126   5.174   0.605
 3615TP3     H122664   3.036   5.188   0.576
 3615TP3     H222665   3.125   5.194   0.698
 3616TP3      O22666   3.671   4.429   9.723
 3616TP3     H122667   3.609   4.396   9.658
 3616TP3     H222668   3.688   4.519   9.696
 3617TP3      O22669   3.725   4.989   0.687
 3617TP3     H122670   3.635   4.994   0.655
 3617TP3     H222671   3.777   4.971   0.609
 3618TP3      O22672   3.565   5.253   9.819
 3618TP3     H122673   3.499   5.195   9.857
 3618TP3     H222674   3.581   5.217   9.732
 3619TP3      O22675   3.268   4.766   0.113
 3619TP3     H122676   3.173   4.760   0.110
 3619TP3     H222677   3.298   4.687   0.067
 3620TP3      O22678   2.543   5.171  10.109
 3620TP3     H122679   2.557   5.251  10.058
 3620TP3     H222680   2.453   5.177  10.139
 3621TP3      O22681   2.098   4.639   9.592
 3621TP3     H122682   2.140   4.716   9.628
 3621TP3     H222683   2.004   4.658   9.597
 3622TP3      O22684   2.637   4.939   9.999
 3622TP3     H122685   2.614   5.026  10.032
 3622TP3     H222686   2.576   4.880  10.042
 3623TP3      O22687   2.706   5.332   0.400
 3623TP3     H122688   2.773   5.356   0.336
 3623TP3     H222689   2.754   5.283   0.467
 3624TP3      O22690   2.523   5.414   9.972
 3624TP3     H122691   2.431   5.417   9.997
 3624TP3     H222692   2.565   5.484  10.023
 3625TP3      O22693   3.027   4.946   0.355
 3625TP3     H122694   2.984   4.935   0.440
 3625TP3     H222695   3.115   4.912   0.369
 3626TP3      O22696   3.241   5.072   9.584
 3626TP3     H122697   3.298   5.024   9.645
 3626TP3     H222698   3.154   5.064   9.622
 3627TP3      O22699   3.312   5.368   0.550
 3627TP3     H122700   3.252   5.296   0.567
 3627TP3     H222701   3.261   5.431   0.499
 3628TP3      O22702   3.755   5.465   9.575
 3628TP3     H122703   3.825   5.531   9.571
 3628TP3     H222704   3.677   5.515   9.597
 3629TP3      O22705   2.148   4.130   0.507
 3629TP3     H122706   2.056   4.120   0.486
 3629TP3     H222707   2.165   4.065   0.575
 3630TP3      O22708   3.415   4.890   9.725
 3630TP3     H122709   3.372   4.843   9.797
 3630TP3     H222710   3.507   4.897   9.753
 3631TP3      O22711   2.127   5.311   0.354
 3631TP3     H122712   2.160   5.238   0.405
 3631TP3     H222713   2.075   5.362   0.417
 3632TP3      O22714   2.564   5.150   9.667
 3632TP3     H122715   2.645   5.113   9.704
 3632TP3     H222716   2.575   5.244   9.676
 3633TP3      O22717   2.214   4.859   9.724
 3633TP3     H122718   2.140   4.900   9.768
 3633TP3     H222719   2.258   4.930   9.678
 3634TP3      O22720   3.008   4.117   0.397
 3634TP3     H122721   3.080   4.147   0.452
 3634TP3     H222722   2.981   4.034   0.436
 3635TP3      O22723   3.102   4.039   9.899
 3635TP3     H122724   3.122   4.074   9.812
 3635TP3     H222725   3.150   4.096   9.959
 3636TP3      O22726   2.844   5.282   9.741
 3636TP3     H122727   2.761   5.329   9.742
 3636TP3     H222728   2.894   5.321   9.670
 3637TP3      O22729   2.786   4.281   9.922
 3637TP3     H122730   2.862   4.338   9.928
 3637TP3     H222731   2.778   4.241  10.008
 3638TP3      O22732   2.874   4.364   0.523
 3638TP3     H122733   2.897   4.398   0.610
 3638TP3     H222734   2.913   4.277   0.520
 3639TP3      O22735   2.861   3.943   9.977
 3639TP3     H122736   2.832   4.012  10.036
 3639TP3     H222737   2.948   3.970   9.949
 3640TP3      O22738   2.606   5.414   9.718
 3640TP3     H122739   2.584   5.500   9.682
 3640TP3     H222740   2.573   5.417   9.808
 3641TP3      O22741   2.458   4.095   9.715
 3641TP3     H122742   2.459   4.178   9.762
 3641TP3     H222743   2.549   4.063   9.721
 3642TP3      O22744   3.458   4.153   0.593
 3642TP3     H122745   3.366   4.172   0.576
 3642TP3     H222746   3.489   4.111   0.513
 3643TP3      O22747   3.347   4.522  -0.006
 3643TP3     H122748   3.269   4.476  -0.036
 3643TP3     H222749   3.394   4.458   0.047
 3644TP3      O22750   2.313   5.084   9.585
 3644TP3     H122751   2.387   5.127   9.627
 3644TP3     H222752   2.352   5.022   9.524
 3645TP3      O22753   2.162   4.390   9.509
 3645TP3     H122754   2.137   4.478   9.538
 3645TP3     H222755   2.139   4.388   9.416
 3646TP3      O22756   3.464   5.426   0.178
 3646TP3     H122757   3.438   5.478   0.102
 3646TP3     H222758   3.558   5.442   0.187
 3647TP3      O22759   2.197   3.867   0.030
 3647TP3     H122760   2.187   3.855  -0.065
 3647TP3     H222761   2.165   3.785   0.068
 3648TP3      O22762   2.066   5.228   9.980
 3648TP3     H122763   2.022   5.269  10.055
 3648TP3     H222764   2.057   5.291   9.909
 3649TP3      O22765   2.060   5.483   0.782
 3649TP3     H122766   2.113   5.456   0.857
 3649TP3     H222767   2.006   5.407   0.762
 3650TP3      O22768   2.462   5.353   0.970
 3650TP3     H122769   2.549   5.319   0.988
 3650TP3     H222770   2.442   5.321   0.881
 3651TP3      O22771   2.963   5.396   9.536
 3651TP3     H122772   2.939   5.375   9.446
 3651TP3     H222773   3.038   5.454   9.528
 3652TP3      O22774   3.131   5.224   0.869
 3652TP3     H122775   3.114   5.143   0.918
 3652TP3     H222776   3.210   5.260   0.910
 3653TP3      O22777   3.298   5.300   9.443
 3653TP3     H122778   3.268   5.226   9.496
 3653TP3     H222779   3.382   5.272   9.408
 3654TP3      O22780   2.017   4.898   0.883
 3654TP3     H122781   2.021   4.803   0.874
 3654TP3     H222782   1.945   4.924   0.826
 3655TP3      O22783   2.422   4.872   9.460
 3655TP3     H122784   2.475   4.837   9.532
 3655TP3     H222785   2.475   4.856   9.382
 3656TP3      O22786   2.683   4.921   0.846
 3656TP3     H122787   2.661   4.966   0.764
 3656TP3     H222788   2.708   4.833   0.818
 3657TP3      O22789   3.241   4.924   0.590
 3657TP3     H122790   3.332   4.946   0.573
 3657TP3     H222791   3.196   5.009   0.593
 3658TP3      O22792   2.097   4.626   0.866
 3658TP3     H122793   2.187   4.613   0.838
 3658TP3     H222794   2.103   4.634   0.961
 3659TP3      O22795   2.578   4.743   9.645
 3659TP3     H122796   2.520   4.708   9.713
 3659TP3     H222797   2.610   4.665   9.599
 3660TP3      O22798   2.524   4.601   0.569
 3660TP3     H122799   2.431   4.615   0.587
 3660TP3     H222800   2.552   4.681   0.524
 3661TP3      O22801   2.686   4.556   9.472
 3661TP3     H122802   2.693   4.538   9.378
 3661TP3     H222803   2.776   4.545   9.505
 3662TP3      O22804   3.014   4.778   0.880
 3662TP3     H122805   3.093   4.741   0.841
 3662TP3     H222806   2.985   4.712   0.943
 3663TP3      O22807   3.626   4.871   9.411
 3663TP3     H122808   3.576   4.897   9.333
 3663TP3     H222809   3.631   4.951   9.463
 3664TP3      O22810   2.512   4.283   0.605
 3664TP3     H122811   2.547   4.197   0.583
 3664TP3     H222812   2.419   4.278   0.582
 3665TP3      O22813   2.585   4.084   0.426
 3665TP3     H122814   2.637   4.138   0.367
 3665TP3     H222815   2.499   4.080   0.385
 3666TP3      O22816   2.754   4.628   0.392
 3666TP3     H122817   2.842   4.661   0.412
 3666TP3     H222818   2.706   4.704   0.360
 3667TP3      O22819   3.150   4.426   0.924
 3667TP3     H122820   3.152   4.345   0.974
 3667TP3     H222821   3.239   4.461   0.932
 3668TP3      O22822   3.293   4.713   0.749
 3668TP3     H122823   3.264   4.789   0.699
 3668TP3     H222824   3.388   4.716   0.744
 3669TP3      O22825   2.392   4.361   0.878
 3669TP3     H122826   2.313   4.306   0.871
 3669TP3     H222827   2.432   4.355   0.791
 3670TP3      O22828   2.651   3.828   0.492
 3670TP3     H122829   2.628   3.919   0.471
 3670TP3     H222830   2.581   3.777   0.451
 3671TP3      O22831   2.799   4.241   0.872
 3671TP3     H122832   2.830   4.208   0.956
 3671TP3     H222833   2.705   4.222   0.871
 3672TP3      O22834   3.040   4.172   0.737
 3672TP3     H122835   2.958   4.180   0.786
 3672TP3     H222836   3.100   4.128   0.797
 3673TP3      O22837   3.227   4.055   0.910
 3673TP3     H122838   3.218   3.960   0.920
 3673TP3     H222839   3.194   4.091   0.992
 3674TP3      O22840   2.191   4.171   0.865
 3674TP3     H122841   2.191   4.090   0.813
 3674TP3     H222842   2.194   4.141   0.956
 3675TP3      O22843   2.638   3.763   0.757
 3675TP3     H122844   2.700   3.690   0.756
 3675TP3     H222845   2.634   3.791   0.665
 3676TP3      O22846   2.701   3.929   0.965
 3676TP3     H122847   2.684   3.875   0.888
 3676TP3     H222848   2.638   4.001   0.959
 3677TP3      O22849   2.047   5.091   9.524
 3677TP3     H122850   2.138   5.109   9.546
 3677TP3     H222851   2.052   5.033   9.448
 3678TP3      O22852   1.977   5.371  10.197
 3678TP3     H122853   1.886   5.358  10.225
 3678TP3     H222854   2.022   5.400  10.277
 3679TP3      O22855   3.735   5.452   0.220
 3679TP3     H122856   3.735   5.439   0.315
 3679TP3     H222857   3.795   5.525   0.206
 3680TP3      O22858   3.716   5.377   0.485
 3680TP3     H122859   3.648   5.316   0.458
 3680TP3     H222860   3.746   5.343   0.569
 3681TP3      O22861   3.528   5.026   0.964
 3681TP3     H122862   3.446   5.035   1.011
 3681TP3     H222863   3.588   5.085   1.009
 3682TP3      O22864   3.676   4.858   9.820
 3682TP3     H122865   3.747   4.922   9.824
 3682TP3     H222866   3.691   4.801   9.896
 3683TP3      O22867   3.729   4.670  10.017
 3683TP3     H122868   3.644   4.640  10.049
 3683TP3     H222869   3.780   4.686  10.097
 3684TP3      O22870   3.708   4.951   0.229
 3684TP3     H122871   3.759   4.891   0.175
 3684TP3     H222872   3.733   5.038   0.197
 3685TP3      O22873   3.505   5.219   0.421
 3685TP3     H122874   3.437   5.276   0.456
 3685TP3     H222875   3.478   5.201   0.331
 3686TP3      O22876   3.707   4.685   9.616
 3686TP3     H122877   3.669   4.732   9.542
 3686TP3     H222878   3.695   4.743   9.690
 3687TP3      O22879   3.519   4.325   9.522
 3687TP3     H122880   3.586   4.346   9.457
 3687TP3     H222881   3.517   4.229   9.523
 3688TP3      O22882   3.477   4.557  10.068
 3688TP3     H122883   3.474   4.466  10.038
 3688TP3     H222884   3.438   4.555  10.155
 3689TP3      O22885   1.957   4.694   0.160
 3689TP3     H122886   1.974   4.699   0.066
 3689TP3     H222887   2.044   4.684   0.200
 3690TP3      O22888   3.567   4.723   0.727
 3690TP3     H122889   3.628   4.651   0.711
 3690TP3     H222890   3.606   4.798   0.684
 3691TP3      O22891   3.715   4.494   0.707
 3691TP3     H122892   3.628   4.459   0.724
 3691TP3     H222893   3.775   4.422   0.731
 3692TP3      O22894   3.473   4.311   9.903
 3692TP3     H122895   3.498   4.219   9.903
 3692TP3     H222896   3.544   4.355   9.856
 3693TP3      O22897   3.499   4.339   0.140
 3693TP3     H122898   3.592   4.351   0.118
 3693TP3     H222899   3.495   4.357   0.234
 3694TP3      O22900   3.526   4.422   0.406
 3694TP3     H122901   3.449   4.452   0.454
 3694TP3     H222902   3.579   4.500   0.392
 3695TP3      O22903   1.962   4.258   0.735
 3695TP3     H122904   2.044   4.240   0.780
 3695TP3     H222905   1.909   4.179   0.749
 3696TP3      O22906   3.758   3.845   0.931
 3696TP3     H122907   3.821   3.783   0.894
 3696TP3     H222908   3.751   3.914   0.864
 3697TP3      O22909   3.531   4.041   9.912
 3697TP3     H122910   3.553   3.998   9.995
 3697TP3     H222911   3.465   3.985   9.873
 3698TP3      O22912   2.068   4.109   0.070
 3698TP3     H122913   2.109   4.023   0.065
 3698TP3     H222914   2.141   4.170   0.083
 3699TP3      O22915   1.873   4.411   0.119
 3699TP3     H122916   1.947   4.394   0.060
 3699TP3     H222917   1.890   4.499   0.153
 3700TP3      O22918   3.687   4.032   0.747
 3700TP3     H122919   3.613   4.071   0.794
 3700TP3     H222920   3.647   3.990   0.671
 3701TP3      O22921   3.673   4.044   9.549
 3701TP3     H122922   3.711   4.015   9.466
 3701TP3     H222923   3.741   4.100   9.588
 3702TP3      O22924   1.934   4.029   9.853
 3702TP3     H122925   1.839   4.031   9.865
 3702TP3     H222926   1.953   4.101   9.793
 3703TP3      O22927   1.944   3.897   0.406
 3703TP3     H122928   1.874   3.878   0.469
 3703TP3     H222929   1.901   3.951   0.339
 3704TP3      O22930   2.145   5.188   0.804
 3704TP3     H122931   2.054   5.204   0.780
 3704TP3     H222932   2.149   5.209   0.898
 3705TP3      O22933   2.436   5.321   0.447
 3705TP3     H122934   2.391   5.369   0.378
 3705TP3     H222935   2.529   5.336   0.430
 3706TP3      O22936   2.884   5.435   0.741
 3706TP3     H122937   2.910   5.437   0.832
 3706TP3     H222938   2.927   5.510   0.701
 3707TP3      O22939   3.593   3.829   0.558
 3707TP3     H122940   3.525   3.853   0.496
 3707TP3     H222941   3.612   3.737   0.539
 3708TP3      O22942   3.130   5.507   0.379
 3708TP3     H122943   3.062   5.465   0.327
 3708TP3     H222944   3.191   5.543   0.314
 3709TP3      O22945   2.123   5.444   0.111
 3709TP3     H122946   2.121   5.414   0.202
 3709TP3     H222947   2.199   5.399   0.073
 3710TP3      O22948   2.332   5.317   0.001
 3710TP3     H122949   2.316   5.226   0.027
 3710TP3     H222950   2.413   5.342   0.046
 3711TP3      O22951   2.557   5.320   0.148
 3711TP3     H122952   2.583   5.233   0.119
 3711TP3     H222953   2.629   5.349   0.205
 3712TP3      O22954   2.903   3.969   0.002
 3712TP3     H122955   2.848   3.894   0.026
 3712TP3     H222956   2.985   3.929  -0.028
 3713TP3      O22957   3.433   3.807  10.312
 3713TP3     H122958   3.496   3.860  10.263
 3713TP3     H222959   3.350   3.852  10.301
 3714TP3      O22960   3.616   3.910  10.139
 3714TP3     H122961   3.680   3.843  10.114
 3714TP3     H222962   3.670   3.987  10.158
 3715TP3      O22963   2.165   3.822  10.076
 3715TP3     H122964   2.072   3.806  10.056
 3715TP3     H222965   2.207   3.738  10.062
 3716TP3      O22966   2.053   3.828   9.692
 3716TP3     H122967   2.123   3.879   9.651
 3716TP3     H222968   2.010   3.889   9.752
 3717TP3      O22969   2.652   3.791  10.094
 3717TP3     H122970   2.723   3.839  10.053
 3717TP3     H222971   2.672   3.792  10.188
 3718TP3      O22972   3.150   3.863  10.247
 3718TP3     H122973   3.172   3.859  10.153
 3718TP3     H222974   3.133   3.772  10.271
 3719TP3      O22975   3.330   3.872   9.824
 3719TP3     H122976   3.253   3.928   9.821
 3719TP3     H222977   3.296   3.783   9.838
 3720TP3      O22978   2.050   5.398   9.775
 3720TP3     H122979   1.968   5.387   9.727
 3720TP3     H222980   2.080   5.486   9.754
 3721TP3      O22981   2.270   3.944   9.567
 3721TP3     H122982   2.301   3.961   9.479
 3721TP3     H222983   2.328   3.996   9.623
 3722TP3      O22984   2.736   4.073   9.755
 3722TP3     H122985   2.769   4.001   9.809
 3722TP3     H222986   2.751   4.151   9.808
 3723TP3      O22987   3.651   5.499   9.901
 3723TP3     H122988   3.623   5.409   9.885
 3723TP3     H222989   3.626   5.547   9.822
 3724TP3      O22990   2.187   3.942   0.718
 3724TP3     H122991   2.123   3.873   0.731
 3724TP3     H222992   2.267   3.909   0.760
 3725TP3      O22993   2.381   3.833   0.885
 3725TP3     H122994   2.464   3.799   0.853
 3725TP3     H222995   2.340   3.758   0.928
 3726TP3      O22996   2.324   5.501   9.521
 3726TP3     H122997   2.275   5.486   9.601
 3726TP3     H222998   2.269   5.463   9.452
 3727TP3      O22999   3.234   3.777   0.905
 3727TP3     H123000   3.222   3.732   0.989
 3727TP3     H223001   3.327   3.766   0.886
 3728TP3      O23002   3.521   5.390   0.745
 3728TP3     H123003   3.449   5.374   0.684
 3728TP3     H223004   3.530   5.485   0.747
 3729TP3      O23005   4.976   4.778  10.063
 3729TP3     H123006   4.971   4.873  10.058
 3729TP3     H223007   4.910   4.747  10.001
 3730TP3      O23008   4.854   4.689   0.141
 3730TP3     H123009   4.884   4.647   0.221
 3730TP3     H223010   4.806   4.621   0.094
 3731TP3      O23011   4.080   4.630   0.270
 3731TP3     H123012   4.088   4.558   0.332
 3731TP3     H223013   4.170   4.656   0.251
 3732TP3      O23014   5.234   5.004  -0.034
 3732TP3     H123015   5.211   4.924   0.012
 3732TP3     H223016   5.259   5.066   0.035
 3733TP3      O23017   4.221   5.071   0.075
 3733TP3     H123018   4.183   4.986   0.054
 3733TP3     H223019   4.315   5.053   0.085
 3734TP3      O23020   3.862   4.438   9.929
 3734TP3     H123021   3.834   4.522   9.967
 3734TP3     H223022   3.799   4.422   9.860
 3735TP3      O23023   3.924   4.678  10.221
 3735TP3     H123024   3.954   4.589  10.239
 3735TP3     H223025   4.002   4.733  10.232
 3736TP3      O23026   4.956   5.377  10.279
 3736TP3     H123027   5.036   5.351  10.233
 3736TP3     H223028   4.961   5.331  10.363
 3737TP3      O23029   4.714   4.932   0.156
 3737TP3     H123030   4.754   4.850   0.130
 3737TP3     H223031   4.780   4.976   0.209
 3738TP3      O23032   5.014   4.360   0.160
 3738TP3     H123033   5.024   4.265   0.170
 3738TP3     H223034   5.000   4.372   0.066
 3739TP3      O23035   4.366   4.169  10.206
 3739TP3     H123036   4.368   4.255  10.164
 3739TP3     H223037   4.310   4.115  10.149
 3740TP3      O23038   5.115   4.210  10.050
 3740TP3     H123039   5.158   4.179  10.130
 3740TP3     H223040   5.187   4.243   9.995
 3741TP3      O23041   4.004   4.423  10.288
 3741TP3     H123042   4.068   4.381  10.346
 3741TP3     H223043   4.024   4.388  10.201
 3742TP3      O23044   4.480   4.567  10.257
 3742TP3     H123045   4.566   4.532  10.283
 3742TP3     H223046   4.444   4.500  10.199
 3743TP3      O23047   4.227   4.090   0.313
 3743TP3     H123048   4.204   4.149   0.241
 3743TP3     H223049   4.155   4.100   0.376
 3744TP3      O23050   4.965   5.040   9.971
 3744TP3     H123051   4.942   5.039   9.878
 3744TP3     H223052   4.923   5.118  10.005
 3745TP3      O23053   4.486   4.854   0.295
 3745TP3     H123054   4.437   4.924   0.337
 3745TP3     H223055   4.558   4.899   0.250
 3746TP3      O23056   5.219   4.150  -0.028
 3746TP3     H123057   5.166   4.091   0.024
 3746TP3     H223058   5.279   4.190   0.034
 3747TP3      O23059   4.199   4.257   0.094
 3747TP3     H123060   4.254   4.315   0.147
 3747TP3     H223061   4.258   4.222   0.028
 3748TP3      O23062   4.338   5.046   0.423
 3748TP3     H123063   4.340   5.141   0.417
 3748TP3     H223064   4.247   5.025   0.444
 3749TP3      O23065   3.896   5.022   9.808
 3749TP3     H123066   3.896   5.073   9.727
 3749TP3     H223067   3.916   5.086   9.876
 3750TP3      O23068   5.263   5.194   0.171
 3750TP3     H123069   5.169   5.212   0.179
 3750TP3     H223070   5.304   5.281   0.166
 3751TP3      O23071   5.265   4.012   0.257
 3751TP3     H123072   5.175   4.037   0.235
 3751TP3     H223073   5.316   4.091   0.241
 3752TP3      O23074   4.579   3.775   0.064
 3752TP3     H123075   4.551   3.683   0.065
 3752TP3     H223076   4.501   3.824   0.093
 3753TP3      O23077   5.173   5.359  10.104
 3753TP3     H123078   5.191   5.269  10.077
 3753TP3     H223079   5.259   5.395  10.124
 3754TP3      O23080   5.227   5.105  10.024
 3754TP3     H123081   5.141   5.072   9.999
 3754TP3     H223082   5.246   5.064  10.108
 3755TP3      O23083   5.368   4.948   0.531
 3755TP3     H123084   5.375   4.893   0.452
 3755TP3     H223085   5.398   5.034   0.502
 3756TP3      O23086   4.839   4.697   9.834
 3756TP3     H123087   4.773   4.762   9.811
 3756TP3     H223088   4.903   4.701   9.762
 3757TP3      O23089   4.836   4.516   9.543
 3757TP3     H123090   4.911   4.563   9.582
 3757TP3     H223091   4.873   4.434   9.512
 3758TP3      O23092   5.189   4.719   9.905
 3758TP3     H123093   5.122   4.743   9.968
 3758TP3     H223094   5.251   4.666   9.955
 3759TP3      O23095   5.149   4.520   0.542
 3759TP3     H123096   5.139   4.589   0.607
 3759TP3     H223097   5.082   4.539   0.476
 3760TP3      O23098   4.351   4.760  10.102
 3760TP3     H123099   4.327   4.722  10.018
 3760TP3     H223100   4.402   4.692  10.146
 3761TP3      O23101   4.500   5.074   0.049
 3761TP3     H123102   4.503   5.085  -0.046
 3761TP3     H223103   4.579   5.024   0.070
 3762TP3      O23104   4.343   4.666   0.161
 3762TP3     H123105   4.397   4.640   0.086
 3762TP3     H223106   4.396   4.732   0.206
 3763TP3      O23107   4.995   5.248   0.213
 3763TP3     H123108   4.997   5.314   0.283
 3763TP3     H223109   4.963   5.168   0.256
 3764TP3      O23110   4.501   5.100   0.642
 3764TP3     H123111   4.435   5.154   0.686
 3764TP3     H223112   4.455   5.065   0.565
 3765TP3      O23113   5.072   4.659   9.667
 3765TP3     H123114   5.112   4.689   9.748
 3765TP3     H223115   5.125   4.698   9.598
 3766TP3      O23116   4.157   4.669   0.597
 3766TP3     H123117   4.169   4.752   0.644
 3766TP3     H223118   4.066   4.671   0.568
 3767TP3      O23119   4.850   5.276  10.041
 3767TP3     H123120   4.863   5.317  10.127
 3767TP3     H223121   4.766   5.310  10.011
 3768TP3      O23122   4.287   5.259   0.719
 3768TP3     H123123   4.282   5.289   0.628
 3768TP3     H223124   4.197   5.237   0.741
 3769TP3      O23125   5.404   3.767   9.658
 3769TP3     H123126   5.325   3.815   9.685
 3769TP3     H223127   5.409   3.779   9.564
 3770TP3      O23128   4.268   4.676   9.841
 3770TP3     H123129   4.212   4.747   9.808
 3770TP3     H223130   4.213   4.598   9.836
 3771TP3      O23131   3.856   4.922   0.461
 3771TP3     H123132   3.804   4.931   0.382
 3771TP3     H223133   3.872   4.828   0.469
 3772TP3      O23134   3.810   5.191   0.157
 3772TP3     H123135   3.902   5.209   0.140
 3772TP3     H223136   3.771   5.278   0.172
 3773TP3      O23137   4.738   5.228   0.592
 3773TP3     H123138   4.753   5.299   0.654
 3773TP3     H223139   4.654   5.191   0.617
 3774TP3      O23140   4.158   5.392  10.073
 3774TP3     H123141   4.176   5.372  10.165
 3774TP3     H223142   4.093   5.326  10.047
 3775TP3      O23143   5.082   5.496   9.562
 3775TP3     H123144   5.146   5.435   9.525
 3775TP3     H223145   5.083   5.477   9.656
 3776TP3      O23146   5.040   5.446   9.850
 3776TP3     H123147   4.952   5.409   9.845
 3776TP3     H223148   5.077   5.408   9.930
 3777TP3      O23149   5.308   4.409   0.771
 3777TP3     H123150   5.283   4.456   0.692
 3777TP3     H223151   5.387   4.361   0.748
 3778TP3      O23152   4.077   5.071   0.517
 3778TP3     H123153   4.097   5.043   0.606
 3778TP3     H223154   3.999   5.021   0.492
 3779TP3      O23155   4.335   3.892   0.148
 3779TP3     H123156   4.258   3.881   0.092
 3779TP3     H223157   4.313   3.965   0.205
 3780TP3      O23158   4.815   3.865   0.495
 3780TP3     H123159   4.855   3.805   0.558
 3780TP3     H223160   4.721   3.858   0.512
 3781TP3      O23161   5.108   4.239   0.567
 3781TP3     H123162   5.052   4.225   0.643
 3781TP3     H223163   5.118   4.334   0.561
 3782TP3      O23164   5.239   4.756   9.470
 3782TP3     H123165   5.250   4.789   9.381
 3782TP3     H223166   5.320   4.780   9.515
 3783TP3      O23167   4.813   4.156   9.569
 3783TP3     H123168   4.751   4.133   9.638
 3783TP3     H223169   4.774   4.119   9.489
 3784TP3      O23170   4.345   4.412   0.267
 3784TP3     H123171   4.280   4.412   0.337
 3784TP3     H223172   4.348   4.503   0.238
 3785TP3      O23173   4.343   4.407  10.077
 3785TP3     H123174   4.248   4.397  10.074
 3785TP3     H223175   4.372   4.391   9.987
 3786TP3      O23176   4.884   4.446   9.940
 3786TP3     H123177   4.862   4.534   9.908
 3786TP3     H223178   4.958   4.419   9.885
 3787TP3      O23179   4.803   4.455   0.745
 3787TP3     H123180   4.756   4.381   0.785
 3787TP3     H223181   4.887   4.457   0.791
 3788TP3      O23182   4.979   4.394  10.207
 3788TP3     H123183   4.938   4.450  10.141
 3788TP3     H223184   5.018   4.322  10.157
 3789TP3      O23185   4.133   4.412   0.440
 3789TP3     H123186   4.133   4.460   0.523
 3789TP3     H223187   4.092   4.328   0.461
 3790TP3      O23188   4.419   4.191   9.472
 3790TP3     H123189   4.386   4.162   9.557
 3790TP3     H223190   4.406   4.286   9.473
 3791TP3      O23191   3.791   4.110  10.161
 3791TP3     H123192   3.849   4.120  10.236
 3791TP3     H223193   3.849   4.114  10.085
 3792TP3      O23194   3.855   4.225   9.659
 3792TP3     H123195   3.932   4.262   9.615
 3792TP3     H223196   3.802   4.301   9.683
 3793TP3      O23197   4.941   4.531   0.354
 3793TP3     H123198   4.974   4.472   0.286
 3793TP3     H223199   4.874   4.480   0.399
 3794TP3      O23200   4.648   4.129  10.160
 3794TP3     H123201   4.558   4.136  10.194
 3794TP3     H223202   4.699   4.097  10.234
 3795TP3      O23203   4.083   4.325  10.046
 3795TP3     H123204   4.008   4.355   9.995
 3795TP3     H223205   4.098   4.235  10.016
 3796TP3      O23206   4.410   4.338   9.823
 3796TP3     H123207   4.505   4.338   9.834
 3796TP3     H223208   4.396   4.384   9.740
 3797TP3      O23209   5.010   4.084   0.178
 3797TP3     H123210   4.966   4.095   0.262
 3797TP3     H223211   4.943   4.047   0.120
 3798TP3      O23212   4.335   4.439   9.578
 3798TP3     H123213   4.245   4.442   9.546
 3798TP3     H223214   4.384   4.495   9.517
 3799TP3      O23215   4.157   4.900   0.754
 3799TP3     H123216   4.221   4.899   0.825
 3799TP3     H223217   4.073   4.915   0.798
 3800TP3      O23218   4.714   4.453   0.044
 3800TP3     H123219   4.787   4.404   0.005
 3800TP3     H223220   4.684   4.398   0.116
 3801TP3      O23221   4.191   4.056  10.014
 3801TP3     H123222   4.141   3.979  10.039
 3801TP3     H223223   4.230   4.033   9.929
 3802TP3      O23224   4.604   4.316   0.265
 3802TP3     H123225   4.519   4.359   0.272
 3802TP3     H223226   4.653   4.346   0.341
 3803TP3      O23227   4.655   4.893   9.763
 3803TP3     H123228   4.583   4.846   9.721
 3803TP3     H223229   4.621   4.917   9.849
 3804TP3      O23230   5.377   4.802   0.300
 3804TP3     H123231   5.449   4.774   0.243
 3804TP3     H223232   5.300   4.801   0.243
 3805TP3      O23233   5.067   4.155   9.657
 3805TP3     H123234   4.985   4.157   9.609
 3805TP3     H223235   5.079   4.244   9.690
 3806TP3      O23236   4.798   4.935   0.569
 3806TP3     H123237   4.834   4.897   0.649
 3806TP3     H223238   4.769   5.023   0.595
 3807TP3      O23239   5.107   4.400   9.768
 3807TP3     H123240   5.191   4.383   9.810
 3807TP3     H223241   5.112   4.491   9.738
 3808TP3      O23242   4.167   4.804  10.302
 3808TP3     H123243   4.226   4.802  10.227
 3808TP3     H223244   4.211   4.752  10.369
 3809TP3      O23245   4.874   5.057   9.712
 3809TP3     H123246   4.833   5.143   9.721
 3809TP3     H223247   4.802   4.995   9.716
 3810TP3      O23248   3.881   4.653   0.544
 3810TP3     H123249   3.853   4.611   0.625
 3810TP3     H223250   3.813   4.632   0.480
 3811TP3      O23251   4.593   4.638   0.773
 3811TP3     H123252   4.525   4.600   0.717
 3811TP3     H223253   4.672   4.589   0.753
 3812TP3      O23254   5.024   5.192   0.590
 3812TP3     H123255   4.932   5.203   0.563
 3812TP3     H223256   5.023   5.206   0.684
 3813TP3      O23257   5.418   5.226   9.781
 3813TP3     H123258   5.361   5.179   9.842
 3813TP3     H223259   5.362   5.247   9.707
 3814TP3      O23260   5.158   4.765   0.116
 3814TP3     H123261   5.062   4.760   0.110
 3814TP3     H223262   5.189   4.687   0.071
 3815TP3      O23263   4.424   5.166  10.105
 3815TP3     H123264   4.435   5.248  10.056
 3815TP3     H223265   4.330   5.162  10.124
 3816TP3      O23266   3.983   4.645   9.587
 3816TP3     H123267   4.025   4.721   9.627
 3816TP3     H223268   3.890   4.663   9.593
 3817TP3      O23269   4.529   4.942   9.994
 3817TP3     H123270   4.501   5.027  10.028
 3817TP3     H223271   4.469   4.879  10.036
 3818TP3      O23272   4.596   5.357   0.370
 3818TP3     H123273   4.628   5.444   0.394
 3818TP3     H223274   4.650   5.296   0.421
 3819TP3      O23275   4.406   5.410   9.974
 3819TP3     H123276   4.314   5.414  10.000
 3819TP3     H223277   4.448   5.482  10.021
 3820TP3      O23278   4.920   4.999   0.331
 3820TP3     H123279   4.878   4.974   0.413
 3820TP3     H223280   4.998   4.945   0.326
 3821TP3      O23281   5.147   5.075   9.570
 3821TP3     H123282   5.199   5.017   9.626
 3821TP3     H223283   5.057   5.067   9.604
 3822TP3      O23284   5.224   5.387   0.534
 3822TP3     H123285   5.174   5.310   0.562
 3822TP3     H223286   5.167   5.430   0.470
 3823TP3      O23287   4.017   4.154   0.485
 3823TP3     H123288   3.926   4.179   0.470
 3823TP3     H223289   4.014   4.090   0.556
 3824TP3      O23290   5.296   4.920   9.746
 3824TP3     H123291   5.257   4.857   9.807
 3824TP3     H223292   5.381   4.940   9.783
 3825TP3      O23293   4.037   5.321   0.370
 3825TP3     H123294   4.052   5.236   0.412
 3825TP3     H223295   3.967   5.361   0.422
 3826TP3      O23296   4.452   5.150   9.662
 3826TP3     H123297   4.528   5.110   9.705
 3826TP3     H223298   4.464   5.244   9.674
 3827TP3      O23299   4.100   4.861   9.723
 3827TP3     H123300   4.026   4.902   9.767
 3827TP3     H223301   4.144   4.932   9.677
 3828TP3      O23302   4.903   4.117   0.425
 3828TP3     H123303   4.978   4.140   0.480
 3828TP3     H223304   4.874   4.032   0.460
 3829TP3      O23305   4.982   4.036   9.885
 3829TP3     H123306   5.006   4.073   9.800
 3829TP3     H223307   5.021   4.096   9.949
 3830TP3      O23308   4.732   5.294   9.748
 3830TP3     H123309   4.646   5.336   9.753
 3830TP3     H223310   4.774   5.335   9.672
 3831TP3      O23311   4.667   4.280   9.925
 3831TP3     H123312   4.742   4.339   9.929
 3831TP3     H223313   4.662   4.241  10.012
 3832TP3      O23314   4.771   4.362   0.482
 3832TP3     H123315   4.778   4.387   0.574
 3832TP3     H223316   4.808   4.274   0.478
 3833TP3      O23317   4.745   3.942   9.979
 3833TP3     H123318   4.718   4.010  10.041
 3833TP3     H223319   4.831   3.969   9.949
 3834TP3      O23320   4.485   5.413   9.719
 3834TP3     H123321   4.444   5.489   9.678
 3834TP3     H223322   4.453   5.415   9.810
 3835TP3      O23323   4.346   4.090   9.719
 3835TP3     H123324   4.344   4.174   9.764
 3835TP3     H223325   4.436   4.059   9.730
 3836TP3      O23326   5.358   4.130   0.552
 3836TP3     H123327   5.267   4.161   0.554
 3836TP3     H223328   5.409   4.207   0.528
 3837TP3      O23329   5.222   4.513  -0.001
 3837TP3     H123330   5.137   4.482  -0.032
 3837TP3     H223331   5.250   4.447   0.063
 3838TP3      O23332   4.199   5.083   9.582
 3838TP3     H123333   4.271   5.129   9.624
 3838TP3     H223334   4.240   5.021   9.522
 3839TP3      O23335   4.041   4.393   9.512
 3839TP3     H123336   4.020   4.482   9.540
 3839TP3     H223337   4.019   4.390   9.419
 3840TP3      O23338   5.365   5.444   0.191
 3840TP3     H123339   5.331   5.509   0.130
 3840TP3     H223340   5.438   5.488   0.235
 3841TP3      O23341   4.087   3.861   0.031
 3841TP3     H123342   4.077   3.852  -0.064
 3841TP3     H223343   4.054   3.779   0.067
 3842TP3      O23344   3.954   5.228   9.984
 3842TP3     H123345   3.907   5.268  10.057
 3842TP3     H223346   3.945   5.290   9.912
 3843TP3      O23347   3.936   5.489   0.791
 3843TP3     H123348   3.996   5.463   0.862
 3843TP3     H223349   3.888   5.409   0.772
 3844TP3      O23350   4.357   5.347   0.970
 3844TP3     H123351   4.441   5.304   0.986
 3844TP3     H223352   4.332   5.320   0.881
 3845TP3      O23353   4.828   5.413   9.533
 3845TP3     H123354   4.808   5.380   9.445
 3845TP3     H223355   4.917   5.448   9.526
 3846TP3      O23356   5.018   5.222   0.857
 3846TP3     H123357   4.997   5.142   0.905
 3846TP3     H223358   5.090   5.261   0.907
 3847TP3      O23359   5.231   5.303   9.445
 3847TP3     H123360   5.202   5.221   9.484
 3847TP3     H223361   5.317   5.284   9.409
 3848TP3      O23362   3.907   4.903   0.878
 3848TP3     H123363   3.910   4.808   0.871
 3848TP3     H223364   3.834   4.929   0.822
 3849TP3      O23365   4.318   4.877   9.457
 3849TP3     H123366   4.369   4.842   9.530
 3849TP3     H223367   4.362   4.845   9.379
 3850TP3      O23368   4.562   4.911   0.835
 3850TP3     H123369   4.551   4.959   0.753
 3850TP3     H223370   4.587   4.822   0.808
 3851TP3      O23371   5.115   4.928   0.611
 3851TP3     H123372   5.206   4.936   0.583
 3851TP3     H223373   5.078   5.015   0.598
 3852TP3      O23374   3.979   4.635   0.861
 3852TP3     H123375   4.066   4.612   0.828
 3852TP3     H223376   3.989   4.636   0.956
 3853TP3      O23377   4.463   4.743   9.646
 3853TP3     H123378   4.404   4.708   9.714
 3853TP3     H223379   4.496   4.665   9.601
 3854TP3      O23380   4.402   4.529   0.592
 3854TP3     H123381   4.323   4.583   0.588
 3854TP3     H223382   4.459   4.567   0.525
 3855TP3      O23383   4.575   4.558   9.473
 3855TP3     H123384   4.579   4.536   9.380
 3855TP3     H223385   4.664   4.544   9.506
 3856TP3      O23386   4.906   4.776   0.883
 3856TP3     H123387   4.985   4.742   0.841
 3856TP3     H223388   4.877   4.706   0.941
 3857TP3      O23389   0.000   4.816   9.432
 3857TP3     H123390   0.009   4.813   9.337
 3857TP3     H223391   0.042   4.898   9.458
 3858TP3      O23392   4.445   4.269   0.663
 3858TP3     H123393   4.452   4.214   0.586
 3858TP3     H223394   4.432   4.358   0.629
 3859TP3      O23395   4.474   4.114   0.426
 3859TP3     H123396   4.526   4.164   0.363
 3859TP3     H223397   4.387   4.109   0.387
 3860TP3      O23398   4.584   4.639   0.428
 3860TP3     H123399   4.677   4.658   0.443
 3860TP3     H223400   4.552   4.717   0.382
 3861TP3      O23401   5.040   4.430   0.898
 3861TP3     H123402   5.057   4.336   0.898
 3861TP3     H223403   5.124   4.469   0.876
 3862TP3      O23404   5.169   4.708   0.758
 3862TP3     H123405   5.145   4.788   0.710
 3862TP3     H223406   5.264   4.704   0.751
 3863TP3      O23407   4.278   4.324   0.885
 3863TP3     H123408   4.196   4.276   0.873
 3863TP3     H223409   4.325   4.313   0.802
 3864TP3      O23410   4.536   3.851   0.491
 3864TP3     H123411   4.515   3.943   0.472
 3864TP3     H223412   4.465   3.802   0.450
 3865TP3      O23413   4.666   4.234   0.827
 3865TP3     H123414   4.628   4.208   0.911
 3865TP3     H223415   4.591   4.240   0.768
 3866TP3      O23416   4.935   4.171   0.761
 3866TP3     H123417   4.844   4.176   0.791
 3866TP3     H223418   4.979   4.119   0.828
 3867TP3      O23419   5.115   4.048   0.940
 3867TP3     H123420   5.106   3.953   0.938
 3867TP3     H223421   5.089   4.073   1.028
 3868TP3      O23422   4.067   4.137   0.854
 3868TP3     H123423   4.068   4.056   0.804
 3868TP3     H223424   4.076   4.109   0.946
 3869TP3      O23425   4.514   3.771   0.754
 3869TP3     H123426   4.567   3.691   0.748
 3869TP3     H223427   4.513   3.805   0.664
 3870TP3      O23428   4.598   3.924   0.964
 3870TP3     H123429   4.570   3.874   0.888
 3870TP3     H223430   4.539   4.000   0.966
 3871TP3      O23431   3.933   5.095   9.521
 3871TP3     H123432   4.025   5.109   9.545
 3871TP3     H223433   3.937   5.052   9.436
 3872TP3      O23434   3.867   5.377  10.200
 3872TP3     H123435   3.773   5.389  10.214
 3872TP3     H223436   3.907   5.402  10.283
 3873TP3      O23437   5.411   5.040   0.979
 3873TP3     H123438   5.325   5.046   1.022
 3873TP3     H223439   5.397   5.078   0.892
 3874TP3      O23440   5.407   5.192   0.411
 3874TP3     H123441   5.370   5.273   0.446
 3874TP3     H223442   5.365   5.182   0.325
 3875TP3      O23443   5.532   4.362   9.432
 3875TP3     H123444   5.528   4.451   9.397
 3875TP3     H223445   5.442   4.330   9.426
 3876TP3      O23446   5.329   4.545  10.061
 3876TP3     H123447   5.321   4.453  10.038
 3876TP3     H223448   5.307   4.548  10.154
 3877TP3      O23449   3.847   4.714   0.163
 3877TP3     H123450   3.861   4.709   0.069
 3877TP3     H223451   3.933   4.693   0.201
 3878TP3      O23452   5.445   4.694   0.744
 3878TP3     H123453   5.518   4.641   0.776
 3878TP3     H223454   5.484   4.781   0.729
 3879TP3      O23455   5.337   4.301   9.902
 3879TP3     H123456   5.352   4.207   9.898
 3879TP3     H223457   5.424   4.339   9.902
 3880TP3      O23458   5.356   4.273   0.179
 3880TP3     H123459   5.435   4.319   0.149
 3880TP3     H223460   5.342   4.305   0.268
 3881TP3      O23461   5.375   4.406   0.423
 3881TP3     H123462   5.300   4.456   0.455
 3881TP3     H223463   5.428   4.471   0.376
 3882TP3      O23464   3.844   4.255   0.742
 3882TP3     H123465   3.927   4.231   0.785
 3882TP3     H223466   3.789   4.177   0.753
 3883TP3      O23467   5.366   4.029   9.923
 3883TP3     H123468   5.372   3.996  10.012
 3883TP3     H223469   5.308   3.968   9.878
 3884TP3      O23470   3.960   4.106   0.061
 3884TP3     H123471   3.999   4.018   0.062
 3884TP3     H223472   4.033   4.165   0.078
 3885TP3      O23473   3.767   4.397   0.123
 3885TP3     H123474   3.839   4.392   0.060
 3885TP3     H223475   3.787   4.474   0.177
 3886TP3      O23476   3.818   4.023   9.846
 3886TP3     H123477   3.724   4.026   9.863
 3886TP3     H223478   3.835   4.097   9.789
 3887TP3      O23479   3.815   3.865   0.381
 3887TP3     H123480   3.750   3.859   0.451
 3887TP3     H223481   3.783   3.936   0.325
 3888TP3      O23482   4.033   5.197   0.809
 3888TP3     H123483   3.944   5.209   0.775
 3888TP3     H223484   4.022   5.187   0.903
 3889TP3      O23485   4.324   5.318   0.445
 3889TP3     H123486   4.255   5.357   0.392
 3889TP3     H223487   4.405   5.348   0.404
 3890TP3      O23488   4.809   5.473   0.752
 3890TP3     H123489   4.786   5.430   0.834
 3890TP3     H223490   4.895   5.512   0.768
 3891TP3      O23491   5.422   3.871   0.582
 3891TP3     H123492   5.403   3.965   0.580
 3891TP3     H223493   5.491   3.860   0.516
 3892TP3      O23494   5.023   5.486   0.367
 3892TP3     H123495   4.951   5.531   0.412
 3892TP3     H223496   5.047   5.546   0.296
 3893TP3      O23497   4.019   5.434   0.116
 3893TP3     H123498   4.020   5.407   0.208
 3893TP3     H223499   4.099   5.396   0.080
 3894TP3      O23500   4.241   5.329   0.010
 3894TP3     H123501   4.229   5.238   0.036
 3894TP3     H223502   4.329   5.351   0.040
 3895TP3      O23503   4.500   5.341   0.115
 3895TP3     H123504   4.505   5.249   0.090
 3895TP3     H223505   4.537   5.344   0.203
 3896TP3      O23506   4.817   3.967   0.009
 3896TP3     H123507   4.755   3.896   0.025
 3896TP3     H223508   4.892   3.924  -0.031
 3897TP3      O23509   5.310   3.781   0.029
 3897TP3     H123510   5.363   3.845  -0.018
 3897TP3     H223511   5.219   3.808   0.013
 3898TP3      O23512   5.450   3.933  10.172
 3898TP3     H123513   5.515   3.877  10.128
 3898TP3     H223514   5.491   4.019  10.174
 3899TP3      O23515   4.055   3.822  10.076
 3899TP3     H123516   3.962   3.806  10.059
 3899TP3     H223517   4.097   3.737  10.063
 3900TP3      O23518   3.937   3.828   9.686
 3900TP3     H123519   4.006   3.882   9.648
 3900TP3     H223520   3.892   3.885   9.747
 3901TP3      O23521   4.535   3.790  10.094
 3901TP3     H123522   4.605   3.842  10.054
 3901TP3     H223523   4.554   3.794  10.188
 3902TP3      O23524   5.046   3.834  10.237
 3902TP3     H123525   5.087   3.817  10.152
 3902TP3     H223526   5.017   3.747  10.266
 3903TP3      O23527   5.185   3.855   9.821
 3903TP3     H123528   5.108   3.910   9.833
 3903TP3     H223529   5.154   3.766   9.832
 3904TP3      O23530   3.937   5.397   9.778
 3904TP3     H123531   3.854   5.387   9.732
 3904TP3     H223532   3.966   5.485   9.755
 3905TP3      O23533   4.150   3.950   9.572
 3905TP3     H123534   4.194   3.943   9.487
 3905TP3     H223535   4.210   4.002   9.626
 3906TP3      O23536   4.621   4.070   9.759
 3906TP3     H123537   4.656   3.999   9.813
 3906TP3     H223538   4.635   4.149   9.811
 3907TP3      O23539   5.472   5.471   9.920
 3907TP3     H123540   5.465   5.379   9.892
 3907TP3     H223541   5.473   5.520   9.838
 3908TP3      O23542   4.062   3.890   0.710
 3908TP3     H123543   4.002   3.822   0.741
 3908TP3     H223544   4.143   3.875   0.758
 3909TP3      O23545   4.262   3.826   0.887
 3909TP3     H123546   4.347   3.798   0.853
 3909TP3     H223547   4.227   3.749   0.931
 3910TP3      O23548   4.205   5.502   9.524
 3910TP3     H123549   4.148   5.500   9.601
 3910TP3     H223550   4.153   5.463   9.454
 3911TP3      O23551   5.126   3.762   0.901
 3911TP3     H123552   5.105   3.725   0.987
 3911TP3     H223553   5.221   3.753   0.893
 3912TP3      O23554   5.383   5.402   0.801
 3912TP3     H123555   5.357   5.398   0.709
 3912TP3     H223556   5.468   5.447   0.800
 3913TP3      O23557   1.207   1.011   1.629
 3913TP3     H123558   1.191   1.105   1.618
 3913TP3     H223559   1.141   0.969   1.574
 3914TP3      O23560   1.096   0.928   2.037
 3914TP3     H123561   1.125   0.875   2.111
 3914TP3     H223562   1.050   0.866   1.979
 3915TP3      O23563   0.316   0.873   2.182
 3915TP3     H123564   0.317   0.787   2.223
 3915TP3     H223565   0.394   0.873   2.126
 3916TP3      O23566   1.466   1.223   1.848
 3916TP3     H123567   1.433   1.141   1.886
 3916TP3     H223568   1.493   1.275   1.924
 3917TP3      O23569   0.392   1.333   1.970
 3917TP3     H123570   0.392   1.243   1.936
 3917TP3     H223571   0.421   1.323   2.061
 3918TP3      O23572   0.046   0.657   1.527
 3918TP3     H123573   0.008   0.733   1.571
 3918TP3     H223574   0.049   0.589   1.594
 3919TP3      O23575   0.167   0.919   1.828
 3919TP3     H123576   0.201   0.830   1.819
 3919TP3     H223577   0.244   0.975   1.813
 3920TP3      O23578   1.226   1.694   1.885
 3920TP3     H123579   1.260   1.646   1.809
 3920TP3     H223580   1.144   1.648   1.907
 3921TP3      O23581   0.936   1.173   2.042
 3921TP3     H123582   0.974   1.092   2.008
 3921TP3     H223583   1.006   1.213   2.092
 3922TP3      O23584   1.822   0.315   2.133
 3922TP3     H123585   1.830   0.397   2.182
 3922TP3     H223586   1.875   0.328   2.055
 3923TP3      O23587   1.251   0.589   2.047
 3923TP3     H123588   1.273   0.497   2.060
 3923TP3     H223589   1.236   0.598   1.953
 3924TP3      O23590   0.606   0.412   1.787
 3924TP3     H123591   0.610   0.497   1.742
 3924TP3     H223592   0.560   0.355   1.727
 3925TP3      O23593   1.371   0.452   1.617
 3925TP3     H123594   1.413   0.421   1.697
 3925TP3     H223595   1.443   0.486   1.564
 3926TP3      O23596   0.257   0.656   1.846
 3926TP3     H123597   0.319   0.604   1.898
 3926TP3     H223598   0.269   0.625   1.757
 3927TP3      O23599   0.708   0.797   1.827
 3927TP3     H123600   0.795   0.766   1.852
 3927TP3     H223601   0.677   0.733   1.763
 3928TP3      O23602   1.826   0.503   2.358
 3928TP3     H123603   1.771   0.572   2.320
 3928TP3     H223604   1.767   0.455   2.416
 3929TP3      O23605   0.448   0.331   2.211
 3929TP3     H123606   0.420   0.381   2.134
 3929TP3     H223607   0.376   0.341   2.273
 3930TP3      O23608   1.144   1.259   1.536
 3930TP3     H123609   1.135   1.265   1.441
 3930TP3     H223610   1.111   1.344   1.568
 3931TP3      O23611   0.697   1.074   2.143
 3931TP3     H123612   0.692   1.094   2.237
 3931TP3     H223613   0.774   1.122   2.113
 3932TP3      O23614   1.474   0.399   1.857
 3932TP3     H123615   1.462   0.316   1.904
 3932TP3     H223616   1.533   0.450   1.914
 3933TP3      O23617   0.430   0.492   1.986
 3933TP3     H123618   0.488   0.544   2.041
 3933TP3     H223619   0.488   0.450   1.922
 3934TP3      O23620   0.474   1.337   2.232
 3934TP3     H123621   0.512   1.418   2.266
 3934TP3     H223622   0.515   1.268   2.284
 3935TP3      O23623   0.147   1.268   1.374
 3935TP3     H123624   0.148   1.304   1.284
 3935TP3     H223625   0.175   1.342   1.428
 3936TP3      O23626   1.520   1.407   2.057
 3936TP3     H123627   1.428   1.420   2.078
 3936TP3     H223628   1.545   1.487   2.009
 3937TP3      O23629   1.574   0.236   2.237
 3937TP3     H123630   1.500   0.242   2.176
 3937TP3     H223631   1.651   0.254   2.184
 3938TP3      O23632   0.817   0.073   1.936
 3938TP3     H123633   0.799  -0.021   1.943
 3938TP3     H223634   0.745   0.114   1.984
 3939TP3      O23635   1.344   1.599   1.657
 3939TP3     H123636   1.378   1.510   1.642
 3939TP3     H223637   1.423   1.653   1.666
 3940TP3      O23638   1.451   1.360   1.610
 3940TP3     H123639   1.460   1.299   1.537
 3940TP3     H223640   1.455   1.304   1.688
 3941TP3      O23641   1.596   1.223   2.418
 3941TP3     H123642   1.592   1.164   2.343
 3941TP3     H223643   1.621   1.307   2.380
 3942TP3      O23644   1.061   0.919   1.410
 3942TP3     H123645   0.995   0.984   1.383
 3942TP3     H223646   1.128   0.924   1.341
 3943TP3      O23647   1.099   0.797   1.061
 3943TP3     H123648   1.153   0.826   1.134
 3943TP3     H223649   1.148   0.724   1.022
 3944TP3      O23650   1.787   0.898   2.235
 3944TP3     H123651   1.713   0.959   2.226
 3944TP3     H223652   1.843   0.918   2.160
 3945TP3      O23653   1.424   0.957   1.475
 3945TP3     H123654   1.355   0.974   1.539
 3945TP3     H223655   1.487   0.902   1.523
 3946TP3      O23656   1.396   0.748   2.418
 3946TP3     H123657   1.392   0.811   2.489
 3946TP3     H223658   1.326   0.774   2.358
 3947TP3      O23659   0.581   0.994   1.669
 3947TP3     H123660   0.555   0.955   1.586
 3947TP3     H223661   0.632   0.926   1.713
 3948TP3      O23662   0.779   1.383   1.923
 3948TP3     H123663   0.751   1.360   1.835
 3948TP3     H223664   0.827   1.307   1.954
 3949TP3      O23665   0.551   0.884   2.031
 3949TP3     H123666   0.604   0.856   1.957
 3949TP3     H223667   0.603   0.953   2.073
 3950TP3      O23668   1.268   1.454   2.144
 3950TP3     H123669   1.231   1.502   2.218
 3950TP3     H223670   1.233   1.366   2.152
 3951TP3      O23671   0.731   1.379   2.534
 3951TP3     H123672   0.651   1.419   2.569
 3951TP3     H223673   0.704   1.291   2.508
 3952TP3      O23674   1.286   0.892   1.246
 3952TP3     H123675   1.338   0.916   1.323
 3952TP3     H223676   1.342   0.915   1.172
 3953TP3      O23677   0.391   0.941   2.458
 3953TP3     H123678   0.463   1.001   2.476
 3953TP3     H223679   0.370   0.956   2.366
 3954TP3      O23680   1.081   1.524   1.604
 3954TP3     H123681   1.171   1.553   1.617
 3954TP3     H223682   1.045   1.586   1.540
 3955TP3      O23683   0.511   1.543   2.586
 3955TP3     H123684   0.530   1.560   2.494
 3955TP3     H223685   0.419   1.517   2.587
 3956TP3      O23686   1.655   0.075   1.251
 3956TP3     H123687   1.566   0.096   1.279
 3956TP3     H223688   1.692   0.158   1.223
 3957TP3      O23689   0.491   0.902   1.417
 3957TP3     H123690   0.429   0.962   1.377
 3957TP3     H223691   0.452   0.815   1.407
 3958TP3      O23692   1.802   1.462   1.107
 3958TP3     H123693   1.820   1.556   1.105
 3958TP3     H223694   1.889   1.422   1.102
 3959TP3      O23695   0.140   1.120   2.321
 3959TP3     H123696   0.115   1.103   2.230
 3959TP3     H223697   0.121   1.038   2.366
 3960TP3      O23698   0.066   1.484   2.012
 3960TP3     H123699   0.089   1.395   1.986
 3960TP3     H223700   0.122   1.502   2.087
 3961TP3      O23701   1.871   1.511   2.624
 3961TP3     H123702   1.865   1.416   2.615
 3961TP3     H223703   1.783   1.538   2.649
 3962TP3      O23704   0.958   1.487   2.460
 3962TP3     H123705   0.963   1.567   2.512
 3962TP3     H223706   0.876   1.445   2.487
 3963TP3      O23707   1.058   1.800   1.452
 3963TP3     H123708   1.024   1.796   1.363
 3963TP3     H223709   1.016   1.877   1.491
 3964TP3      O23710   0.391   1.677   1.645
 3964TP3     H123711   0.407   1.640   1.731
 3964TP3     H223712   0.330   1.616   1.603
 3965TP3      O23713   1.331   1.752   1.130
 3965TP3     H123714   1.377   1.678   1.090
 3965TP3     H223715   1.344   1.741   1.224
 3966TP3      O23716   1.318   1.737   1.407
 3966TP3     H123717   1.225   1.754   1.423
 3966TP3     H223718   1.341   1.668   1.469
 3967TP3      O23719   1.580   0.648   2.633
 3967TP3     H123720   1.532   0.642   2.551
 3967TP3     H223721   1.574   0.560   2.671
 3968TP3      O23722   0.247   1.338   2.444
 3968TP3     H123723   0.311   1.292   2.499
 3968TP3     H223724   0.206   1.269   2.392
 3969TP3      O23725   0.582   0.140   2.069
 3969TP3     H123726   0.523   0.135   1.994
 3969TP3     H223727   0.540   0.202   2.129
 3970TP3      O23728   1.035   0.083   2.375
 3970TP3     H123729   1.040   0.040   2.460
 3970TP3     H223730   0.942   0.102   2.363
 3971TP3      O23731   1.337   0.481   2.460
 3971TP3     H123732   1.268   0.469   2.526
 3971TP3     H223733   1.337   0.575   2.443
 3972TP3      O23734   1.445   0.943   1.035
 3972TP3     H123735   1.418   0.946   0.944
 3972TP3     H223736   1.535   0.976   1.034
 3973TP3      O23737   0.992   0.348   1.116
 3973TP3     H123738   0.937   0.330   1.192
 3973TP3     H223739   0.962   0.286   1.050
 3974TP3      O23740   0.584   0.642   2.156
 3974TP3     H123741   0.548   0.654   2.245
 3974TP3     H223742   0.577   0.729   2.116
 3975TP3      O23743   0.585   0.641   1.640
 3975TP3     H123744   0.490   0.634   1.632
 3975TP3     H223745   0.618   0.622   1.552
 3976TP3      O23746   1.125   0.674   1.513
 3976TP3     H123747   1.098   0.760   1.480
 3976TP3     H223748   1.197   0.648   1.456
 3977TP3      O23749   1.048   0.689   2.669
 3977TP3     H123750   1.000   0.613   2.703
 3977TP3     H223751   1.135   0.682   2.708
 3978TP3      O23752   1.218   0.619   1.775
 3978TP3     H123753   1.175   0.666   1.704
 3978TP3     H223754   1.265   0.547   1.733
 3979TP3      O23755   0.333   0.641   2.332
 3979TP3     H123756   0.404   0.655   2.394
 3979TP3     H223757   0.307   0.549   2.346
 3980TP3      O23758   0.680   0.387   1.006
 3980TP3     H123759   0.651   0.376   1.097
 3980TP3     H223760   0.619   0.450   0.969
 3981TP3      O23761   0.053   0.442   1.686
 3981TP3     H123762   0.081   0.415   1.774
 3981TP3     H223763   0.058   0.362   1.634
 3982TP3      O23764   0.128   0.462   1.261
 3982TP3     H123765   0.194   0.499   1.202
 3982TP3     H223766   0.049   0.512   1.244
 3983TP3      O23767   1.179   0.762   2.240
 3983TP3     H123768   1.212   0.703   2.173
 3983TP3     H223769   1.116   0.710   2.290
 3984TP3      O23770   0.889   0.397   1.748
 3984TP3     H123771   0.799   0.392   1.778
 3984TP3     H223772   0.940   0.359   1.819
 3985TP3      O23773   0.326   0.571   1.591
 3985TP3     H123774   0.249   0.580   1.536
 3985TP3     H223775   0.357   0.482   1.574
 3986TP3      O23776   0.650   0.574   1.386
 3986TP3     H123777   0.745   0.567   1.398
 3986TP3     H223778   0.640   0.614   1.299
 3987TP3      O23779   1.263   0.311   2.080
 3987TP3     H123780   1.214   0.323   2.161
 3987TP3     H223781   1.196   0.287   2.015
 3988TP3      O23782   0.605   0.669   1.136
 3988TP3     H123783   0.549   0.643   1.062
 3988TP3     H223784   0.681   0.711   1.096
 3989TP3      O23785   1.609   1.875   2.667
 3989TP3     H123786   1.628   1.922   2.585
 3989TP3     H223787   1.687   1.886   2.720
 3990TP3      O23788   0.376   1.266   2.691
 3990TP3     H123789   0.439   1.229   2.753
 3990TP3     H223790   0.300   1.208   2.696
 3991TP3      O23791   0.951   0.694   1.929
 3991TP3     H123792   1.016   0.642   1.882
 3991TP3     H223793   0.921   0.638   2.001
 3992TP3      O23794   0.451   0.319   1.572
 3992TP3     H123795   0.388   0.251   1.597
 3992TP3     H223796   0.495   0.283   1.495
 3993TP3      O23797   0.847   0.559   2.150
 3993TP3     H123798   0.761   0.600   2.161
 3993TP3     H223799   0.894   0.581   2.231
 3994TP3      O23800   0.871   1.111   1.332
 3994TP3     H123801   0.800   1.072   1.281
 3994TP3     H223802   0.830   1.137   1.415
 3995TP3      O23803   1.585   1.077   2.182
 3995TP3     H123804   1.644   1.131   2.130
 3995TP3     H223805   1.516   1.051   2.121
 3996TP3      O23806   1.246   0.383   1.200
 3996TP3     H123807   1.155   0.385   1.169
 3996TP3     H223808   1.264   0.473   1.227
 3997TP3      O23809   1.028   1.194   2.443
 3997TP3     H123810   0.955   1.137   2.468
 3997TP3     H223811   0.997   1.283   2.459
 3998TP3      O23812   1.330   0.615   1.332
 3998TP3     H123813   1.418   0.592   1.363
 3998TP3     H223814   1.343   0.693   1.278
 3999TP3      O23815   0.409   1.069   1.870
 3999TP3     H123816   0.465   1.060   1.794
 3999TP3     H223817   0.447   1.011   1.936
 4000TP3      O23818   1.077   1.269   1.258
 4000TP3     H123819   1.044   1.358   1.269
 4000TP3     H223820   1.004   1.213   1.281
 4001TP3      O23821   0.113   0.874   2.452
 4001TP3     H123822   0.205   0.886   2.475
 4001TP3     H223823   0.110   0.788   2.410
 4002TP3      O23824   0.853   0.878   2.688
 4002TP3     H123825   0.806   0.887   2.605
 4002TP3     H223826   0.924   0.817   2.669
 4003TP3      O23827   1.228   1.485   2.459
 4003TP3     H123828   1.133   1.477   2.450
 4003TP3     H223829   1.247   1.453   2.547
 4004TP3      O23830   1.787   0.658   1.309
 4004TP3     H123831   1.789   0.612   1.226
 4004TP3     H223832   1.802   0.750   1.286
 4005TP3      O23833   1.828   1.198   2.576
 4005TP3     H123834   1.739   1.211   2.544
 4005TP3     H223835   1.881   1.187   2.497
 4006TP3      O23836   1.654   1.484   1.342
 4006TP3     H123837   1.607   1.403   1.363
 4006TP3     H223838   1.698   1.464   1.259
 4007TP3      O23839   1.387   0.991   1.994
 4007TP3     H123840   1.292   0.981   1.990
 4007TP3     H223841   1.421   0.913   1.950
 4008TP3      O23842   0.649   1.423   1.660
 4008TP3     H123843   0.671   1.509   1.625
 4008TP3     H223844   0.555   1.427   1.676
 4009TP3      O23845   0.195   0.911   1.096
 4009TP3     H123846   0.237   0.963   1.164
 4009TP3     H223847   0.103   0.938   1.099
 4010TP3      O23848   0.734   1.190   1.547
 4010TP3     H123849   0.714   1.274   1.589
 4010TP3     H223850   0.684   1.125   1.597
 4011TP3      O23851   0.832   1.608   2.245
 4011TP3     H123852   0.892   1.678   2.220
 4011TP3     H223853   0.882   1.555   2.307
 4012TP3      O23854   0.650   1.687   1.557
 4012TP3     H123855   0.557   1.696   1.581
 4012TP3     H223856   0.691   1.766   1.593
 4013TP3      O23857   1.164   1.205   2.206
 4013TP3     H123858   1.119   1.194   2.290
 4013TP3     H223859   1.189   1.117   2.181
 4014TP3      O23860   1.433   1.307   1.134
 4014TP3     H123861   1.448   1.266   1.219
 4014TP3     H223862   1.348   1.275   1.106
 4015TP3      O23863   1.446   1.633   2.414
 4015TP3     H123864   1.364   1.584   2.416
 4015TP3     H223865   1.434   1.699   2.345
 4016TP3      O23866   1.847   1.733   1.130
 4016TP3     H123867   1.889   1.799   1.076
 4016TP3     H223868   1.772   1.778   1.169
 4017TP3      O23869   0.253   0.378   2.398
 4017TP3     H123870   0.190   0.426   2.451
 4017TP3     H223871   0.279   0.303   2.452
 4018TP3      O23872   1.525   1.195   1.377
 4018TP3     H123873   1.480   1.116   1.405
 4018TP3     H223874   1.618   1.172   1.379
 4019TP3      O23875   0.245   1.550   2.214
 4019TP3     H123876   0.289   1.467   2.232
 4019TP3     H223877   0.247   1.597   2.297
 4020TP3      O23878   0.802   1.399   0.979
 4020TP3     H123879   0.806   1.314   0.935
 4020TP3     H223880   0.761   1.379   1.064
 4021TP3      O23881   0.680   1.374   1.226
 4021TP3     H123882   0.718   1.321   1.296
 4021TP3     H223883   0.692   1.465   1.256
 4022TP3      O23884   0.320   1.075   1.283
 4022TP3     H123885   0.255   1.125   1.333
 4022TP3     H223886   0.371   1.141   1.236
 4023TP3      O23887   1.137   0.339   2.321
 4023TP3     H123888   1.213   0.360   2.375
 4023TP3     H223889   1.108   0.253   2.352
 4024TP3      O23890   1.219   0.290   1.457
 4024TP3     H123891   1.226   0.324   1.368
 4024TP3     H223892   1.266   0.354   1.510
 4025TP3      O23893   0.983   1.520   1.291
 4025TP3     H123894   0.892   1.549   1.304
 4025TP3     H223895   1.025   1.593   1.246
 4026TP3      O23896   0.902   0.515   1.497
 4026TP3     H123897   0.980   0.570   1.498
 4026TP3     H223898   0.894   0.483   1.587
 4027TP3      O23899   1.017   0.588   2.373
 4027TP3     H123900   1.012   0.600   2.468
 4027TP3     H223901   1.050   0.499   2.362
 4028TP3      O23902   0.989   0.203   1.569
 4028TP3     H123903   0.972   0.277   1.628
 4028TP3     H223904   1.072   0.224   1.528
 4029TP3      O23905   0.733   1.630   1.306
 4029TP3     H123906   0.739   1.715   1.262
 4029TP3     H223907   0.700   1.651   1.394
 4030TP3      O23908   0.587   0.331   1.262
 4030TP3     H123909   0.581   0.415   1.308
 4030TP3     H223910   0.673   0.297   1.286
 4031TP3      O23911   1.589   0.396   2.457
 4031TP3     H123912   1.498   0.425   2.466
 4031TP3     H223913   1.589   0.336   2.382
 4032TP3      O23914   1.461   0.749   1.871
 4032TP3     H123915   1.379   0.705   1.849
 4032TP3     H223916   1.509   0.685   1.924
 4033TP3      O23917   0.433   1.290   1.135
 4033TP3     H123918   0.507   1.336   1.174
 4033TP3     H223919   0.472   1.234   1.068
 4034TP3      O23920   0.223   0.637   1.068
 4034TP3     H123921   0.227   0.730   1.089
 4034TP3     H223922   0.132   0.623   1.041
 4035TP3      O23923   1.587   1.663   1.970
 4035TP3     H123924   1.601   1.691   1.879
 4035TP3     H223925   1.671   1.680   2.013
 4036TP3      O23926   0.359   0.156   1.896
 4036TP3     H123927   0.337   0.143   1.804
 4036TP3     H223928   0.317   0.084   1.942
 4037TP3      O23929   0.205   1.524   1.499
 4037TP3     H123930   0.114   1.534   1.527
 4037TP3     H223931   0.212   1.579   1.420
 4038TP3      O23932   0.157   1.755   2.745
 4038TP3     H123933   0.207   1.752   2.827
 4038TP3     H223934   0.177   1.672   2.702
 4039TP3      O23935   0.538   1.657   2.832
 4039TP3     H123936   0.612   1.619   2.878
 4039TP3     H223937   0.538   1.613   2.747
 4040TP3      O23938   1.005   1.581   0.959
 4040TP3     H123939   0.937   1.514   0.971
 4040TP3     H223940   1.081   1.532   0.928
 4041TP3      O23941   1.302   1.393   2.721
 4041TP3     H123942   1.310   1.306   2.682
 4041TP3     H223943   1.392   1.420   2.739
 4042TP3      O23944   1.453   1.547   1.002
 4042TP3     H123945   1.460   1.466   1.053
 4042TP3     H223946   1.528   1.544   0.943
 4043TP3      O23947   0.151   1.123   2.710
 4043TP3     H123948   0.176   1.031   2.725
 4043TP3     H223949   0.081   1.119   2.646
 4044TP3      O23950   0.565   1.115   0.978
 4044TP3     H123951   0.590   1.064   1.055
 4044TP3     H223952   0.648   1.128   0.931
 4045TP3      O23953   0.775   1.132   2.763
 4045TP3     H123954   0.730   1.149   2.680
 4045TP3     H223955   0.809   1.043   2.754
 4046TP3      O23956   1.186   1.248   1.008
 4046TP3     H123957   1.139   1.246   1.092
 4046TP3     H223958   1.162   1.166   0.966
 4047TP3      O23959   1.357   1.182   2.554
 4047TP3     H123960   1.442   1.196   2.513
 4047TP3     H223961   1.294   1.187   2.482
 4048TP3      O23962   0.212   0.860   2.750
 4048TP3     H123963   0.269   0.803   2.696
 4048TP3     H223964   0.213   0.819   2.836
 4049TP3      O23965   0.665   0.983   1.202
 4049TP3     H123966   0.616   0.939   1.270
 4049TP3     H223967   0.713   0.913   1.157
 4050TP3      O23968   0.574   0.721   2.441
 4050TP3     H123969   0.527   0.799   2.470
 4050TP3     H223970   0.658   0.754   2.409
 4051TP3      O23971   0.819   0.813   1.044
 4051TP3     H123972   0.815   0.839   0.952
 4051TP3     H223973   0.912   0.799   1.061
 4052TP3      O23974   1.705   1.014   0.997
 4052TP3     H123975   1.706   0.985   0.906
 4052TP3     H223976   1.699   1.110   0.991
 4053TP3      O23977   0.715   0.501   2.541
 4053TP3     H123978   0.711   0.446   2.463
 4053TP3     H223979   0.657   0.574   2.522
 4054TP3      O23980   0.704   0.363   2.302
 4054TP3     H123981   0.753   0.409   2.234
 4054TP3     H223982   0.614   0.360   2.268
 4055TP3      O23983   0.799   0.836   2.344
 4055TP3     H123984   0.869   0.854   2.281
 4055TP3     H223985   0.765   0.922   2.368
 4056TP3      O23986   1.304   0.667   2.791
 4056TP3     H123987   1.359   0.588   2.794
 4056TP3     H223988   1.357   0.731   2.743
 4057TP3      O23989   1.405   0.917   2.637
 4057TP3     H123990   1.378   1.008   2.620
 4057TP3     H223991   1.499   0.924   2.657
 4058TP3      O23992   0.762   0.105   2.351
 4058TP3     H123993   0.747   0.199   2.344
 4058TP3     H223994   0.704   0.067   2.285
 4059TP3      O23995   0.902   0.460   2.728
 4059TP3     H123996   0.865   0.389   2.780
 4059TP3     H223997   0.835   0.481   2.664
 4060TP3      O23998   1.150   0.405   2.632
 4060TP3     H123999   1.062   0.415   2.668
 4060TP3     H224000   1.200   0.364   2.703
 4061TP3      O24001   1.311   0.296   2.824
 4061TP3     H124002   1.314   0.204   2.796
 4061TP3     H224003   1.295   0.292   2.918
 4062TP3      O24004   0.247   0.438   2.686
 4062TP3     H124005   0.276   0.348   2.671
 4062TP3     H224006   0.299   0.469   2.760
 4063TP3      O24007   0.777   0.058   2.626
 4063TP3     H124008   0.863   0.018   2.633
 4063TP3     H224009   0.765   0.073   2.532
 4064TP3      O24010   0.781   0.237   2.840
 4064TP3     H124011   0.787   0.172   2.770
 4064TP3     H224012   0.687   0.247   2.856
 4065TP3      O24013   0.812   1.870   1.188
 4065TP3     H124014   0.899   1.834   1.174
 4065TP3     H224015   0.800   1.932   1.117
 4066TP3      O24016   0.167   1.337   1.108
 4066TP3     H124017   0.263   1.334   1.116
 4066TP3     H224018   0.148   1.274   1.038
 4067TP3      O24019   0.064   1.852   1.610
 4067TP3     H124020   0.021   1.808   1.536
 4067TP3     H224021   0.070   1.785   1.678
 4068TP3      O24022   0.074   1.675   1.811
 4068TP3     H124023   0.051   1.589   1.845
 4068TP3     H224024   0.140   1.708   1.872
 4069TP3      O24025   1.816   1.739   2.103
 4069TP3     H124026   1.832   1.730   2.197
 4069TP3     H224027   1.900   1.765   2.066
 4070TP3      O24028   1.783   1.695   2.379
 4070TP3     H124029   1.740   1.614   2.351
 4070TP3     H224030   1.843   1.667   2.448
 4071TP3      O24031   1.642   1.238   2.873
 4071TP3     H124032   1.571   1.244   2.937
 4071TP3     H224033   1.697   1.315   2.890
 4072TP3      O24034   1.787   1.113   1.400
 4072TP3     H124035   1.866   1.167   1.400
 4072TP3     H224036   1.801   1.050   1.471
 4073TP3      O24037   1.825   0.918   1.587
 4073TP3     H124038   1.742   0.875   1.607
 4073TP3     H224039   1.874   0.914   1.670
 4074TP3      O24040   1.830   1.195   2.099
 4074TP3     H124041   1.878   1.125   2.056
 4074TP3     H224042   1.865   1.275   2.060
 4075TP3      O24043   1.637   1.470   2.300
 4075TP3     H124044   1.562   1.518   2.334
 4075TP3     H224045   1.610   1.442   2.213
 4076TP3      O24046   1.833   0.914   1.216
 4076TP3     H124047   1.790   0.939   1.134
 4076TP3     H224048   1.811   0.983   1.278
 4077TP3      O24049   1.518   0.656   1.052
 4077TP3     H124050   1.533   0.751   1.049
 4077TP3     H224051   1.605   0.618   1.040
 4078TP3      O24052   1.586   0.787   1.626
 4078TP3     H124053   1.584   0.700   1.585
 4078TP3     H224054   1.546   0.774   1.712
 4079TP3      O24055   0.084   0.974   2.079
 4079TP3     H124056   0.099   0.974   1.985
 4079TP3     H224057   0.168   0.946   2.117
 4080TP3      O24058   1.671   0.964   2.684
 4080TP3     H124059   1.737   0.899   2.658
 4080TP3     H224060   1.715   1.048   2.675
 4081TP3      O24061   1.832   0.743   2.623
 4081TP3     H124062   1.742   0.711   2.625
 4081TP3     H224063   1.885   0.667   2.648
 4082TP3      O24064   1.603   0.315   0.935
 4082TP3     H124065   1.652   0.389   0.970
 4082TP3     H224066   1.511   0.342   0.940
 4083TP3      O24067   1.582   0.553   1.460
 4083TP3     H124068   1.606   0.460   1.465
 4083TP3     H224069   1.652   0.592   1.408
 4084TP3      O24070   1.619   0.570   2.018
 4084TP3     H124071   1.713   0.580   2.002
 4084TP3     H224072   1.608   0.593   2.110
 4085TP3      O24073   1.629   0.676   2.273
 4085TP3     H124074   1.549   0.701   2.319
 4085TP3     H224075   1.679   0.758   2.264
 4086TP3      O24076  -0.014   0.503   2.659
 4086TP3     H124077   0.078   0.483   2.674
 4086TP3     H224078  -0.043   0.438   2.595
 4087TP3      O24079   1.781   0.063   2.786
 4087TP3     H124080   1.861   0.021   2.819
 4087TP3     H224081   1.811   0.115   2.712
 4088TP3      O24082   1.620   0.286   1.489
 4088TP3     H124083   1.648   0.243   1.570
 4088TP3     H224084   1.556   0.226   1.451
 4089TP3      O24085   0.165   0.350   1.919
 4089TP3     H124086   0.236   0.286   1.914
 4089TP3     H224087   0.202   0.423   1.968
 4090TP3      O24088   0.053   0.694   2.034
 4090TP3     H124089   0.119   0.677   1.966
 4090TP3     H224090   0.056   0.788   2.047
 4091TP3      O24091   1.795   0.297   2.621
 4091TP3     H124092   1.713   0.346   2.625
 4091TP3     H224093   1.779   0.228   2.556
 4092TP3      O24094   1.855   0.258   1.167
 4092TP3     H124095   1.871   0.203   1.090
 4092TP3     H224096   1.838   0.345   1.131
 4093TP3      O24097   0.117   0.259   1.438
 4093TP3     H124098   0.022   0.249   1.443
 4093TP3     H224099   0.130   0.334   1.380
 4094TP3      O24100   1.561   1.764   1.676
 4094TP3     H124101   1.610   1.737   1.598
 4094TP3     H224102   1.591   1.853   1.695
 4095TP3      O24103  -0.002   0.085   2.246
 4095TP3     H124104   0.089   0.112   2.233
 4095TP3     H224105  -0.054   0.161   2.219
 4096TP3      O24106   0.232   1.500   2.659
 4096TP3     H124107   0.207   1.462   2.575
 4096TP3     H224108   0.286   1.433   2.701
 4097TP3      O24109   0.571   1.581   2.323
 4097TP3     H124110   0.548   1.670   2.296
 4097TP3     H224111   0.664   1.573   2.303
 4098TP3      O24112   0.992   1.721   2.606
 4098TP3     H124113   1.004   1.664   2.682
 4098TP3     H224114   1.079   1.755   2.588
 4099TP3      O24115   1.241   1.829   2.541
 4099TP3     H124116   1.316   1.769   2.540
 4099TP3     H224117   1.269   1.902   2.596
 4100TP3      O24118   1.690   0.099   2.458
 4100TP3     H124119   1.634   0.135   2.389
 4100TP3     H224120   1.730   0.022   2.418
 4101TP3      O24121   0.291   1.890   2.346
 4101TP3     H124122   0.215   1.932   2.306
 4101TP3     H224123   0.292   1.922   2.436
 4102TP3      O24124   0.541   1.843   2.253
 4102TP3     H124125   0.451   1.859   2.282
 4102TP3     H224126   0.547   1.886   2.168
 4103TP3      O24127   0.981   1.822   2.150
 4103TP3     H124128   0.923   1.854   2.081
 4103TP3     H224129   0.985   1.893   2.213
 4104TP3      O24130   1.231   1.754   2.230
 4104TP3     H124131   1.143   1.764   2.193
 4104TP3     H224132   1.225   1.790   2.318
 4105TP3      O24133   1.529   1.833   2.218
 4105TP3     H124134   1.536   1.929   2.214
 4105TP3     H224135   1.618   1.802   2.204
 4106TP3      O24136   0.269   1.730   1.999
 4106TP3     H124137   0.250   1.684   2.081
 4106TP3     H224138   0.340   1.680   1.959
 4107TP3      O24139   0.464   1.580   1.888
 4107TP3     H124140   0.442   1.491   1.917
 4107TP3     H224141   0.551   1.595   1.924
 4108TP3      O24142   0.723   1.636   1.992
 4108TP3     H124143   0.747   1.551   1.956
 4108TP3     H224144   0.744   1.629   2.086
 4109TP3      O24145   1.053   0.233   1.907
 4109TP3     H124146   0.984   0.168   1.921
 4109TP3     H224147   1.116   0.190   1.849
 4110TP3      O24148   1.495   0.100   1.875
 4110TP3     H124149   1.564   0.111   1.811
 4110TP3     H224150   1.414   0.108   1.825
 4111TP3      O24151   1.697   0.120   1.697
 4111TP3     H124152   1.732   0.059   1.632
 4111TP3     H224153   1.772   0.174   1.721
 4112TP3      O24154   0.265   0.128   1.636
 4112TP3     H124155   0.209   0.151   1.563
 4112TP3     H224156   0.290   0.037   1.620
 4113TP3      O24157   0.240   0.104   1.236
 4113TP3     H124158   0.283   0.167   1.178
 4113TP3     H224159   0.194   0.157   1.300
 4114TP3      O24160   0.765   0.080   1.664
 4114TP3     H124161   0.844   0.118   1.624
 4114TP3     H224162   0.781   0.085   1.758
 4115TP3      O24163   1.242   0.107   1.751
 4115TP3     H124164   1.244   0.109   1.655
 4115TP3     H224165   1.219   0.016   1.772
 4116TP3      O24166   1.422   0.115   1.397
 4116TP3     H124167   1.349   0.175   1.407
 4116TP3     H224168   1.382   0.028   1.400
 4117TP3      O24169   0.194   1.692   1.277
 4117TP3     H124170   0.108   1.673   1.239
 4117TP3     H224171   0.198   1.788   1.280
 4118TP3      O24172   0.393   0.263   1.069
 4118TP3     H124173   0.441   0.212   1.004
 4118TP3     H224174   0.459   0.285   1.135
 4119TP3      O24175   0.845   0.294   1.345
 4119TP3     H124176   0.885   0.225   1.398
 4119TP3     H224177   0.865   0.375   1.392
 4120TP3      O24178   1.057   1.755   1.158
 4120TP3     H124179   1.151   1.771   1.148
 4120TP3     H224180   1.034   1.703   1.081
 4121TP3      O24181   1.714   1.723   1.453
 4121TP3     H124182   1.697   1.635   1.418
 4121TP3     H224183   1.702   1.781   1.379
 4122TP3      O24184   0.299   0.178   2.580
 4122TP3     H124185   0.230   0.114   2.597
 4122TP3     H224186   0.377   0.142   2.621
 4123TP3      O24187   0.505   0.049   2.712
 4123TP3     H124188   0.591   0.062   2.672
 4123TP3     H224189   0.519  -0.019   2.777
 4124TP3      O24190   0.358   1.733   1.026
 4124TP3     H124191   0.327   1.709   1.114
 4124TP3     H224192   0.435   1.678   1.012
 4125TP3      O24193   1.320   0.028   2.753
 4125TP3     H124194   1.317   0.011   2.847
 4125TP3     H224195   1.397  -0.020   2.722
 4126TP3      O24196   1.604   1.605   2.639
 4126TP3     H124197   1.554   1.598   2.557
 4126TP3     H224198   1.610   1.699   2.655
 4127TP3      O24199   3.093   1.012   1.628
 4127TP3     H124200   3.078   1.106   1.617
 4127TP3     H224201   3.026   0.970   1.574
 4128TP3      O24202   2.975   0.926   2.029
 4128TP3     H124203   3.002   0.878   2.107
 4128TP3     H224204   2.929   0.861   1.975
 4129TP3      O24205   2.197   0.870   2.146
 4129TP3     H124206   2.206   0.795   2.204
 4129TP3     H224207   2.286   0.885   2.114
 4130TP3      O24208   3.360   1.230   1.854
 4130TP3     H124209   3.322   1.153   1.898
 4130TP3     H224210   3.378   1.291   1.925
 4131TP3      O24211   2.320   1.342   1.961
 4131TP3     H124212   2.297   1.252   1.935
 4131TP3     H224213   2.413   1.338   1.982
 4132TP3      O24214   1.976   0.689   1.515
 4132TP3     H124215   1.931   0.772   1.534
 4132TP3     H224216   1.926   0.651   1.443
 4133TP3      O24217   2.021   0.894   1.785
 4133TP3     H124218   2.052   0.805   1.803
 4133TP3     H224219   2.096   0.939   1.748
 4134TP3      O24220   3.110   1.736   1.917
 4134TP3     H124221   3.146   1.678   1.850
 4134TP3     H224222   3.052   1.680   1.968
 4135TP3      O24223   2.813   1.175   2.036
 4135TP3     H124224   2.852   1.096   1.999
 4135TP3     H224225   2.882   1.212   2.091
 4136TP3      O24226   3.711   0.316   2.126
 4136TP3     H124227   3.719   0.388   2.189
 4136TP3     H224228   3.771   0.340   2.055
 4137TP3      O24229   3.132   0.589   2.048
 4137TP3     H124230   3.154   0.497   2.061
 4137TP3     H224231   3.117   0.597   1.954
 4138TP3      O24232   2.484   0.410   1.785
 4138TP3     H124233   2.487   0.495   1.742
 4138TP3     H224234   2.440   0.352   1.723
 4139TP3      O24235   3.256   0.452   1.616
 4139TP3     H124236   3.297   0.421   1.696
 4139TP3     H224237   3.328   0.488   1.564
 4140TP3      O24238   2.123   0.648   1.859
 4140TP3     H124239   2.195   0.613   1.911
 4140TP3     H224240   2.140   0.616   1.771
 4141TP3      O24241   2.590   0.797   1.833
 4141TP3     H124242   2.677   0.764   1.855
 4141TP3     H224243   2.554   0.734   1.771
 4142TP3      O24244   3.723   0.477   2.355
 4142TP3     H124245   3.669   0.549   2.324
 4142TP3     H224246   3.669   0.433   2.421
 4143TP3      O24247   2.305   0.331   2.224
 4143TP3     H124248   2.302   0.389   2.148
 4143TP3     H224249   2.218   0.292   2.228
 4144TP3      O24250   3.033   1.260   1.533
 4144TP3     H124251   3.021   1.264   1.438
 4144TP3     H224252   3.000   1.344   1.564
 4145TP3      O24253   2.597   1.087   2.181
 4145TP3     H124254   2.545   1.160   2.214
 4145TP3     H224255   2.668   1.129   2.132
 4146TP3      O24256   3.361   0.397   1.856
 4146TP3     H124257   3.336   0.324   1.912
 4146TP3     H224258   3.418   0.451   1.911
 4147TP3      O24259   2.320   0.492   1.994
 4147TP3     H124260   2.380   0.548   2.043
 4147TP3     H224261   2.374   0.453   1.925
 4148TP3      O24262   2.448   1.292   2.288
 4148TP3     H124263   2.459   1.387   2.283
 4148TP3     H224264   2.357   1.279   2.311
 4149TP3      O24265   2.018   1.269   1.374
 4149TP3     H124266   2.013   1.303   1.285
 4149TP3     H224267   2.046   1.343   1.427
 4150TP3      O24268   3.397   1.430   2.052
 4150TP3     H124269   3.303   1.434   2.070
 4150TP3     H224270   3.420   1.518   2.023
 4151TP3      O24271   3.469   0.225   2.233
 4151TP3     H124272   3.392   0.234   2.176
 4151TP3     H224273   3.543   0.250   2.178
 4152TP3      O24274   2.700   0.074   1.942
 4152TP3     H124275   2.681  -0.019   1.948
 4152TP3     H224276   2.627   0.117   1.986
 4153TP3      O24277   3.208   1.601   1.688
 4153TP3     H124278   3.236   1.511   1.671
 4153TP3     H224279   3.288   1.653   1.675
 4154TP3      O24280   3.321   1.365   1.619
 4154TP3     H124281   3.312   1.301   1.548
 4154TP3     H224282   3.338   1.312   1.697
 4155TP3      O24283   3.509   1.220   2.406
 4155TP3     H124284   3.496   1.161   2.332
 4155TP3     H224285   3.522   1.306   2.366
 4156TP3      O24286   2.944   0.920   1.410
 4156TP3     H124287   2.878   0.984   1.384
 4156TP3     H224288   3.011   0.926   1.342
 4157TP3      O24289   2.978   0.800   1.066
 4157TP3     H124290   3.033   0.824   1.141
 4157TP3     H224291   3.030   0.736   1.017
 4158TP3      O24292   3.676   0.893   2.246
 4158TP3     H124293   3.600   0.950   2.231
 4158TP3     H224294   3.733   0.912   2.172
 4159TP3      O24295   3.312   0.955   1.479
 4159TP3     H124296   3.242   0.975   1.541
 4159TP3     H224297   3.375   0.904   1.530
 4160TP3      O24298   3.274   0.736   2.414
 4160TP3     H124299   3.282   0.810   2.474
 4160TP3     H224300   3.206   0.762   2.352
 4161TP3      O24301   2.458   0.993   1.676
 4161TP3     H124302   2.430   0.955   1.592
 4161TP3     H224303   2.510   0.924   1.717
 4162TP3      O24304   2.607   1.355   1.940
 4162TP3     H124305   2.605   1.359   1.845
 4162TP3     H224306   2.680   1.296   1.960
 4163TP3      O24307   2.454   0.894   2.051
 4163TP3     H124308   2.506   0.867   1.975
 4163TP3     H224309   2.508   0.961   2.093
 4164TP3      O24310   3.139   1.450   2.124
 4164TP3     H124311   3.113   1.518   2.187
 4164TP3     H224312   3.096   1.370   2.155
 4165TP3      O24313   2.614   1.302   2.517
 4165TP3     H124314   2.549   1.362   2.553
 4165TP3     H224315   2.576   1.271   2.435
 4166TP3      O24316   3.176   0.881   1.253
 4166TP3     H124317   3.227   0.914   1.327
 4166TP3     H224318   3.228   0.904   1.176
 4167TP3      O24319   2.244   0.889   2.495
 4167TP3     H124320   2.263   0.975   2.531
 4167TP3     H224321   2.155   0.896   2.460
 4168TP3      O24322   2.958   1.520   1.599
 4168TP3     H124323   3.039   1.553   1.638
 4168TP3     H224324   2.927   1.592   1.544
 4169TP3      O24325   2.416   1.467   2.578
 4169TP3     H124326   2.409   1.522   2.499
 4169TP3     H224327   2.332   1.480   2.623
 4170TP3      O24328   3.537   0.071   1.251
 4170TP3     H124329   3.448   0.086   1.285
 4170TP3     H224330   3.562   0.156   1.214
 4171TP3      O24331   2.367   0.902   1.426
 4171TP3     H124332   2.310   0.966   1.384
 4171TP3     H224333   2.328   0.818   1.406
 4172TP3      O24334   3.688   1.464   1.103
 4172TP3     H124335   3.704   1.558   1.104
 4172TP3     H224336   3.775   1.425   1.099
 4173TP3      O24337   1.961   1.149   2.344
 4173TP3     H124338   1.912   1.166   2.263
 4173TP3     H224339   1.972   1.054   2.346
 4174TP3      O24340   1.990   1.418   2.018
 4174TP3     H124341   2.077   1.385   1.996
 4174TP3     H224342   2.003   1.471   2.096
 4175TP3      O24343   3.768   1.526   2.607
 4175TP3     H124344   3.763   1.432   2.589
 4175TP3     H224345   3.679   1.551   2.631
 4176TP3      O24346   2.835   1.459   2.465
 4176TP3     H124347   2.829   1.540   2.516
 4176TP3     H224348   2.755   1.412   2.486
 4177TP3      O24349   2.940   1.796   1.458
 4177TP3     H124350   2.909   1.797   1.367
 4177TP3     H224351   2.895   1.869   1.499
 4178TP3      O24352   2.268   1.686   1.645
 4178TP3     H124353   2.286   1.654   1.733
 4178TP3     H224354   2.214   1.618   1.606
 4179TP3      O24355   3.216   1.753   1.131
 4179TP3     H124356   3.262   1.679   1.092
 4179TP3     H224357   3.227   1.741   1.225
 4180TP3      O24358   3.202   1.736   1.408
 4180TP3     H124359   3.109   1.747   1.430
 4180TP3     H224360   3.232   1.666   1.466
 4181TP3      O24361   3.472   0.637   2.618
 4181TP3     H124362   3.393   0.651   2.566
 4181TP3     H224363   3.470   0.545   2.642
 4182TP3      O24364   2.187   1.302   2.385
 4182TP3     H124365   2.214   1.274   2.473
 4182TP3     H224366   2.108   1.251   2.367
 4183TP3      O24367   2.462   0.153   2.062
 4183TP3     H124368   2.401   0.146   1.988
 4183TP3     H224369   2.412   0.198   2.130
 4184TP3      O24370   2.932   0.077   2.386
 4184TP3     H124371   2.933   0.030   2.469
 4184TP3     H224372   2.839   0.095   2.369
 4185TP3      O24373   3.222   0.470   2.454
 4185TP3     H124374   3.157   0.462   2.524
 4185TP3     H224375   3.229   0.565   2.439
 4186TP3      O24376   3.325   0.936   1.037
 4186TP3     H124377   3.302   0.942   0.944
 4186TP3     H224378   3.418   0.958   1.040
 4187TP3      O24379   2.884   0.337   1.120
 4187TP3     H124380   2.826   0.324   1.195
 4187TP3     H224381   2.850   0.277   1.054
 4188TP3      O24382   2.463   0.644   2.172
 4188TP3     H124383   2.393   0.647   2.238
 4188TP3     H224384   2.468   0.734   2.139
 4189TP3      O24385   2.458   0.643   1.648
 4189TP3     H124386   2.363   0.630   1.642
 4189TP3     H224387   2.490   0.626   1.560
 4190TP3      O24388   3.002   0.677   1.521
 4190TP3     H124389   2.976   0.762   1.486
 4190TP3     H224390   3.072   0.647   1.462
 4191TP3      O24391   2.921   0.700   2.634
 4191TP3     H124392   2.871   0.629   2.676
 4191TP3     H224393   3.007   0.696   2.675
 4192TP3      O24394   3.099   0.617   1.777
 4192TP3     H124395   3.055   0.663   1.706
 4192TP3     H224396   3.147   0.546   1.734
 4193TP3      O24397   2.237   0.660   2.332
 4193TP3     H124398   2.239   0.728   2.400
 4193TP3     H224399   2.154   0.615   2.345
 4194TP3      O24400   2.572   0.389   1.007
 4194TP3     H124401   2.539   0.378   1.096
 4194TP3     H224402   2.512   0.452   0.967
 4195TP3      O24403   1.891   0.302   1.752
 4195TP3     H124404   1.955   0.339   1.813
 4195TP3     H224405   1.930   0.315   1.665
 4196TP3      O24406   2.050   0.458   1.306
 4196TP3     H124407   2.111   0.494   1.242
 4196TP3     H224408   1.964   0.471   1.267
 4197TP3      O24409   3.052   0.761   2.238
 4197TP3     H124410   3.088   0.702   2.171
 4197TP3     H224411   2.990   0.707   2.287
 4198TP3      O24412   2.770   0.395   1.747
 4198TP3     H124413   2.679   0.388   1.777
 4198TP3     H224414   2.821   0.356   1.818
 4199TP3      O24415   2.198   0.564   1.613
 4199TP3     H124416   2.122   0.597   1.564
 4199TP3     H224417   2.219   0.480   1.571
 4200TP3      O24418   2.529   0.575   1.395
 4200TP3     H124419   2.623   0.568   1.407
 4200TP3     H224420   2.518   0.616   1.309
 4201TP3      O24421   3.147   0.312   2.076
 4201TP3     H124422   3.100   0.321   2.159
 4201TP3     H224423   3.079   0.287   2.013
 4202TP3      O24424   2.484   0.671   1.146
 4202TP3     H124425   2.425   0.644   1.075
 4202TP3     H224426   2.559   0.709   1.102
 4203TP3      O24427   3.499   1.856   2.711
 4203TP3     H124428   3.528   1.895   2.629
 4203TP3     H224429   3.566   1.881   2.774
 4204TP3      O24430   2.251   1.138   2.627
 4204TP3     H124431   2.313   1.168   2.693
 4204TP3     H224432   2.167   1.134   2.673
 4205TP3      O24433   2.832   0.689   1.927
 4205TP3     H124434   2.899   0.639   1.881
 4205TP3     H224435   2.804   0.632   1.999
 4206TP3      O24436   2.338   0.310   1.568
 4206TP3     H124437   2.272   0.245   1.593
 4206TP3     H224438   2.369   0.283   1.482
 4207TP3      O24439   2.726   0.555   2.152
 4207TP3     H124440   2.643   0.600   2.167
 4207TP3     H224441   2.779   0.577   2.229
 4208TP3      O24442   2.751   1.111   1.334
 4208TP3     H124443   2.681   1.070   1.284
 4208TP3     H224444   2.710   1.135   1.417
 4209TP3      O24445   3.474   1.069   2.180
 4209TP3     H124446   3.534   1.122   2.128
 4209TP3     H224447   3.403   1.047   2.120
 4210TP3      O24448   3.137   0.386   1.195
 4210TP3     H124449   3.046   0.379   1.166
 4210TP3     H224450   3.145   0.476   1.226
 4211TP3      O24451   2.925   1.163   2.454
 4211TP3     H124452   2.940   1.114   2.534
 4211TP3     H224453   2.876   1.240   2.482
 4212TP3      O24454   3.204   0.617   1.336
 4212TP3     H124455   3.294   0.601   1.366
 4212TP3     H224456   3.207   0.705   1.299
 4213TP3      O24457   2.301   1.079   1.884
 4213TP3     H124458   2.351   1.059   1.804
 4213TP3     H224459   2.332   1.014   1.948
 4214TP3      O24460   2.960   1.266   1.259
 4214TP3     H124461   2.927   1.355   1.268
 4214TP3     H224462   2.885   1.211   1.282
 4215TP3      O24463   1.978   0.867   2.428
 4215TP3     H124464   1.935   0.825   2.503
 4215TP3     H224465   1.913   0.862   2.358
 4216TP3      O24466   2.713   0.891   2.670
 4216TP3     H124467   2.647   0.844   2.618
 4216TP3     H224468   2.793   0.840   2.659
 4217TP3      O24469   3.116   1.443   2.455
 4217TP3     H124470   3.023   1.443   2.435
 4217TP3     H224471   3.121   1.455   2.549
 4218TP3      O24472   3.667   0.653   1.283
 4218TP3     H124473   3.624   0.630   1.200
 4218TP3     H224474   3.691   0.745   1.272
 4219TP3      O24475   3.735   1.255   2.566
 4219TP3     H124476   3.644   1.245   2.536
 4219TP3     H224477   3.787   1.226   2.490
 4220TP3      O24478   3.542   1.488   1.341
 4220TP3     H124479   3.492   1.410   1.366
 4220TP3     H224480   3.582   1.464   1.257
 4221TP3      O24481   3.268   0.997   1.996
 4221TP3     H124482   3.173   0.988   1.990
 4221TP3     H224483   3.302   0.920   1.951
 4222TP3      O24484   2.541   1.422   1.674
 4222TP3     H124485   2.566   1.507   1.637
 4222TP3     H224486   2.446   1.418   1.662
 4223TP3      O24487   2.094   0.871   1.142
 4223TP3     H124488   2.139   0.940   1.191
 4223TP3     H224489   2.003   0.879   1.170
 4224TP3      O24490   2.617   1.186   1.553
 4224TP3     H124491   2.605   1.268   1.600
 4224TP3     H224492   2.564   1.123   1.602
 4225TP3      O24493   2.739   1.607   2.242
 4225TP3     H124494   2.797   1.683   2.233
 4225TP3     H224495   2.785   1.548   2.302
 4226TP3      O24496   2.531   1.685   1.562
 4226TP3     H124497   2.438   1.698   1.582
 4226TP3     H224498   2.573   1.764   1.595
 4227TP3      O24499   3.030   1.210   2.209
 4227TP3     H124500   2.995   1.191   2.296
 4227TP3     H224501   3.081   1.132   2.187
 4228TP3      O24502   3.321   1.309   1.131
 4228TP3     H124503   3.337   1.265   1.215
 4228TP3     H224504   3.235   1.277   1.103
 4229TP3      O24505   3.331   1.625   2.425
 4229TP3     H124506   3.249   1.576   2.416
 4229TP3     H224507   3.323   1.698   2.364
 4230TP3      O24508   3.732   1.734   1.131
 4230TP3     H124509   3.780   1.802   1.085
 4230TP3     H224510   3.656   1.779   1.168
 4231TP3      O24511   2.070   0.391   2.395
 4231TP3     H124512   1.990   0.443   2.392
 4231TP3     H224513   2.042   0.302   2.375
 4232TP3      O24514   3.413   1.187   1.365
 4232TP3     H124515   3.368   1.111   1.401
 4232TP3     H224516   3.506   1.166   1.372
 4233TP3      O24517   2.110   1.566   2.238
 4233TP3     H124518   2.143   1.490   2.285
 4233TP3     H224519   2.134   1.640   2.294
 4234TP3      O24520   2.688   1.398   0.978
 4234TP3     H124521   2.691   1.313   0.933
 4234TP3     H224522   2.645   1.379   1.061
 4235TP3      O24523   2.560   1.376   1.223
 4235TP3     H124524   2.602   1.321   1.289
 4235TP3     H224525   2.574   1.465   1.253
 4236TP3      O24526   2.206   1.081   1.290
 4236TP3     H124527   2.137   1.130   1.334
 4236TP3     H224528   2.253   1.145   1.237
 4237TP3      O24529   3.020   0.337   2.318
 4237TP3     H124530   3.095   0.364   2.370
 4237TP3     H224531   2.994   0.253   2.355
 4238TP3      O24532   3.107   0.291   1.453
 4238TP3     H124533   3.115   0.324   1.363
 4238TP3     H224534   3.152   0.356   1.506
 4239TP3      O24535   2.865   1.516   1.285
 4239TP3     H124536   2.775   1.547   1.301
 4239TP3     H224537   2.909   1.591   1.245
 4240TP3      O24538   2.783   0.515   1.499
 4240TP3     H124539   2.860   0.572   1.502
 4240TP3     H224540   2.774   0.481   1.588
 4241TP3      O24541   2.889   0.589   2.374
 4241TP3     H124542   2.898   0.617   2.465
 4241TP3     H224543   2.926   0.501   2.371
 4242TP3      O24544   2.878   0.203   1.569
 4242TP3     H124545   2.860   0.278   1.626
 4242TP3     H224546   2.961   0.225   1.525
 4243TP3      O24547   2.617   1.629   1.310
 4243TP3     H124548   2.624   1.714   1.267
 4243TP3     H224549   2.584   1.650   1.398
 4244TP3      O24550   2.473   0.333   1.261
 4244TP3     H124551   2.462   0.415   1.308
 4244TP3     H224552   2.560   0.302   1.288
 4245TP3      O24553   3.476   0.378   2.458
 4245TP3     H124554   3.386   0.410   2.466
 4245TP3     H224555   3.476   0.323   2.379
 4246TP3      O24556   3.343   0.753   1.872
 4246TP3     H124557   3.259   0.709   1.854
 4246TP3     H224558   3.391   0.690   1.926
 4247TP3      O24559   2.310   1.291   1.132
 4247TP3     H124560   2.385   1.338   1.170
 4247TP3     H224561   2.348   1.234   1.066
 4248TP3      O24562   2.127   0.604   1.084
 4248TP3     H124563   2.121   0.697   1.106
 4248TP3     H224564   2.040   0.582   1.050
 4249TP3      O24565   3.477   1.697   2.031
 4249TP3     H124566   3.467   1.769   1.969
 4249TP3     H224567   3.572   1.694   2.048
 4250TP3      O24568   2.231   0.147   1.899
 4250TP3     H124569   2.210   0.142   1.806
 4250TP3     H224570   2.190   0.069   1.937
 4251TP3      O24571   2.084   1.510   1.522
 4251TP3     H124572   2.014   1.531   1.584
 4251TP3     H224573   2.071   1.572   1.450
 4252TP3      O24574   2.041   1.739   2.683
 4252TP3     H124575   2.124   1.702   2.713
 4252TP3     H224576   1.988   1.663   2.659
 4253TP3      O24577   2.891   1.581   0.960
 4253TP3     H124578   2.823   1.514   0.972
 4253TP3     H224579   2.967   1.533   0.929
 4254TP3      O24580   3.157   1.447   2.727
 4254TP3     H124581   3.106   1.369   2.751
 4254TP3     H224582   3.246   1.415   2.714
 4255TP3      O24583   3.340   1.549   1.002
 4255TP3     H124584   3.346   1.468   1.053
 4255TP3     H224585   3.415   1.545   0.942
 4256TP3      O24586   2.012   1.106   2.762
 4256TP3     H124587   2.021   1.011   2.749
 4256TP3     H224588   1.939   1.131   2.706
 4257TP3      O24589   2.445   1.116   0.977
 4257TP3     H124590   2.470   1.064   1.053
 4257TP3     H224591   2.527   1.129   0.929
 4258TP3      O24592   2.645   1.149   2.743
 4258TP3     H124593   2.636   1.191   2.658
 4258TP3     H224594   2.672   1.059   2.723
 4259TP3      O24595   3.074   1.248   1.012
 4259TP3     H124596   3.025   1.246   1.095
 4259TP3     H224597   3.050   1.167   0.969
 4260TP3      O24598   3.258   1.200   2.518
 4260TP3     H124599   3.343   1.213   2.478
 4260TP3     H224600   3.201   1.264   2.474
 4261TP3      O24601   2.102   0.847   2.752
 4261TP3     H124602   2.148   0.828   2.670
 4261TP3     H224603   2.102   0.765   2.800
 4262TP3      O24604   2.548   0.981   1.201
 4262TP3     H124605   2.498   0.932   1.266
 4262TP3     H224606   2.597   0.914   1.153
 4263TP3      O24607   2.513   0.770   2.502
 4263TP3     H124608   2.433   0.823   2.492
 4263TP3     H224609   2.571   0.801   2.432
 4264TP3      O24610   2.698   0.810   1.044
 4264TP3     H124611   2.693   0.834   0.952
 4264TP3     H224612   2.792   0.799   1.061
 4265TP3      O24613   3.033   1.010   2.848
 4265TP3     H124614   3.125   0.985   2.844
 4265TP3     H224615   2.990   0.937   2.893
 4266TP3      O24616   3.589   1.007   0.997
 4266TP3     H124617   3.589   0.983   0.904
 4266TP3     H224618   3.581   1.102   0.997
 4267TP3      O24619   2.476   0.501   2.518
 4267TP3     H124620   2.545   0.460   2.467
 4267TP3     H224621   2.497   0.595   2.516
 4268TP3      O24622   2.582   0.359   2.297
 4268TP3     H124623   2.642   0.406   2.239
 4268TP3     H224624   2.498   0.361   2.252
 4269TP3      O24625   2.684   0.867   2.319
 4269TP3     H124626   2.780   0.869   2.321
 4269TP3     H224627   2.659   0.947   2.272
 4270TP3      O24628   3.142   0.658   2.805
 4270TP3     H124629   3.155   0.581   2.859
 4270TP3     H224630   3.207   0.721   2.837
 4271TP3      O24631   3.322   0.943   2.584
 4271TP3     H124632   3.287   1.030   2.564
 4271TP3     H224633   3.417   0.956   2.590
 4272TP3      O24634   2.398   0.609   2.832
 4272TP3     H124635   2.307   0.617   2.860
 4272TP3     H224636   2.393   0.601   2.736
 4273TP3      O24637   2.662   0.106   2.351
 4273TP3     H124638   2.636   0.196   2.335
 4273TP3     H224639   2.613   0.055   2.287
 4274TP3      O24640   2.789   0.496   2.752
 4274TP3     H124641   2.818   0.481   2.842
 4274TP3     H224642   2.701   0.459   2.749
 4275TP3      O24643   3.028   0.403   2.627
 4275TP3     H124644   2.945   0.417   2.672
 4275TP3     H224645   3.086   0.366   2.693
 4276TP3      O24646   3.206   0.307   2.817
 4276TP3     H124647   3.200   0.212   2.827
 4276TP3     H224648   3.177   0.342   2.902
 4277TP3      O24649   2.203   0.371   2.716
 4277TP3     H124650   2.181   0.286   2.679
 4277TP3     H224651   2.232   0.352   2.806
 4278TP3      O24652   2.690   0.059   2.619
 4278TP3     H124653   2.765   0.000   2.624
 4278TP3     H224654   2.674   0.070   2.525
 4279TP3      O24655   2.741   0.200   2.848
 4279TP3     H124656   2.728   0.144   2.771
 4279TP3     H224657   2.663   0.255   2.851
 4280TP3      O24658   2.698   1.870   1.194
 4280TP3     H124659   2.785   1.834   1.178
 4280TP3     H224660   2.684   1.932   1.123
 4281TP3      O24661   2.042   1.329   1.096
 4281TP3     H124662   2.137   1.325   1.110
 4281TP3     H224663   2.026   1.262   1.029
 4282TP3      O24664   1.899   1.826   1.631
 4282TP3     H124665   1.849   1.789   1.558
 4282TP3     H224666   1.920   1.750   1.686
 4283TP3      O24667   1.964   1.616   1.796
 4283TP3     H124668   1.936   1.535   1.839
 4283TP3     H224669   2.017   1.661   1.861
 4284TP3      O24670   3.741   1.702   2.105
 4284TP3     H124671   3.732   1.712   2.200
 4284TP3     H224672   3.814   1.760   2.082
 4285TP3      O24673   3.677   1.684   2.377
 4285TP3     H124674   3.625   1.610   2.345
 4285TP3     H224675   3.728   1.648   2.449
 4286TP3      O24676   3.629   1.301   2.921
 4286TP3     H124677   3.626   1.371   2.855
 4286TP3     H224678   3.707   1.319   2.972
 4287TP3      O24679   3.677   1.105   1.400
 4287TP3     H124680   3.753   1.163   1.402
 4287TP3     H224681   3.693   1.042   1.471
 4288TP3      O24682   3.721   0.904   1.585
 4288TP3     H124683   3.636   0.869   1.611
 4288TP3     H224684   3.770   0.911   1.667
 4289TP3      O24685   3.714   1.196   2.105
 4289TP3     H124686   3.765   1.127   2.062
 4289TP3     H224687   3.740   1.276   2.060
 4290TP3      O24688   3.519   1.471   2.297
 4290TP3     H124689   3.446   1.517   2.337
 4290TP3     H224690   3.489   1.451   2.208
 4291TP3      O24691   3.727   0.911   1.212
 4291TP3     H124692   3.679   0.938   1.133
 4291TP3     H224693   3.705   0.979   1.276
 4292TP3      O24694   3.562   0.616   1.036
 4292TP3     H124695   3.555   0.679   0.963
 4292TP3     H224696   3.540   0.532   0.997
 4293TP3      O24697   3.475   0.787   1.631
 4293TP3     H124698   3.469   0.699   1.593
 4293TP3     H224699   3.433   0.778   1.717
 4294TP3      O24700   1.966   0.961   2.041
 4294TP3     H124701   1.976   0.946   1.947
 4294TP3     H224702   2.051   0.939   2.078
 4295TP3      O24703   3.594   0.977   2.615
 4295TP3     H124704   3.638   0.892   2.615
 4295TP3     H224705   3.628   1.022   2.538
 4296TP3      O24706   3.720   0.737   2.610
 4296TP3     H124707   3.632   0.700   2.610
 4296TP3     H224708   3.776   0.667   2.646
 4297TP3      O24709   3.493   0.373   0.927
 4297TP3     H124710   3.530   0.331   1.005
 4297TP3     H224711   3.400   0.348   0.929
 4298TP3      O24712   3.466   0.553   1.457
 4298TP3     H124713   3.492   0.461   1.463
 4298TP3     H224714   3.533   0.592   1.400
 4299TP3      O24715   3.502   0.573   2.015
 4299TP3     H124716   3.595   0.583   1.997
 4299TP3     H224717   3.494   0.591   2.109
 4300TP3      O24718   3.526   0.661   2.277
 4300TP3     H124719   3.447   0.681   2.326
 4300TP3     H224720   3.573   0.745   2.273
 4301TP3      O24721   1.965   0.510   2.682
 4301TP3     H124722   2.049   0.471   2.703
 4301TP3     H224723   1.908   0.436   2.660
 4302TP3      O24724   3.820   0.128   2.832
 4302TP3     H124725   3.855   0.056   2.780
 4302TP3     H224726   3.767   0.179   2.771
 4303TP3      O24727   3.520   0.287   1.486
 4303TP3     H124728   3.542   0.246   1.570
 4303TP3     H224729   3.453   0.229   1.449
 4304TP3      O24730   2.069   0.356   1.967
 4304TP3     H124731   2.119   0.277   1.945
 4304TP3     H224732   2.135   0.424   1.975
 4305TP3      O24733   1.888   0.633   2.016
 4305TP3     H124734   1.958   0.617   1.953
 4305TP3     H224735   1.907   0.720   2.052
 4306TP3      O24736   3.683   0.273   2.645
 4306TP3     H124737   3.604   0.315   2.679
 4306TP3     H224738   3.652   0.220   2.571
 4307TP3      O24739   3.660   0.281   1.128
 4307TP3     H124740   3.712   0.227   1.068
 4307TP3     H224741   3.723   0.339   1.169
 4308TP3      O24742   1.960   0.270   1.482
 4308TP3     H124743   1.877   0.249   1.439
 4308TP3     H224744   2.002   0.333   1.423
 4309TP3      O24745   3.424   1.748   1.639
 4309TP3     H124746   3.491   1.736   1.571
 4309TP3     H224747   3.470   1.787   1.713
 4310TP3      O24748   1.973   0.156   2.301
 4310TP3     H124749   1.931   0.075   2.330
 4310TP3     H224750   1.911   0.194   2.240
 4311TP3      O24751   2.166   1.483   2.694
 4311TP3     H124752   2.072   1.466   2.692
 4311TP3     H224753   2.186   1.494   2.787
 4312TP3      O24754   2.474   1.567   2.309
 4312TP3     H124755   2.441   1.654   2.288
 4312TP3     H224756   2.569   1.573   2.293
 4313TP3      O24757   2.847   1.693   2.612
 4313TP3     H124758   2.862   1.658   2.700
 4313TP3     H224759   2.926   1.745   2.593
 4314TP3      O24760   3.084   1.828   2.580
 4314TP3     H124761   3.151   1.782   2.529
 4314TP3     H224762   3.128   1.850   2.662
 4315TP3      O24763   3.602   0.087   2.443
 4315TP3     H124764   3.541   0.124   2.378
 4315TP3     H224765   3.628   0.003   2.407
 4316TP3      O24766   2.168   1.843   2.333
 4316TP3     H124767   2.093   1.890   2.296
 4316TP3     H224768   2.182   1.884   2.419
 4317TP3      O24769   2.427   1.830   2.248
 4317TP3     H124770   2.337   1.839   2.278
 4317TP3     H224771   2.431   1.884   2.169
 4318TP3      O24772   2.897   1.848   2.151
 4318TP3     H124773   2.827   1.878   2.094
 4318TP3     H224774   2.898   1.911   2.223
 4319TP3      O24775   3.096   1.693   2.255
 4319TP3     H124776   3.023   1.745   2.219
 4319TP3     H224777   3.173   1.746   2.237
 4320TP3      O24778   3.332   1.828   2.219
 4320TP3     H124779   3.357   1.918   2.199
 4320TP3     H224780   3.381   1.775   2.156
 4321TP3      O24781   2.118   1.723   2.005
 4321TP3     H124782   2.112   1.680   2.090
 4321TP3     H224783   2.199   1.689   1.967
 4322TP3      O24784   2.338   1.605   1.899
 4322TP3     H124785   2.326   1.512   1.920
 4322TP3     H224786   2.426   1.626   1.931
 4323TP3      O24787   2.602   1.625   2.000
 4323TP3     H124788   2.609   1.534   1.970
 4323TP3     H224789   2.641   1.624   2.088
 4324TP3      O24790   2.936   0.234   1.906
 4324TP3     H124791   2.869   0.168   1.923
 4324TP3     H224792   2.999   0.189   1.850
 4325TP3      O24793   3.387   0.086   1.869
 4325TP3     H124794   3.457   0.106   1.807
 4325TP3     H224795   3.306   0.105   1.821
 4326TP3      O24796   3.592   0.123   1.695
 4326TP3     H124797   3.622   0.058   1.632
 4326TP3     H224798   3.670   0.175   1.715
 4327TP3      O24799   2.149   0.129   1.636
 4327TP3     H124800   2.075   0.154   1.581
 4327TP3     H224801   2.166   0.038   1.613
 4328TP3      O24802   2.107   0.115   1.216
 4328TP3     H124803   2.166   0.170   1.165
 4328TP3     H224804   2.026   0.166   1.223
 4329TP3      O24805   2.662   0.072   1.668
 4329TP3     H124806   2.739   0.113   1.629
 4329TP3     H224807   2.675   0.081   1.762
 4330TP3      O24808   3.128   0.104   1.756
 4330TP3     H124809   3.128   0.102   1.660
 4330TP3     H224810   3.106   0.015   1.782
 4331TP3      O24811   3.313   0.117   1.405
 4331TP3     H124812   3.239   0.177   1.412
 4331TP3     H224813   3.273   0.030   1.408
 4332TP3      O24814   2.044   1.692   1.323
 4332TP3     H124815   1.971   1.682   1.262
 4332TP3     H224816   2.068   1.784   1.316
 4333TP3      O24817   2.285   0.254   1.066
 4333TP3     H124818   2.336   0.207   1.000
 4333TP3     H224819   2.350   0.281   1.132
 4334TP3      O24820   2.730   0.293   1.347
 4334TP3     H124821   2.770   0.226   1.402
 4334TP3     H224822   2.747   0.375   1.393
 4335TP3      O24823   2.942   1.756   1.160
 4335TP3     H124824   3.036   1.772   1.150
 4335TP3     H224825   2.919   1.703   1.083
 4336TP3      O24826   3.615   1.726   1.446
 4336TP3     H124827   3.593   1.639   1.413
 4336TP3     H224828   3.595   1.785   1.374
 4337TP3      O24829   2.240   0.156   2.548
 4337TP3     H124830   2.163   0.100   2.561
 4337TP3     H224831   2.308   0.118   2.603
 4338TP3      O24832   2.435   0.078   2.714
 4338TP3     H124833   2.522   0.085   2.677
 4338TP3     H224834   2.439  -0.001   2.769
 4339TP3      O24835   2.242   1.731   1.014
 4339TP3     H124836   2.218   1.713   1.105
 4339TP3     H224837   2.319   1.676   0.998
 4340TP3      O24838   3.206   5.558   2.830
 4340TP3     H124839   3.194   5.513   2.914
 4340TP3     H224840   3.270   5.505   2.783
 4341TP3      O24841   3.504   1.589   2.644
 4341TP3     H124842   3.443   1.592   2.571
 4341TP3     H224843   3.499   1.677   2.683
 4342TP3      O24844   4.973   1.019   1.631
 4342TP3     H124845   4.965   1.113   1.615
 4342TP3     H224846   4.905   0.980   1.576
 4343TP3      O24847   4.852   0.928   2.030
 4343TP3     H124848   4.882   0.879   2.107
 4343TP3     H224849   4.808   0.862   1.976
 4344TP3      O24850   4.078   0.855   2.149
 4344TP3     H124851   4.087   0.786   2.214
 4344TP3     H224852   4.168   0.876   2.122
 4345TP3      O24853   5.236   1.235   1.852
 4345TP3     H124854   5.209   1.153   1.893
 4345TP3     H224855   5.255   1.294   1.926
 4346TP3      O24856   4.220   1.339   1.963
 4346TP3     H124857   4.189   1.251   1.940
 4346TP3     H224858   4.314   1.329   1.974
 4347TP3      O24859   3.856   0.671   1.500
 4347TP3     H124860   3.823   0.755   1.532
 4347TP3     H224861   3.796   0.646   1.430
 4348TP3      O24862   3.912   0.904   1.790
 4348TP3     H124863   3.944   0.817   1.809
 4348TP3     H224864   3.991   0.957   1.777
 4349TP3      O24865   4.969   1.701   1.892
 4349TP3     H124866   5.002   1.649   1.819
 4349TP3     H224867   4.943   1.636   1.958
 4350TP3      O24868   4.701   1.176   2.035
 4350TP3     H124869   4.738   1.093   2.003
 4350TP3     H224870   4.771   1.213   2.089
 4351TP3      O24871   5.010   0.589   2.051
 4351TP3     H124872   5.036   0.498   2.065
 4351TP3     H224873   4.998   0.596   1.956
 4352TP3      O24874   4.370   0.410   1.785
 4352TP3     H124875   4.374   0.496   1.742
 4352TP3     H224876   4.322   0.354   1.724
 4353TP3      O24877   5.116   0.446   1.616
 4353TP3     H124878   5.160   0.417   1.695
 4353TP3     H224879   5.186   0.481   1.561
 4354TP3      O24880   4.007   0.656   1.858
 4354TP3     H124881   4.075   0.618   1.914
 4354TP3     H224882   4.027   0.623   1.771
 4355TP3      O24883   4.476   0.800   1.834
 4355TP3     H124884   4.563   0.766   1.857
 4355TP3     H224885   4.441   0.736   1.773
 4356TP3      O24886   4.219   0.335   2.216
 4356TP3     H124887   4.193   0.385   2.138
 4356TP3     H224888   4.144   0.343   2.275
 4357TP3      O24889   4.953   1.273   1.522
 4357TP3     H124890   4.930   1.265   1.429
 4357TP3     H224891   4.902   1.347   1.553
 4358TP3      O24892   4.483   1.091   2.180
 4358TP3     H124893   4.431   1.163   2.215
 4358TP3     H224894   4.553   1.134   2.130
 4359TP3      O24895   5.239   0.395   1.844
 4359TP3     H124896   5.255   0.307   1.878
 4359TP3     H224897   5.283   0.453   1.906
 4360TP3      O24898   4.198   0.497   1.987
 4360TP3     H124899   4.258   0.549   2.041
 4360TP3     H224900   4.255   0.456   1.922
 4361TP3      O24901   4.333   1.297   2.289
 4361TP3     H124902   4.336   1.392   2.276
 4361TP3     H224903   4.242   1.280   2.315
 4362TP3      O24904   3.904   1.268   1.374
 4362TP3     H124905   3.897   1.306   1.286
 4362TP3     H224906   3.929   1.341   1.430
 4363TP3      O24907   5.257   1.423   2.063
 4363TP3     H124908   5.164   1.438   2.077
 4363TP3     H224909   5.294   1.510   2.049
 4364TP3      O24910   5.316   0.262   2.155
 4364TP3     H124911   5.226   0.293   2.160
 4364TP3     H224912   5.320   0.215   2.071
 4365TP3      O24913   4.587   0.075   1.940
 4365TP3     H124914   4.571  -0.019   1.947
 4365TP3     H224915   4.514   0.116   1.986
 4366TP3      O24916   5.089   1.590   1.669
 4366TP3     H124917   5.134   1.506   1.653
 4366TP3     H224918   5.159   1.654   1.671
 4367TP3      O24919   5.208   1.356   1.606
 4367TP3     H124920   5.133   1.310   1.569
 4367TP3     H224921   5.229   1.307   1.685
 4368TP3      O24922   5.379   1.166   2.424
 4368TP3     H124923   5.378   1.114   2.344
 4368TP3     H224924   5.402   1.254   2.396
 4369TP3      O24925   4.825   0.924   1.415
 4369TP3     H124926   4.759   0.986   1.385
 4369TP3     H224927   4.891   0.925   1.346
 4370TP3      O24928   4.868   0.794   1.062
 4370TP3     H124929   4.921   0.817   1.139
 4370TP3     H224930   4.922   0.732   1.014
 4371TP3      O24931   5.191   0.959   1.481
 4371TP3     H124932   5.123   0.981   1.544
 4371TP3     H224933   5.251   0.903   1.529
 4372TP3      O24934   5.141   0.738   2.426
 4372TP3     H124935   5.129   0.805   2.494
 4372TP3     H224936   5.076   0.760   2.359
 4373TP3      O24937   4.346   0.994   1.677
 4373TP3     H124938   4.320   0.956   1.593
 4373TP3     H224939   4.397   0.926   1.719
 4374TP3      O24940   4.501   1.354   1.937
 4374TP3     H124941   4.498   1.359   1.841
 4374TP3     H224942   4.574   1.295   1.956
 4375TP3      O24943   4.338   0.897   2.052
 4375TP3     H124944   4.390   0.869   1.977
 4375TP3     H224945   4.391   0.963   2.096
 4376TP3      O24946   4.997   1.467   2.136
 4376TP3     H124947   4.998   1.507   2.223
 4376TP3     H224948   4.967   1.377   2.151
 4377TP3      O24949   4.478   1.327   2.519
 4377TP3     H124950   4.416   1.384   2.563
 4377TP3     H224951   4.434   1.301   2.438
 4378TP3      O24952   5.054   0.877   1.259
 4378TP3     H124953   5.104   0.911   1.334
 4378TP3     H224954   5.105   0.903   1.182
 4379TP3      O24955   4.165   0.915   2.473
 4379TP3     H124956   4.174   0.997   2.523
 4379TP3     H224957   4.072   0.909   2.454
 4380TP3      O24958   4.837   1.513   1.593
 4380TP3     H124959   4.920   1.547   1.627
 4380TP3     H224960   4.799   1.586   1.544
 4381TP3      O24961   4.280   1.505   2.603
 4381TP3     H124962   4.279   1.535   2.513
 4381TP3     H224963   4.188   1.489   2.625
 4382TP3      O24964   5.443   0.070   1.259
 4382TP3     H124965   5.350   0.081   1.280
 4382TP3     H224966   5.454   0.116   1.176
 4383TP3      O24967   4.259   0.905   1.423
 4383TP3     H124968   4.201   0.970   1.383
 4383TP3     H224969   4.215   0.821   1.408
 4384TP3      O24970   3.858   1.157   2.345
 4384TP3     H124971   3.807   1.166   2.265
 4384TP3     H224972   3.872   1.063   2.355
 4385TP3      O24973   3.827   1.441   2.016
 4385TP3     H124974   3.916   1.436   2.050
 4385TP3     H224975   3.789   1.518   2.058
 4386TP3      O24976   4.716   1.448   2.465
 4386TP3     H124977   4.712   1.531   2.511
 4386TP3     H224978   4.632   1.406   2.483
 4387TP3      O24979   4.812   1.792   1.452
 4387TP3     H124980   4.782   1.796   1.361
 4387TP3     H224981   4.779   1.873   1.491
 4388TP3      O24982   4.155   1.684   1.642
 4388TP3     H124983   4.173   1.652   1.730
 4388TP3     H224984   4.098   1.617   1.602
 4389TP3      O24985   5.091   1.761   1.134
 4389TP3     H124986   5.135   1.685   1.096
 4389TP3     H224987   5.101   1.749   1.228
 4390TP3      O24988   5.071   1.727   1.408
 4390TP3     H124989   4.979   1.745   1.426
 4390TP3     H224990   5.096   1.662   1.474
 4391TP3      O24991   5.291   0.655   2.669
 4391TP3     H124992   5.272   0.669   2.576
 4391TP3     H224993   5.374   0.608   2.669
 4392TP3      O24994   4.083   1.301   2.405
 4392TP3     H124995   4.109   1.261   2.488
 4392TP3     H224996   4.004   1.254   2.379
 4393TP3      O24997   4.350   0.140   2.073
 4393TP3     H124998   4.287   0.129   2.001
 4393TP3     H224999   4.308   0.202   2.132
 4394TP3      O25000   4.810   0.081   2.392
 4394TP3     H125001   4.810   0.040   2.479
 4394TP3     H225002   4.718   0.098   2.374
 4395TP3      O25003   5.124   0.458   2.462
 4395TP3     H125004   5.060   0.449   2.532
 4395TP3     H225005   5.128   0.552   2.445
 4396TP3      O25006   5.198   0.934   1.044
 4396TP3     H125007   5.179   0.942   0.950
 4396TP3     H225008   5.293   0.946   1.049
 4397TP3      O25009   4.765   0.337   1.119
 4397TP3     H125010   4.709   0.323   1.196
 4397TP3     H225011   4.731   0.276   1.054
 4398TP3      O25012   4.349   0.644   2.165
 4398TP3     H125013   4.280   0.642   2.232
 4398TP3     H225014   4.349   0.735   2.135
 4399TP3      O25015   4.346   0.645   1.648
 4399TP3     H125016   4.251   0.634   1.643
 4399TP3     H225017   4.377   0.626   1.559
 4400TP3      O25018   4.883   0.678   1.520
 4400TP3     H125019   4.859   0.764   1.487
 4400TP3     H225020   4.953   0.648   1.462
 4401TP3      O25021   4.797   0.688   2.645
 4401TP3     H125022   4.750   0.611   2.680
 4401TP3     H225023   4.883   0.684   2.687
 4402TP3      O25024   4.978   0.622   1.780
 4402TP3     H125025   4.936   0.671   1.710
 4402TP3     H225026   5.020   0.548   1.736
 4403TP3      O25027   4.128   0.644   2.329
 4403TP3     H125028   4.128   0.691   2.412
 4403TP3     H225029   4.084   0.561   2.348
 4404TP3      O25030   4.454   0.387   1.005
 4404TP3     H125031   4.422   0.377   1.095
 4404TP3     H225032   4.396   0.452   0.966
 4405TP3      O25033   3.796   0.298   1.732
 4405TP3     H125034   3.840   0.328   1.812
 4405TP3     H225035   3.849   0.335   1.661
 4406TP3      O25036   3.845   0.446   1.248
 4406TP3     H125037   3.911   0.484   1.190
 4406TP3     H225038   3.784   0.518   1.266
 4407TP3      O25039   4.933   0.764   2.239
 4407TP3     H125040   4.968   0.705   2.172
 4407TP3     H225041   4.871   0.709   2.287
 4408TP3      O25042   4.657   0.391   1.748
 4408TP3     H125043   4.566   0.387   1.778
 4408TP3     H225044   4.708   0.355   1.821
 4409TP3      O25045   4.085   0.568   1.614
 4409TP3     H125046   4.009   0.593   1.562
 4409TP3     H225047   4.111   0.482   1.580
 4410TP3      O25048   4.413   0.574   1.393
 4410TP3     H125049   4.507   0.566   1.408
 4410TP3     H225050   4.406   0.614   1.307
 4411TP3      O25051   5.031   0.314   2.095
 4411TP3     H125052   4.977   0.326   2.173
 4411TP3     H225053   4.969   0.288   2.027
 4412TP3      O25054   4.380   0.667   1.141
 4412TP3     H125055   4.326   0.643   1.066
 4412TP3     H225056   4.456   0.711   1.103
 4413TP3      O25057   5.437   1.879   2.736
 4413TP3     H125058   5.429   1.899   2.643
 4413TP3     H225059   5.524   1.840   2.745
 4414TP3      O25060   4.163   1.151   2.637
 4414TP3     H125061   4.223   1.168   2.710
 4414TP3     H225062   4.077   1.139   2.679
 4415TP3      O25063   4.717   0.692   1.929
 4415TP3     H125064   4.785   0.642   1.885
 4415TP3     H225065   4.687   0.635   2.000
 4416TP3      O25066   4.212   0.317   1.570
 4416TP3     H125067   4.151   0.248   1.594
 4416TP3     H225068   4.255   0.285   1.490
 4417TP3      O25069   4.609   0.556   2.151
 4417TP3     H125070   4.524   0.597   2.161
 4417TP3     H225071   4.658   0.581   2.230
 4418TP3      O25072   4.635   1.113   1.335
 4418TP3     H125073   4.564   1.074   1.284
 4418TP3     H225074   4.594   1.137   1.418
 4419TP3      O25075   5.362   1.029   2.191
 4419TP3     H125076   5.442   1.011   2.142
 4419TP3     H225077   5.292   1.024   2.126
 4420TP3      O25078   5.019   0.385   1.188
 4420TP3     H125079   4.927   0.380   1.163
 4420TP3     H225080   5.030   0.472   1.225
 4421TP3      O25081   4.832   1.171   2.463
 4421TP3     H125082   4.833   1.122   2.545
 4421TP3     H225083   4.781   1.250   2.482
 4422TP3      O25084   5.085   0.611   1.335
 4422TP3     H125085   5.174   0.592   1.366
 4422TP3     H225086   5.090   0.700   1.301
 4423TP3      O25087   4.183   1.072   1.885
 4423TP3     H125088   4.236   1.055   1.806
 4423TP3     H225089   4.217   1.010   1.950
 4424TP3      O25090   4.847   1.265   1.262
 4424TP3     H125091   4.814   1.354   1.268
 4424TP3     H225092   4.771   1.210   1.284
 4425TP3      O25093   3.881   0.890   2.436
 4425TP3     H125094   3.860   0.836   2.512
 4425TP3     H225095   3.814   0.868   2.371
 4426TP3      O25096   4.584   0.872   2.666
 4426TP3     H125097   4.520   0.832   2.607
 4426TP3     H225098   4.663   0.819   2.654
 4427TP3      O25099   4.995   1.461   2.445
 4427TP3     H125100   4.902   1.449   2.425
 4427TP3     H225101   5.000   1.451   2.540
 4428TP3      O25102   5.423   1.460   1.336
 4428TP3     H125103   5.361   1.402   1.380
 4428TP3     H225104   5.465   1.405   1.270
 4429TP3      O25105   5.148   0.996   2.000
 4429TP3     H125106   5.053   0.989   1.990
 4429TP3     H225107   5.182   0.918   1.957
 4430TP3      O25108   4.426   1.423   1.673
 4430TP3     H125109   4.449   1.508   1.635
 4430TP3     H225110   4.331   1.421   1.671
 4431TP3      O25111   3.986   0.875   1.133
 4431TP3     H125112   4.034   0.941   1.183
 4431TP3     H225113   3.895   0.884   1.162
 4432TP3      O25114   4.506   1.186   1.556
 4432TP3     H125115   4.490   1.271   1.599
 4432TP3     H225116   4.451   1.124   1.605
 4433TP3      O25117   4.611   1.597   2.244
 4433TP3     H125118   4.671   1.668   2.221
 4433TP3     H225119   4.664   1.537   2.297
 4434TP3      O25120   4.417   1.684   1.563
 4434TP3     H125121   4.324   1.697   1.581
 4434TP3     H225122   4.460   1.763   1.597
 4435TP3      O25123   4.921   1.210   2.207
 4435TP3     H125124   4.889   1.188   2.294
 4435TP3     H225125   4.974   1.135   2.181
 4436TP3      O25126   5.215   1.294   1.111
 4436TP3     H125127   5.233   1.250   1.194
 4436TP3     H225128   5.127   1.267   1.088
 4437TP3      O25129   5.225   1.621   2.430
 4437TP3     H125130   5.143   1.571   2.420
 4437TP3     H225131   5.217   1.692   2.367
 4438TP3      O25132   4.004   0.399   2.384
 4438TP3     H125133   3.911   0.419   2.374
 4438TP3     H225134   4.006   0.320   2.438
 4439TP3      O25135   5.306   1.170   1.340
 4439TP3     H125136   5.255   1.104   1.387
 4439TP3     H225137   5.396   1.159   1.372
 4440TP3      O25138   4.014   1.567   2.234
 4440TP3     H125139   4.040   1.487   2.281
 4440TP3     H225140   4.027   1.637   2.297
 4441TP3      O25141   4.573   1.397   0.978
 4441TP3     H125142   4.576   1.312   0.933
 4441TP3     H225143   4.530   1.379   1.061
 4442TP3      O25144   4.445   1.375   1.222
 4442TP3     H125145   4.488   1.322   1.288
 4442TP3     H225146   4.457   1.465   1.252
 4443TP3      O25147   4.094   1.082   1.289
 4443TP3     H125148   4.024   1.129   1.333
 4443TP3     H225149   4.139   1.148   1.237
 4444TP3      O25150   4.901   0.343   2.333
 4444TP3     H125151   4.980   0.363   2.383
 4444TP3     H225152   4.875   0.256   2.364
 4445TP3      O25153   4.990   0.279   1.442
 4445TP3     H125154   4.998   0.317   1.354
 4445TP3     H225155   5.030   0.345   1.500
 4446TP3      O25156   4.747   1.514   1.280
 4446TP3     H125157   4.658   1.545   1.298
 4446TP3     H225158   4.792   1.590   1.245
 4447TP3      O25159   4.666   0.513   1.500
 4447TP3     H125160   4.741   0.572   1.504
 4447TP3     H225161   4.658   0.479   1.589
 4448TP3      O25162   4.772   0.592   2.375
 4448TP3     H125163   4.777   0.615   2.468
 4448TP3     H225164   4.809   0.504   2.370
 4449TP3      O25165   4.765   0.198   1.569
 4449TP3     H125166   4.751   0.274   1.626
 4449TP3     H225167   4.847   0.217   1.524
 4450TP3      O25168   4.500   1.628   1.309
 4450TP3     H125169   4.505   1.712   1.265
 4450TP3     H225170   4.469   1.649   1.397
 4451TP3      O25171   4.359   0.331   1.261
 4451TP3     H125172   4.349   0.414   1.308
 4451TP3     H225173   4.445   0.299   1.288
 4452TP3      O25174   5.380   0.351   2.459
 4452TP3     H125175   5.291   0.382   2.472
 4452TP3     H225176   5.399   0.368   2.367
 4453TP3      O25177   5.216   0.753   1.883
 4453TP3     H125178   5.133   0.713   1.855
 4453TP3     H225179   5.257   0.687   1.938
 4454TP3      O25180   4.195   1.291   1.131
 4454TP3     H125181   4.269   1.338   1.169
 4454TP3     H225182   4.235   1.235   1.064
 4455TP3      O25183   3.976   0.604   1.072
 4455TP3     H125184   3.989   0.697   1.092
 4455TP3     H225185   3.928   0.604   0.989
 4456TP3      O25186   5.375   1.674   2.059
 4456TP3     H125187   5.367   1.745   1.994
 4456TP3     H225188   5.457   1.630   2.035
 4457TP3      O25189   4.115   0.144   1.902
 4457TP3     H125190   4.094   0.138   1.809
 4457TP3     H225191   4.073   0.066   1.940
 4458TP3      O25192   3.967   1.507   1.523
 4458TP3     H125193   3.904   1.532   1.590
 4458TP3     H225194   3.954   1.570   1.452
 4459TP3      O25195   3.924   1.792   2.689
 4459TP3     H125196   3.987   1.767   2.756
 4459TP3     H225197   3.881   1.711   2.663
 4460TP3      O25198   4.362   1.576   2.857
 4460TP3     H125199   4.442   1.524   2.859
 4460TP3     H225200   4.328   1.564   2.768
 4461TP3      O25201   4.773   1.582   0.959
 4461TP3     H125202   4.705   1.516   0.972
 4461TP3     H225203   4.849   1.533   0.928
 4462TP3      O25204   4.997   1.434   2.722
 4462TP3     H125205   4.976   1.354   2.770
 4462TP3     H225206   5.092   1.441   2.727
 4463TP3      O25207   5.205   1.550   1.014
 4463TP3     H125208   5.221   1.466   1.057
 4463TP3     H225209   5.273   1.556   0.947
 4464TP3      O25210   3.913   1.099   2.735
 4464TP3     H125211   3.897   1.013   2.697
 4464TP3     H225212   3.842   1.153   2.703
 4465TP3      O25213   4.330   1.115   0.976
 4465TP3     H125214   4.356   1.066   1.053
 4465TP3     H225215   4.412   1.129   0.928
 4466TP3      O25216   4.581   1.149   2.704
 4466TP3     H125217   4.548   1.187   2.622
 4466TP3     H225218   4.594   1.057   2.684
 4467TP3      O25219   4.959   1.245   1.014
 4467TP3     H125220   4.912   1.245   1.097
 4467TP3     H225221   4.932   1.164   0.970
 4468TP3      O25222   5.133   1.184   2.534
 4468TP3     H125223   5.217   1.186   2.488
 4468TP3     H225224   5.071   1.225   2.474
 4469TP3      O25225   4.011   0.824   2.715
 4469TP3     H125226   4.097   0.784   2.700
 4469TP3     H225227   4.016   0.860   2.803
 4470TP3      O25228   4.433   0.984   1.200
 4470TP3     H125229   4.384   0.937   1.268
 4470TP3     H225230   4.483   0.916   1.155
 4471TP3      O25231   4.399   0.768   2.483
 4471TP3     H125232   4.320   0.820   2.474
 4471TP3     H225233   4.457   0.800   2.414
 4472TP3      O25234   4.589   0.813   1.046
 4472TP3     H125235   4.584   0.839   0.954
 4472TP3     H225236   4.683   0.800   1.061
 4473TP3      O25237   4.900   1.001   2.764
 4473TP3     H125238   4.966   0.954   2.713
 4473TP3     H225239   4.867   0.936   2.826
 4474TP3      O25240   5.465   0.997   1.006
 4474TP3     H125241   5.457   0.972   0.914
 4474TP3     H225242   5.454   1.092   1.007
 4475TP3      O25243   4.447   0.510   2.559
 4475TP3     H125244   4.452   0.456   2.480
 4475TP3     H225245   4.430   0.599   2.526
 4476TP3      O25246   4.470   0.368   2.319
 4476TP3     H125247   4.521   0.414   2.252
 4476TP3     H225248   4.382   0.363   2.284
 4477TP3      O25249   4.577   0.870   2.310
 4477TP3     H125250   4.673   0.871   2.302
 4477TP3     H225251   4.548   0.950   2.266
 4478TP3      O25252   5.042   0.644   2.798
 4478TP3     H125253   5.042   0.549   2.815
 4478TP3     H225254   5.125   0.660   2.753
 4479TP3      O25255   5.149   0.933   2.633
 4479TP3     H125256   5.138   1.021   2.596
 4479TP3     H225257   5.244   0.921   2.638
 4480TP3      O25258   4.284   0.581   2.777
 4480TP3     H125259   4.209   0.523   2.763
 4480TP3     H225260   4.345   0.559   2.706
 4481TP3      O25261   4.534   0.104   2.337
 4481TP3     H125262   4.520   0.198   2.345
 4481TP3     H225263   4.483   0.077   2.261
 4482TP3      O25264   4.665   0.455   2.712
 4482TP3     H125265   4.633   0.410   2.790
 4482TP3     H225266   4.588   0.470   2.658
 4483TP3      O25267   4.923   0.407   2.634
 4483TP3     H125268   4.831   0.414   2.658
 4483TP3     H225269   4.965   0.369   2.711
 4484TP3      O25270   5.050   0.320   2.856
 4484TP3     H125271   5.065   0.231   2.823
 4484TP3     H225272   5.039   0.309   2.951
 4485TP3      O25273   4.083   0.396   2.747
 4485TP3     H125274   4.071   0.331   2.678
 4485TP3     H225275   4.110   0.346   2.824
 4486TP3      O25276   4.506   0.008   2.602
 4486TP3     H125277   4.596  -0.025   2.610
 4486TP3     H225278   4.499   0.035   2.511
 4487TP3      O25279   4.657   0.095   2.830
 4487TP3     H125280   4.582   0.115   2.774
 4487TP3     H225281   4.649   0.155   2.904
 4488TP3      O25282   4.573   1.867   1.188
 4488TP3     H125283   4.661   1.832   1.175
 4488TP3     H225284   4.562   1.931   1.118
 4489TP3      O25285   3.929   1.332   1.091
 4489TP3     H125286   4.023   1.326   1.108
 4489TP3     H225287   3.912   1.263   1.026
 4490TP3      O25288   3.796   1.827   1.624
 4490TP3     H125289   3.743   1.792   1.552
 4490TP3     H225290   3.814   1.751   1.680
 4491TP3      O25291   3.859   1.616   1.786
 4491TP3     H125292   3.823   1.539   1.830
 4491TP3     H225293   3.908   1.661   1.855
 4492TP3      O25294   5.321   1.285   2.853
 4492TP3     H125295   5.266   1.209   2.868
 4492TP3     H225296   5.325   1.294   2.758
 4493TP3      O25297   5.386   1.415   2.318
 4493TP3     H125298   5.342   1.494   2.349
 4493TP3     H225299   5.360   1.409   2.226
 4494TP3      O25300   5.484   0.601   1.017
 4494TP3     H125301   5.440   0.649   0.946
 4494TP3     H225302   5.446   0.513   1.012
 4495TP3      O25303   5.331   0.779   1.633
 4495TP3     H125304   5.317   0.688   1.608
 4495TP3     H225305   5.305   0.783   1.725
 4496TP3      O25306   3.852   0.963   2.049
 4496TP3     H125307   3.859   0.947   1.955
 4496TP3     H225308   3.935   0.933   2.085
 4497TP3      O25309   5.436   0.979   2.615
 4497TP3     H125310   5.501   0.923   2.572
 4497TP3     H225311   5.414   1.045   2.549
 4498TP3      O25312   5.367   0.358   0.969
 4498TP3     H125313   5.406   0.287   0.918
 4498TP3     H225314   5.273   0.347   0.956
 4499TP3      O25315   5.330   0.535   1.464
 4499TP3     H125316   5.353   0.442   1.472
 4499TP3     H225317   5.414   0.580   1.460
 4500TP3      O25318   5.349   0.558   2.029
 4500TP3     H125319   5.436   0.597   2.022
 4500TP3     H225320   5.342   0.531   2.121
 4501TP3      O25321   5.378   0.638   2.305
 4501TP3     H125322   5.299   0.683   2.337
 4501TP3     H225323   5.420   0.703   2.248
 4502TP3      O25324   3.836   0.507   2.709
 4502TP3     H125325   3.925   0.471   2.715
 4502TP3     H225326   3.782   0.431   2.686
 4503TP3      O25327   5.376   0.267   1.504
 4503TP3     H125328   5.398   0.223   1.586
 4503TP3     H225329   5.317   0.206   1.460
 4504TP3      O25330   3.947   0.354   1.960
 4504TP3     H125331   4.001   0.275   1.948
 4504TP3     H225332   4.011   0.424   1.976
 4505TP3      O25333   3.771   0.630   2.010
 4505TP3     H125334   3.843   0.629   1.946
 4505TP3     H225335   3.802   0.688   2.080
 4506TP3      O25336   3.844   0.246   1.431
 4506TP3     H125337   3.750   0.233   1.446
 4506TP3     H225338   3.848   0.322   1.373
 4507TP3      O25339   5.279   1.776   1.651
 4507TP3     H125340   5.334   1.757   1.575
 4507TP3     H225341   5.340   1.803   1.719
 4508TP3      O25342   3.840   0.137   2.290
 4508TP3     H125343   3.776   0.127   2.361
 4508TP3     H225344   3.799   0.198   2.229
 4509TP3      O25345   4.024   1.470   2.713
 4509TP3     H125346   3.939   1.487   2.671
 4509TP3     H225347   4.001   1.425   2.795
 4510TP3      O25348   4.351   1.575   2.330
 4510TP3     H125349   4.319   1.661   2.302
 4510TP3     H225350   4.444   1.575   2.308
 4511TP3      O25351   4.723   1.690   2.603
 4511TP3     H125352   4.739   1.654   2.690
 4511TP3     H225353   4.804   1.735   2.581
 4512TP3      O25354   4.956   1.818   2.539
 4512TP3     H125355   4.981   1.782   2.454
 4512TP3     H225356   5.039   1.837   2.582
 4513TP3      O25357   5.419   0.078   2.509
 4513TP3     H125358   5.403   0.172   2.506
 4513TP3     H225359   5.457   0.058   2.424
 4514TP3      O25360   4.052   1.858   2.336
 4514TP3     H125361   3.973   1.896   2.297
 4514TP3     H225362   4.062   1.906   2.419
 4515TP3      O25363   4.309   1.834   2.249
 4515TP3     H125364   4.217   1.845   2.274
 4515TP3     H225365   4.317   1.880   2.166
 4516TP3      O25366   4.764   1.811   2.158
 4516TP3     H125367   4.716   1.842   2.081
 4516TP3     H225368   4.770   1.887   2.215
 4517TP3      O25369   5.002   1.740   2.282
 4517TP3     H125370   4.926   1.751   2.224
 4517TP3     H225371   5.074   1.784   2.235
 4518TP3      O25372   5.257   1.853   2.234
 4518TP3     H125373   5.268   1.940   2.195
 4518TP3     H225374   5.298   1.793   2.172
 4519TP3      O25375   4.016   1.720   2.003
 4519TP3     H125376   4.010   1.673   2.086
 4519TP3     H225377   4.094   1.684   1.960
 4520TP3      O25378   4.230   1.599   1.892
 4520TP3     H125379   4.218   1.507   1.916
 4520TP3     H225380   4.317   1.621   1.923
 4521TP3      O25381   4.489   1.626   1.996
 4521TP3     H125382   4.500   1.537   1.964
 4521TP3     H225383   4.520   1.623   2.086
 4522TP3      O25384   4.829   0.231   1.911
 4522TP3     H125385   4.759   0.167   1.924
 4522TP3     H225386   4.895   0.185   1.860
 4523TP3      O25387   5.289   0.126   1.912
 4523TP3     H125388   5.354   0.122   1.842
 4523TP3     H225389   5.205   0.111   1.868
 4524TP3      O25390   5.480   0.122   1.715
 4524TP3     H125391   5.487   0.044   1.659
 4524TP3     H225392   5.565   0.128   1.758
 4525TP3      O25393   4.040   0.120   1.633
 4525TP3     H125394   3.958   0.127   1.584
 4525TP3     H225395   4.066   0.029   1.622
 4526TP3      O25396   4.011   0.103   1.246
 4526TP3     H125397   4.050   0.167   1.186
 4526TP3     H225398   3.956   0.156   1.304
 4527TP3      O25399   4.543   0.075   1.666
 4527TP3     H125400   4.621   0.115   1.628
 4527TP3     H225401   4.556   0.084   1.761
 4528TP3      O25402   5.038   0.099   1.777
 4528TP3     H125403   5.042   0.105   1.682
 4528TP3     H225404   5.009   0.010   1.795
 4529TP3      O25405   5.194   0.103   1.378
 4529TP3     H125406   5.121   0.165   1.384
 4529TP3     H225407   5.153   0.017   1.386
 4530TP3      O25408   3.931   1.688   1.323
 4530TP3     H125409   3.855   1.679   1.266
 4530TP3     H225410   3.956   1.780   1.315
 4531TP3      O25411   4.168   0.252   1.072
 4531TP3     H125412   4.218   0.203   1.007
 4531TP3     H225413   4.233   0.278   1.137
 4532TP3      O25414   4.615   0.291   1.349
 4532TP3     H125415   4.656   0.224   1.403
 4532TP3     H225416   4.632   0.373   1.395
 4533TP3      O25417   4.819   1.758   1.159
 4533TP3     H125418   4.913   1.776   1.150
 4533TP3     H225419   4.798   1.705   1.083
 4534TP3      O25420   5.438   1.711   1.434
 4534TP3     H125421   5.428   1.622   1.400
 4534TP3     H225422   5.424   1.767   1.358
 4535TP3      O25423   4.049   0.183   2.580
 4535TP3     H125424   3.984   0.112   2.582
 4535TP3     H225425   4.126   0.145   2.623
 4536TP3      O25426   4.260   0.088   2.731
 4536TP3     H125427   4.337   0.092   2.673
 4536TP3     H225428   4.269   0.005   2.778
 4537TP3      O25429   4.124   1.732   1.013
 4537TP3     H125430   4.101   1.719   1.105
 4537TP3     H225431   4.201   1.677   1.000
 4538TP3      O25432   5.089   0.055   2.765
 4538TP3     H125433   5.111   0.036   2.857
 4538TP3     H225434   5.160   0.015   2.715
 4539TP3      O25435   5.262   1.599   2.701
 4539TP3     H125436   5.252   1.599   2.606
 4539TP3     H225437   5.353   1.624   2.716
 4540TP3      O25438   1.211   2.898   1.625
 4540TP3     H125439   1.195   2.992   1.615
 4540TP3     H225440   1.141   2.856   1.576
 4541TP3      O25441   1.086   2.800   2.025
 4541TP3     H125442   1.110   2.761   2.109
 4541TP3     H225443   1.033   2.733   1.981
 4542TP3      O25444   0.310   2.742   2.150
 4542TP3     H125445   0.321   2.667   2.208
 4542TP3     H225446   0.400   2.764   2.124
 4543TP3      O25447   1.506   3.087   1.870
 4543TP3     H125448   1.432   3.036   1.902
 4543TP3     H225449   1.502   3.168   1.920
 4544TP3      O25450   0.438   3.212   1.959
 4544TP3     H125451   0.412   3.124   1.934
 4544TP3     H225452   0.532   3.206   1.976
 4545TP3      O25453   0.053   2.522   1.546
 4545TP3     H125454   0.027   2.604   1.587
 4545TP3     H225455   0.046   2.457   1.615
 4546TP3      O25456   0.169   2.798   1.802
 4546TP3     H125457   0.206   2.711   1.811
 4546TP3     H225458   0.244   2.857   1.808
 4547TP3      O25459   1.199   3.604   1.873
 4547TP3     H125460   1.237   3.543   1.810
 4547TP3     H225461   1.155   3.548   1.937
 4548TP3      O25462   0.931   3.057   2.040
 4548TP3     H125463   0.969   2.979   2.000
 4548TP3     H225464   0.998   3.088   2.100
 4549TP3      O25465   1.828   2.193   2.126
 4549TP3     H125466   1.836   2.259   2.195
 4549TP3     H225467   1.898   2.215   2.064
 4550TP3      O25468   1.243   2.477   2.045
 4550TP3     H125469   1.253   2.383   2.056
 4550TP3     H225470   1.230   2.489   1.951
 4551TP3      O25471   0.601   2.287   1.771
 4551TP3     H125472   0.606   2.373   1.729
 4551TP3     H225473   0.549   2.234   1.711
 4552TP3      O25474   1.370   2.317   1.623
 4552TP3     H125475   1.413   2.291   1.704
 4552TP3     H225476   1.441   2.353   1.569
 4553TP3      O25477   0.261   2.540   1.842
 4553TP3     H125478   0.321   2.491   1.899
 4553TP3     H225479   0.278   2.507   1.754
 4554TP3      O25480   0.709   2.684   1.829
 4554TP3     H125481   0.794   2.649   1.856
 4554TP3     H225482   0.675   2.620   1.767
 4555TP3      O25483   1.819   2.370   2.333
 4555TP3     H125484   1.757   2.443   2.339
 4555TP3     H225485   1.868   2.374   2.415
 4556TP3      O25486   0.456   2.209   2.201
 4556TP3     H125487   0.433   2.265   2.127
 4556TP3     H225488   0.387   2.224   2.265
 4557TP3      O25489   1.147   3.145   1.531
 4557TP3     H125490   1.138   3.150   1.436
 4557TP3     H225491   1.113   3.229   1.562
 4558TP3      O25492   0.706   2.978   2.181
 4558TP3     H125493   0.655   3.049   2.219
 4558TP3     H225494   0.778   3.021   2.135
 4559TP3      O25495   1.473   2.275   1.871
 4559TP3     H125496   1.405   2.244   1.931
 4559TP3     H225497   1.529   2.329   1.925
 4560TP3      O25498   0.439   2.370   1.977
 4560TP3     H125499   0.493   2.428   2.030
 4560TP3     H225500   0.498   2.334   1.912
 4561TP3      O25501   0.558   3.184   2.294
 4561TP3     H125502   0.567   3.279   2.285
 4561TP3     H225503   0.466   3.170   2.317
 4562TP3      O25504   0.137   3.157   1.368
 4562TP3     H125505   0.145   3.197   1.281
 4562TP3     H225506   0.165   3.226   1.428
 4563TP3      O25507   1.516   3.310   2.039
 4563TP3     H125508   1.424   3.312   2.065
 4563TP3     H225509   1.536   3.400   2.015
 4564TP3      O25510   1.581   2.100   2.211
 4564TP3     H125511   1.511   2.152   2.171
 4564TP3     H225512   1.661   2.132   2.169
 4565TP3      O25513   0.805   1.899   1.945
 4565TP3     H125514   0.777   1.807   1.946
 4565TP3     H225515   0.728   1.948   1.975
 4566TP3      O25516   1.323   3.458   1.674
 4566TP3     H125517   1.364   3.374   1.658
 4566TP3     H225518   1.394   3.521   1.671
 4567TP3      O25519   1.456   3.228   1.622
 4567TP3     H125520   1.454   3.172   1.545
 4567TP3     H225521   1.477   3.170   1.694
 4568TP3      O25522   1.621   3.095   2.388
 4568TP3     H125523   1.616   3.047   2.306
 4568TP3     H225524   1.631   3.187   2.362
 4569TP3      O25525   1.060   2.799   1.410
 4569TP3     H125526   0.993   2.864   1.388
 4569TP3     H225527   1.126   2.809   1.342
 4570TP3      O25528   1.091   2.685   1.063
 4570TP3     H125529   1.146   2.709   1.138
 4570TP3     H225530   1.144   2.623   1.013
 4571TP3      O25531   1.806   2.798   2.206
 4571TP3     H125532   1.727   2.845   2.179
 4571TP3     H225533   1.811   2.723   2.147
 4572TP3      O25534   1.426   2.833   1.475
 4572TP3     H125535   1.356   2.856   1.536
 4572TP3     H225536   1.483   2.775   1.525
 4573TP3      O25537   1.381   2.624   2.433
 4573TP3     H125538   1.375   2.694   2.498
 4573TP3     H225539   1.315   2.647   2.368
 4574TP3      O25540   0.578   2.879   1.674
 4574TP3     H125541   0.552   2.841   1.590
 4574TP3     H225542   0.630   2.811   1.716
 4575TP3      O25543   0.724   3.233   1.940
 4575TP3     H125544   0.726   3.242   1.845
 4575TP3     H225545   0.799   3.178   1.961
 4576TP3      O25546   0.569   2.784   2.047
 4576TP3     H125547   0.624   2.760   1.973
 4576TP3     H225548   0.619   2.851   2.093
 4577TP3      O25549   1.266   3.317   2.130
 4577TP3     H125550   1.238   3.395   2.178
 4577TP3     H225551   1.212   3.246   2.166
 4578TP3      O25552   0.717   3.208   2.519
 4578TP3     H125553   0.657   3.269   2.562
 4578TP3     H225554   0.672   3.182   2.439
 4579TP3      O25555   1.292   2.757   1.248
 4579TP3     H125556   1.342   2.793   1.321
 4579TP3     H225557   1.343   2.780   1.171
 4580TP3      O25558   0.418   2.799   2.458
 4580TP3     H125559   0.422   2.878   2.511
 4580TP3     H225560   0.332   2.802   2.416
 4581TP3      O25561   1.068   3.405   1.591
 4581TP3     H125562   1.154   3.427   1.626
 4581TP3     H225563   1.037   3.485   1.549
 4582TP3      O25564   0.523   3.384   2.598
 4582TP3     H125565   0.523   3.420   2.510
 4582TP3     H225566   0.431   3.370   2.619
 4583TP3      O25567   1.662   1.901   1.248
 4583TP3     H125568   1.578   1.928   1.285
 4583TP3     H225569   1.699   1.982   1.213
 4584TP3      O25570   0.490   2.791   1.417
 4584TP3     H125571   0.430   2.855   1.380
 4584TP3     H225572   0.445   2.707   1.407
 4585TP3      O25573   1.798   3.343   1.111
 4585TP3     H125574   1.818   3.437   1.107
 4585TP3     H225575   1.884   3.301   1.106
 4586TP3      O25576   0.146   2.995   2.323
 4586TP3     H125577   0.080   2.996   2.254
 4586TP3     H225578   0.136   2.910   2.365
 4587TP3      O25579   0.123   3.333   1.998
 4587TP3     H125580   0.192   3.267   1.986
 4587TP3     H225581   0.141   3.370   2.085
 4588TP3      O25582   1.865   3.393   2.603
 4588TP3     H125583   1.861   3.300   2.624
 4588TP3     H225584   1.780   3.427   2.630
 4589TP3      O25585   0.955   3.331   2.467
 4589TP3     H125586   0.957   3.415   2.513
 4589TP3     H225587   0.870   3.294   2.490
 4590TP3      O25588   1.049   3.671   1.455
 4590TP3     H125589   1.024   3.678   1.363
 4590TP3     H225590   1.019   3.753   1.495
 4591TP3      O25591   0.398   3.558   1.642
 4591TP3     H125592   0.409   3.530   1.733
 4591TP3     H225593   0.338   3.493   1.605
 4592TP3      O25594   1.327   3.643   1.130
 4592TP3     H125595   1.372   3.568   1.092
 4592TP3     H225596   1.339   3.634   1.225
 4593TP3      O25597   1.315   3.622   1.406
 4593TP3     H125598   1.222   3.630   1.430
 4593TP3     H225599   1.353   3.571   1.477
 4594TP3      O25600   1.539   2.497   2.652
 4594TP3     H125601   1.496   2.533   2.574
 4594TP3     H225602   1.558   2.406   2.629
 4595TP3      O25603   0.302   3.197   2.411
 4595TP3     H125604   0.339   3.151   2.486
 4595TP3     H225605   0.240   3.135   2.372
 4596TP3      O25606   0.568   2.012   2.037
 4596TP3     H125607   0.492   2.000   1.980
 4596TP3     H225608   0.542   2.083   2.096
 4597TP3      O25609   1.034   1.972   2.382
 4597TP3     H125610   1.071   1.927   2.458
 4597TP3     H225611   0.940   1.971   2.397
 4598TP3      O25612   1.330   2.349   2.438
 4598TP3     H125613   1.275   2.330   2.513
 4598TP3     H225614   1.335   2.444   2.435
 4599TP3      O25615   1.437   2.805   1.026
 4599TP3     H125616   1.415   2.825   0.935
 4599TP3     H225617   1.529   2.828   1.034
 4600TP3      O25618   0.993   2.213   1.105
 4600TP3     H125619   0.935   2.211   1.181
 4600TP3     H225620   0.956   2.148   1.045
 4601TP3      O25621   0.581   2.528   2.149
 4601TP3     H125622   0.516   2.527   2.219
 4601TP3     H225623   0.582   2.619   2.119
 4602TP3      O25624   0.585   2.526   1.640
 4602TP3     H125625   0.490   2.517   1.633
 4602TP3     H225626   0.617   2.509   1.552
 4603TP3      O25627   1.119   2.557   1.519
 4603TP3     H125628   1.091   2.642   1.486
 4603TP3     H225629   1.187   2.528   1.458
 4604TP3      O25630   1.034   2.580   2.640
 4604TP3     H125631   0.986   2.505   2.675
 4604TP3     H225632   1.117   2.580   2.689
 4605TP3      O25633   1.218   2.498   1.774
 4605TP3     H125634   1.172   2.546   1.705
 4605TP3     H225635   1.261   2.426   1.729
 4606TP3      O25636   0.374   2.530   2.324
 4606TP3     H125637   0.378   2.581   2.405
 4606TP3     H225638   0.337   2.445   2.350
 4607TP3      O25639   0.678   2.262   1.002
 4607TP3     H125640   0.645   2.251   1.091
 4607TP3     H225641   0.620   2.326   0.962
 4608TP3      O25642   0.061   2.289   1.692
 4608TP3     H125643   0.116   2.274   1.769
 4608TP3     H225644   0.108   2.245   1.621
 4609TP3      O25645   0.103   2.344   1.240
 4609TP3     H125646   0.179   2.381   1.194
 4609TP3     H225647   0.027   2.386   1.199
 4610TP3      O25648   1.173   2.644   2.244
 4610TP3     H125649   1.204   2.587   2.174
 4610TP3     H225650   1.105   2.593   2.289
 4611TP3      O25651   0.879   2.247   1.732
 4611TP3     H125652   0.789   2.253   1.762
 4611TP3     H225653   0.927   2.213   1.807
 4612TP3      O25654   0.327   2.442   1.594
 4612TP3     H125655   0.249   2.459   1.542
 4612TP3     H225656   0.351   2.352   1.572
 4613TP3      O25657   0.648   2.455   1.385
 4613TP3     H125658   0.743   2.447   1.395
 4613TP3     H225659   0.636   2.495   1.299
 4614TP3      O25660   1.260   2.201   2.033
 4614TP3     H125661   1.229   2.195   2.123
 4614TP3     H225662   1.188   2.165   1.981
 4615TP3      O25663   0.602   2.545   1.134
 4615TP3     H125664   0.545   2.521   1.060
 4615TP3     H225665   0.675   2.591   1.094
 4616TP3      O25666   1.610   3.774   2.697
 4616TP3     H125667   1.642   3.808   2.613
 4616TP3     H225668   1.681   3.792   2.759
 4617TP3      O25669   0.402   3.033   2.617
 4617TP3     H125670   0.477   3.050   2.674
 4617TP3     H225671   0.326   3.038   2.674
 4618TP3      O25672   0.942   2.567   1.933
 4618TP3     H125673   1.012   2.515   1.893
 4618TP3     H225674   0.912   2.514   2.007
 4619TP3      O25675   0.438   2.181   1.569
 4619TP3     H125676   0.393   2.100   1.596
 4619TP3     H225677   0.474   2.160   1.483
 4620TP3      O25678   0.839   2.432   2.158
 4620TP3     H125679   0.753   2.475   2.161
 4620TP3     H225680   0.886   2.465   2.234
 4621TP3      O25681   0.871   2.990   1.339
 4621TP3     H125682   0.799   2.956   1.286
 4621TP3     H225683   0.830   3.021   1.420
 4622TP3      O25684   1.594   2.959   2.129
 4622TP3     H125685   1.598   3.011   2.049
 4622TP3     H225686   1.508   2.916   2.125
 4623TP3      O25687   1.242   2.254   1.204
 4623TP3     H125688   1.153   2.253   1.167
 4623TP3     H225689   1.255   2.345   1.231
 4624TP3      O25690   1.018   3.051   2.464
 4624TP3     H125691   1.047   3.023   2.552
 4624TP3     H225692   0.990   3.142   2.476
 4625TP3      O25693   1.318   2.492   1.332
 4625TP3     H125694   1.408   2.476   1.360
 4625TP3     H225695   1.319   2.580   1.295
 4626TP3      O25696   0.405   2.945   1.876
 4626TP3     H125697   0.462   2.934   1.800
 4626TP3     H225698   0.444   2.889   1.944
 4627TP3      O25699   1.076   3.147   1.256
 4627TP3     H125700   1.043   3.236   1.263
 4627TP3     H225701   1.003   3.092   1.283
 4628TP3      O25702   0.134   2.757   2.462
 4628TP3     H125703   0.173   2.752   2.550
 4628TP3     H225704   0.055   2.703   2.468
 4629TP3      O25705   0.814   2.765   2.656
 4629TP3     H125706   0.752   2.723   2.597
 4629TP3     H225707   0.896   2.717   2.642
 4630TP3      O25708   1.239   3.307   2.472
 4630TP3     H125709   1.146   3.315   2.450
 4630TP3     H225710   1.243   3.324   2.566
 4631TP3      O25711   1.778   2.531   1.289
 4631TP3     H125712   1.736   2.507   1.206
 4631TP3     H225713   1.806   2.621   1.275
 4632TP3      O25714   1.824   3.068   2.581
 4632TP3     H125715   1.742   3.090   2.538
 4632TP3     H225716   1.887   3.057   2.509
 4633TP3      O25717   1.659   3.379   1.348
 4633TP3     H125718   1.604   3.303   1.368
 4633TP3     H225719   1.700   3.357   1.265
 4634TP3      O25720   1.361   2.869   2.002
 4634TP3     H125721   1.266   2.860   2.001
 4634TP3     H225722   1.393   2.797   1.948
 4635TP3      O25723   0.660   3.309   1.675
 4635TP3     H125724   0.688   3.392   1.636
 4635TP3     H225725   0.565   3.317   1.683
 4636TP3      O25726   0.197   2.794   1.100
 4636TP3     H125727   0.239   2.849   1.166
 4636TP3     H225728   0.106   2.822   1.098
 4637TP3      O25729   0.732   3.075   1.551
 4637TP3     H125730   0.719   3.159   1.595
 4637TP3     H225731   0.679   3.013   1.601
 4638TP3      O25732   0.847   3.481   2.247
 4638TP3     H125733   0.903   3.556   2.226
 4638TP3     H225734   0.901   3.426   2.305
 4639TP3      O25735   0.658   3.568   1.560
 4639TP3     H125736   0.565   3.577   1.582
 4639TP3     H225737   0.699   3.647   1.595
 4640TP3      O25738   1.138   3.087   2.224
 4640TP3     H125739   1.094   3.072   2.308
 4640TP3     H225740   1.216   3.031   2.228
 4641TP3      O25741   1.428   3.195   1.139
 4641TP3     H125742   1.444   3.153   1.224
 4641TP3     H225743   1.339   3.168   1.116
 4642TP3      O25744   1.441   3.509   2.432
 4642TP3     H125745   1.361   3.457   2.422
 4642TP3     H225746   1.434   3.577   2.365
 4643TP3      O25747   1.849   3.614   1.139
 4643TP3     H125748   1.903   3.680   1.096
 4643TP3     H225749   1.774   3.662   1.173
 4644TP3      O25750   0.271   2.281   2.402
 4644TP3     H125751   0.201   2.326   2.449
 4644TP3     H225752   0.280   2.197   2.448
 4645TP3      O25753   1.523   3.070   1.373
 4645TP3     H125754   1.481   2.989   1.403
 4645TP3     H225755   1.616   3.049   1.372
 4646TP3      O25756   0.225   3.456   2.230
 4646TP3     H125757   0.248   3.385   2.289
 4646TP3     H225758   0.245   3.536   2.280
 4647TP3      O25759   0.804   3.284   0.977
 4647TP3     H125760   0.808   3.198   0.936
 4647TP3     H225761   0.764   3.267   1.063
 4648TP3      O25762   0.680   3.260   1.224
 4648TP3     H125763   0.718   3.209   1.295
 4648TP3     H225764   0.690   3.351   1.251
 4649TP3      O25765   0.318   2.965   1.284
 4649TP3     H125766   0.251   3.014   1.332
 4649TP3     H225767   0.368   3.032   1.237
 4650TP3      O25768   1.165   2.193   2.280
 4650TP3     H125769   1.221   2.235   2.346
 4650TP3     H225770   1.121   2.123   2.327
 4651TP3      O25771   1.225   2.148   1.458
 4651TP3     H125772   1.228   2.186   1.370
 4651TP3     H225773   1.267   2.213   1.514
 4652TP3      O25774   0.976   3.395   1.273
 4652TP3     H125775   0.888   3.428   1.294
 4652TP3     H225776   1.026   3.473   1.249
 4653TP3      O25777   0.904   2.389   1.496
 4653TP3     H125778   0.977   2.450   1.503
 4653TP3     H225779   0.894   2.352   1.583
 4654TP3      O25780   1.003   2.480   2.382
 4654TP3     H125781   1.006   2.519   2.469
 4654TP3     H225782   1.028   2.389   2.396
 4655TP3      O25783   0.982   2.058   1.553
 4655TP3     H125784   0.954   2.128   1.612
 4655TP3     H225785   1.067   2.086   1.520
 4656TP3      O25786   0.730   3.513   1.304
 4656TP3     H125787   0.736   3.597   1.259
 4656TP3     H225788   0.703   3.535   1.393
 4657TP3      O25789   0.578   2.211   1.260
 4657TP3     H125790   0.574   2.297   1.303
 4657TP3     H225791   0.665   2.178   1.282
 4658TP3      O25792   1.585   2.269   2.491
 4658TP3     H125793   1.495   2.280   2.459
 4658TP3     H225794   1.638   2.268   2.412
 4659TP3      O25795   1.457   2.631   1.865
 4659TP3     H125796   1.372   2.590   1.847
 4659TP3     H225797   1.499   2.573   1.928
 4660TP3      O25798   0.432   3.177   1.135
 4660TP3     H125799   0.505   3.224   1.174
 4660TP3     H225800   0.472   3.121   1.068
 4661TP3      O25801   0.225   2.521   1.060
 4661TP3     H125802   0.230   2.612   1.087
 4661TP3     H225803   0.134   2.508   1.034
 4662TP3      O25804   1.588   3.579   2.029
 4662TP3     H125805   1.573   3.650   1.966
 4662TP3     H225806   1.682   3.583   2.047
 4663TP3      O25807   0.329   1.980   1.910
 4663TP3     H125808   0.328   1.966   1.815
 4663TP3     H225809   0.299   1.897   1.947
 4664TP3      O25810   0.207   3.392   1.516
 4664TP3     H125811   0.135   3.420   1.572
 4664TP3     H225812   0.204   3.452   1.441
 4665TP3      O25813   0.144   3.661   2.677
 4665TP3     H125814   0.191   3.649   2.760
 4665TP3     H225815   0.062   3.613   2.689
 4666TP3      O25816   0.560   3.478   2.855
 4666TP3     H125817   0.639   3.532   2.858
 4666TP3     H225818   0.557   3.445   2.765
 4667TP3      O25819   1.004   3.470   0.959
 4667TP3     H125820   0.937   3.403   0.975
 4667TP3     H225821   1.081   3.422   0.931
 4668TP3      O25822   1.229   3.354   2.740
 4668TP3     H125823   1.205   3.281   2.796
 4668TP3     H225824   1.304   3.395   2.783
 4669TP3      O25825   1.446   3.435   1.004
 4669TP3     H125826   1.459   3.355   1.055
 4669TP3     H225827   1.520   3.436   0.943
 4670TP3      O25828   0.166   3.017   2.762
 4670TP3     H125829   0.169   2.924   2.741
 4670TP3     H225830   0.080   3.047   2.731
 4671TP3      O25831   0.566   3.001   0.979
 4671TP3     H125832   0.590   2.953   1.058
 4671TP3     H225833   0.648   3.015   0.932
 4672TP3      O25834   0.749   3.032   2.729
 4672TP3     H125835   0.744   3.076   2.644
 4672TP3     H225836   0.773   2.942   2.707
 4673TP3      O25837   1.175   3.137   1.003
 4673TP3     H125838   1.130   3.134   1.087
 4673TP3     H225839   1.152   3.054   0.961
 4674TP3      O25840   1.359   3.049   2.470
 4674TP3     H125841   1.452   3.068   2.455
 4674TP3     H225842   1.317   3.135   2.469
 4675TP3      O25843   0.232   2.728   2.718
 4675TP3     H125844   0.305   2.668   2.707
 4675TP3     H225845   0.212   2.725   2.812
 4676TP3      O25846   0.664   2.870   1.203
 4676TP3     H125847   0.614   2.828   1.273
 4676TP3     H225848   0.709   2.798   1.159
 4677TP3      O25849   0.643   2.643   2.469
 4677TP3     H125850   0.565   2.698   2.465
 4677TP3     H225851   0.702   2.679   2.402
 4678TP3      O25852   0.812   2.695   1.044
 4678TP3     H125853   0.807   2.723   0.952
 4678TP3     H225854   0.905   2.686   1.062
 4679TP3      O25855   1.186   2.905   2.824
 4679TP3     H125856   1.243   2.871   2.755
 4679TP3     H225857   1.136   2.829   2.853
 4680TP3      O25858   1.703   2.874   0.999
 4680TP3     H125859   1.701   2.855   0.905
 4680TP3     H225860   1.694   2.969   1.004
 4681TP3      O25861   0.662   2.387   2.557
 4681TP3     H125862   0.672   2.329   2.482
 4681TP3     H225863   0.656   2.475   2.520
 4682TP3      O25864   0.702   2.231   2.319
 4682TP3     H125865   0.756   2.280   2.256
 4682TP3     H225866   0.616   2.226   2.277
 4683TP3      O25867   0.821   2.763   2.306
 4683TP3     H125868   0.908   2.793   2.330
 4683TP3     H225869   0.780   2.839   2.264
 4684TP3      O25870   1.275   2.520   2.822
 4684TP3     H125871   1.293   2.448   2.881
 4684TP3     H225872   1.355   2.529   2.770
 4685TP3      O25873   1.378   2.825   2.624
 4685TP3     H125874   1.362   2.904   2.574
 4685TP3     H225875   1.472   2.828   2.645
 4686TP3      O25876   0.451   2.478   2.732
 4686TP3     H125877   0.389   2.406   2.733
 4686TP3     H225878   0.525   2.446   2.680
 4687TP3      O25879   0.759   1.965   2.378
 4687TP3     H125880   0.738   2.056   2.360
 4687TP3     H225881   0.689   1.915   2.336
 4688TP3      O25882   0.901   2.348   2.689
 4688TP3     H125883   0.885   2.264   2.733
 4688TP3     H225884   0.818   2.370   2.648
 4689TP3      O25885   1.160   2.269   2.628
 4689TP3     H125886   1.071   2.293   2.654
 4689TP3     H225887   1.191   2.211   2.698
 4690TP3      O25888   1.249   2.112   2.840
 4690TP3     H125889   1.197   2.051   2.893
 4690TP3     H225890   1.278   2.179   2.902
 4691TP3      O25891   0.274   2.244   2.721
 4691TP3     H125892   0.283   2.159   2.680
 4691TP3     H225893   0.295   2.229   2.813
 4692TP3      O25894   0.769   1.891   2.640
 4692TP3     H125895   0.834   1.821   2.641
 4692TP3     H225896   0.759   1.914   2.548
 4693TP3      O25897   0.834   2.111   2.794
 4693TP3     H125898   0.818   2.031   2.744
 4693TP3     H225899   0.832   2.083   2.886
 4694TP3      O25900   0.801   3.746   1.176
 4694TP3     H125901   0.892   3.717   1.172
 4694TP3     H225902   0.795   3.814   1.108
 4695TP3      O25903   0.169   3.226   1.099
 4695TP3     H125904   0.263   3.225   1.114
 4695TP3     H225905   0.154   3.158   1.034
 4696TP3      O25906   0.065   3.722   1.614
 4696TP3     H125907   0.019   3.688   1.537
 4696TP3     H225908   0.071   3.647   1.674
 4697TP3      O25909   0.090   3.517   1.788
 4697TP3     H125910   0.069   3.435   1.833
 4697TP3     H225911   0.142   3.566   1.852
 4698TP3      O25912   1.851   3.596   2.109
 4698TP3     H125913   1.842   3.586   2.204
 4698TP3     H225914   1.903   3.676   2.098
 4699TP3      O25915   1.793   3.553   2.375
 4699TP3     H125916   1.737   3.482   2.346
 4699TP3     H225917   1.844   3.516   2.448
 4700TP3      O25918   1.614   3.190   2.872
 4700TP3     H125919   1.542   3.214   2.930
 4700TP3     H225920   1.692   3.225   2.916
 4701TP3      O25921   1.788   2.981   1.399
 4701TP3     H125922   1.862   3.042   1.399
 4701TP3     H225923   1.806   2.923   1.473
 4702TP3      O25924   1.809   2.800   1.614
 4702TP3     H125925   1.732   2.743   1.608
 4702TP3     H225926   1.785   2.867   1.678
 4703TP3      O25927   1.884   3.081   2.016
 4703TP3     H125928   1.919   3.170   2.016
 4703TP3     H225929   1.802   3.087   2.065
 4704TP3      O25930   1.623   3.351   2.295
 4704TP3     H125931   1.553   3.398   2.341
 4704TP3     H225932   1.589   3.340   2.206
 4705TP3      O25933   1.841   2.787   1.215
 4705TP3     H125934   1.794   2.808   1.134
 4705TP3     H225935   1.819   2.858   1.275
 4706TP3      O25936   1.673   2.488   1.043
 4706TP3     H125937   1.660   2.549   0.970
 4706TP3     H225938   1.652   2.402   1.007
 4707TP3      O25939   1.580   2.654   1.620
 4707TP3     H125940   1.576   2.565   1.584
 4707TP3     H225941   1.540   2.646   1.706
 4708TP3      O25942   0.072   2.832   2.057
 4708TP3     H125943   0.089   2.842   1.963
 4708TP3     H225944   0.158   2.815   2.095
 4709TP3      O25945   1.651   2.840   2.649
 4709TP3     H125946   1.715   2.771   2.631
 4709TP3     H225947   1.703   2.920   2.650
 4710TP3      O25948   1.796   2.601   2.583
 4710TP3     H125949   1.715   2.566   2.622
 4710TP3     H225950   1.865   2.543   2.616
 4711TP3      O25951   1.603   2.244   0.945
 4711TP3     H125952   1.645   2.191   1.012
 4711TP3     H225953   1.512   2.215   0.943
 4712TP3      O25954   1.581   2.415   1.460
 4712TP3     H125955   1.610   2.324   1.466
 4712TP3     H225956   1.647   2.456   1.404
 4713TP3      O25957   1.614   2.465   2.032
 4713TP3     H125958   1.705   2.481   2.011
 4713TP3     H225959   1.605   2.490   2.124
 4714TP3      O25960   1.624   2.569   2.297
 4714TP3     H125961   1.539   2.584   2.338
 4714TP3     H225962   1.675   2.647   2.319
 4715TP3      O25963   0.083   2.390   2.585
 4715TP3     H125964   0.143   2.355   2.651
 4715TP3     H225965   0.013   2.325   2.581
 4716TP3      O25966   1.856   1.908   2.781
 4716TP3     H125967   1.926   1.848   2.758
 4716TP3     H225968   1.872   1.985   2.726
 4717TP3      O25969   1.644   2.145   1.488
 4717TP3     H125970   1.660   2.104   1.573
 4717TP3     H225971   1.578   2.090   1.447
 4718TP3      O25972   0.208   2.224   1.907
 4718TP3     H125973   0.243   2.135   1.917
 4718TP3     H225974   0.276   2.280   1.943
 4719TP3      O25975   0.039   2.558   2.012
 4719TP3     H125976   0.113   2.544   1.954
 4719TP3     H225977   0.042   2.652   2.033
 4720TP3      O25978   1.805   2.139   2.639
 4720TP3     H125979   1.729   2.180   2.679
 4720TP3     H225980   1.772   2.098   2.559
 4721TP3      O25981   1.776   2.121   1.131
 4721TP3     H125982   1.825   2.066   1.069
 4721TP3     H225983   1.839   2.185   1.162
 4722TP3      O25984   0.111   2.166   1.441
 4722TP3     H125985   0.017   2.151   1.454
 4722TP3     H225986   0.115   2.231   1.372
 4723TP3      O25987   1.512   3.642   1.642
 4723TP3     H125988   1.589   3.639   1.585
 4723TP3     H225989   1.541   3.693   1.717
 4724TP3      O25990   0.061   2.023   2.275
 4724TP3     H125991  -0.007   2.035   2.341
 4724TP3     H225992   0.021   2.053   2.193
 4725TP3      O25993   0.261   3.351   2.676
 4725TP3     H125994   0.207   3.323   2.602
 4725TP3     H225995   0.212   3.425   2.714
 4726TP3      O25996   0.587   3.458   2.328
 4726TP3     H125997   0.555   3.544   2.302
 4726TP3     H225998   0.681   3.460   2.307
 4727TP3      O25999   0.964   3.579   2.589
 4727TP3     H126000   0.971   3.552   2.680
 4727TP3     H226001   1.046   3.625   2.570
 4728TP3      O26002   1.203   3.711   2.559
 4728TP3     H126003   1.269   3.662   2.511
 4728TP3     H226004   1.244   3.730   2.643
 4729TP3      O26005   1.716   1.969   2.432
 4729TP3     H126006   1.659   2.005   2.363
 4729TP3     H226007   1.729   1.878   2.406
 4730TP3      O26008   0.287   3.714   2.328
 4730TP3     H126009   0.209   3.750   2.287
 4730TP3     H226010   0.295   3.762   2.411
 4731TP3      O26011   0.548   3.719   2.249
 4731TP3     H126012   0.456   3.724   2.273
 4731TP3     H226013   0.554   3.769   2.167
 4732TP3      O26014   0.993   3.700   2.160
 4732TP3     H126015   0.942   3.736   2.088
 4732TP3     H226016   1.006   3.774   2.219
 4733TP3      O26017   1.215   3.563   2.241
 4733TP3     H126018   1.137   3.610   2.210
 4733TP3     H226019   1.287   3.625   2.227
 4734TP3      O26020   1.454   3.704   2.234
 4734TP3     H126021   1.481   3.796   2.226
 4734TP3     H226022   1.498   3.660   2.162
 4735TP3      O26023   0.250   3.622   1.989
 4735TP3     H126024   0.228   3.586   2.075
 4735TP3     H226025   0.325   3.571   1.960
 4736TP3      O26026   0.458   3.477   1.897
 4736TP3     H126027   0.444   3.386   1.923
 4736TP3     H226028   0.545   3.498   1.933
 4737TP3      O26029   0.718   3.506   2.000
 4737TP3     H126030   0.728   3.415   1.972
 4737TP3     H226031   0.752   3.507   2.090
 4738TP3      O26032   1.042   2.083   1.894
 4738TP3     H126033   0.976   2.016   1.914
 4738TP3     H226034   1.109   2.037   1.843
 4739TP3      O26035   1.479   1.945   1.919
 4739TP3     H126036   1.561   1.978   1.882
 4739TP3     H226037   1.411   1.981   1.863
 4740TP3      O26038   1.708   2.000   1.725
 4740TP3     H126039   1.776   1.940   1.696
 4740TP3     H226040   1.755   2.080   1.749
 4741TP3      O26041   0.321   1.942   1.639
 4741TP3     H126042   0.230   1.928   1.613
 4741TP3     H226043   0.361   1.855   1.632
 4742TP3      O26044   0.194   1.966   1.262
 4742TP3     H126045   0.252   2.011   1.201
 4742TP3     H226046   0.179   2.029   1.333
 4743TP3      O26047   0.766   1.910   1.661
 4743TP3     H126048   0.838   1.961   1.623
 4743TP3     H226049   0.782   1.915   1.756
 4744TP3      O26050   1.244   1.949   1.762
 4744TP3     H126051   1.259   1.949   1.668
 4744TP3     H226052   1.235   1.857   1.785
 4745TP3      O26053   1.440   1.980   1.394
 4745TP3     H126054   1.363   2.036   1.405
 4745TP3     H226055   1.406   1.891   1.398
 4746TP3      O26056   0.189   3.561   1.302
 4746TP3     H126057   0.106   3.546   1.257
 4746TP3     H226058   0.206   3.654   1.291
 4747TP3      O26059   0.378   2.103   1.093
 4747TP3     H126060   0.428   2.049   1.032
 4747TP3     H226061   0.444   2.139   1.153
 4748TP3      O26062   0.841   2.181   1.332
 4748TP3     H126063   0.871   2.105   1.383
 4748TP3     H226064   0.864   2.257   1.387
 4749TP3      O26065   1.054   3.644   1.163
 4749TP3     H126066   1.148   3.662   1.153
 4749TP3     H226067   1.031   3.591   1.087
 4750TP3      O26068   1.719   3.620   1.460
 4750TP3     H126069   1.701   3.532   1.425
 4750TP3     H226070   1.706   3.678   1.385
 4751TP3      O26071   0.287   1.983   2.612
 4751TP3     H126072   0.230   1.917   2.650
 4751TP3     H226073   0.373   1.966   2.652
 4752TP3      O26074   0.512   1.917   2.752
 4752TP3     H126075   0.599   1.929   2.714
 4752TP3     H226076   0.514   1.829   2.789
 4753TP3      O26077   0.359   3.630   1.020
 4753TP3     H126078   0.336   3.624   1.113
 4753TP3     H226079   0.435   3.572   1.010
 4754TP3      O26080   1.620   3.504   2.646
 4754TP3     H126081   1.555   3.495   2.576
 4754TP3     H226082   1.616   3.596   2.671
 4755TP3      O26083   3.100   2.894   1.640
 4755TP3     H126084   3.081   2.988   1.638
 4755TP3     H226085   3.033   2.856   1.583
 4756TP3      O26086   3.355   3.108   1.840
 4756TP3     H126087   3.331   3.034   1.895
 4756TP3     H226088   3.375   3.178   1.902
 4757TP3      O26089   1.960   2.566   1.516
 4757TP3     H126090   1.921   2.648   1.549
 4757TP3     H226091   1.904   2.541   1.443
 4758TP3      O26092   3.004   3.471   1.923
 4758TP3     H126093   3.075   3.446   1.864
 4758TP3     H226094   2.999   3.566   1.916
 4759TP3      O26095   3.701   2.187   2.127
 4759TP3     H126096   3.698   2.254   2.195
 4759TP3     H226097   3.753   2.226   2.057
 4760TP3      O26098   3.070   2.487   2.024
 4760TP3     H126099   3.153   2.477   2.072
 4760TP3     H226100   3.097   2.499   1.933
 4761TP3      O26101   2.463   2.296   1.775
 4761TP3     H126102   2.468   2.380   1.730
 4761TP3     H226103   2.407   2.242   1.719
 4762TP3      O26104   3.265   2.304   1.628
 4762TP3     H126105   3.307   2.274   1.709
 4762TP3     H226106   3.337   2.342   1.576
 4763TP3      O26107   2.119   2.563   1.875
 4763TP3     H126108   2.182   2.510   1.923
 4763TP3     H226109   2.126   2.532   1.784
 4764TP3      O26110   2.510   2.688   1.853
 4764TP3     H126111   2.595   2.665   1.889
 4764TP3     H226112   2.501   2.632   1.775
 4765TP3      O26113   3.688   2.346   2.359
 4765TP3     H126114   3.631   2.419   2.335
 4765TP3     H226115   3.730   2.375   2.440
 4766TP3      O26116   2.338   2.207   2.196
 4766TP3     H126117   2.314   2.280   2.140
 4766TP3     H226118   2.274   2.209   2.267
 4767TP3      O26119   2.995   3.133   1.534
 4767TP3     H126120   3.034   3.155   1.450
 4767TP3     H226121   2.976   3.217   1.575
 4768TP3      O26122   3.379   2.250   1.873
 4768TP3     H126123   3.378   2.182   1.940
 4768TP3     H226124   3.426   2.323   1.913
 4769TP3      O26125   2.308   2.395   1.986
 4769TP3     H126126   2.365   2.453   2.036
 4769TP3     H226127   2.367   2.354   1.922
 4770TP3      O26128   2.433   3.190   2.355
 4770TP3     H126129   2.446   3.284   2.344
 4770TP3     H226130   2.338   3.181   2.366
 4771TP3      O26131   2.011   3.142   1.389
 4771TP3     H126132   2.013   3.169   1.297
 4771TP3     H226133   2.037   3.220   1.438
 4772TP3      O26134   3.400   3.305   2.027
 4772TP3     H126135   3.327   3.304   2.089
 4772TP3     H226136   3.420   3.398   2.015
 4773TP3      O26137   3.427   2.082   2.136
 4773TP3     H126138   3.420   2.125   2.222
 4773TP3     H226139   3.517   2.101   2.108
 4774TP3      O26140   2.669   1.892   1.945
 4774TP3     H126141   2.647   1.799   1.956
 4774TP3     H226142   2.593   1.938   1.979
 4775TP3      O26143   3.199   3.435   1.726
 4775TP3     H126144   3.240   3.359   1.685
 4775TP3     H226145   3.258   3.507   1.705
 4776TP3      O26146   3.323   3.225   1.595
 4776TP3     H126147   3.351   3.162   1.528
 4776TP3     H226148   3.339   3.180   1.678
 4777TP3      O26149   3.470   3.140   2.441
 4777TP3     H126150   3.539   3.121   2.377
 4777TP3     H226151   3.453   3.233   2.430
 4778TP3      O26152   2.966   2.813   1.408
 4778TP3     H126153   2.945   2.906   1.397
 4778TP3     H226154   3.038   2.797   1.347
 4779TP3      O26155   2.979   2.689   1.070
 4779TP3     H126156   3.037   2.710   1.143
 4779TP3     H226157   3.028   2.625   1.019
 4780TP3      O26158   3.694   2.730   2.264
 4780TP3     H126159   3.619   2.790   2.253
 4780TP3     H226160   3.747   2.743   2.186
 4781TP3      O26161   3.312   2.829   1.483
 4781TP3     H126162   3.247   2.854   1.548
 4781TP3     H226163   3.378   2.780   1.532
 4782TP3      O26164   3.287   2.665   2.397
 4782TP3     H126165   3.310   2.757   2.413
 4782TP3     H226166   3.213   2.669   2.338
 4783TP3      O26167   3.211   3.313   2.226
 4783TP3     H126168   3.157   3.392   2.218
 4783TP3     H226169   3.149   3.243   2.243
 4784TP3      O26170   3.186   2.754   1.253
 4784TP3     H126171   3.239   2.788   1.325
 4784TP3     H226172   3.236   2.776   1.174
 4785TP3      O26173   2.284   2.811   2.454
 4785TP3     H126174   2.296   2.892   2.503
 4785TP3     H226175   2.191   2.792   2.462
 4786TP3      O26176   2.943   3.391   1.610
 4786TP3     H126177   3.020   3.418   1.660
 4786TP3     H226178   2.909   3.472   1.573
 4787TP3      O26179   2.390   3.453   2.604
 4787TP3     H126180   2.402   3.441   2.510
 4787TP3     H226181   2.303   3.416   2.621
 4788TP3      O26182   3.545   1.904   1.246
 4788TP3     H126183   3.461   1.929   1.285
 4788TP3     H226184   3.581   1.985   1.212
 4789TP3      O26185   3.684   3.348   1.097
 4789TP3     H126186   3.698   3.442   1.104
 4789TP3     H226187   3.772   3.311   1.092
 4790TP3      O26188   1.969   2.987   2.354
 4790TP3     H126189   1.904   2.949   2.295
 4790TP3     H226190   1.998   2.913   2.408
 4791TP3      O26191   1.955   3.347   2.036
 4791TP3     H126192   2.027   3.354   2.099
 4791TP3     H226193   1.902   3.424   2.052
 4792TP3      O26194   3.760   3.418   2.600
 4792TP3     H126195   3.754   3.325   2.582
 4792TP3     H226196   3.672   3.444   2.626
 4793TP3      O26197   2.786   3.378   2.452
 4793TP3     H126198   2.814   3.454   2.502
 4793TP3     H226199   2.743   3.321   2.516
 4794TP3      O26200   2.851   3.641   1.425
 4794TP3     H126201   2.882   3.685   1.346
 4794TP3     H226202   2.895   3.688   1.497
 4795TP3      O26203   2.272   3.569   1.654
 4795TP3     H126204   2.298   3.537   1.740
 4795TP3     H226205   2.212   3.503   1.621
 4796TP3      O26206   3.211   3.636   1.144
 4796TP3     H126207   3.262   3.562   1.110
 4796TP3     H226208   3.219   3.628   1.240
 4797TP3      O26209   3.205   3.625   1.429
 4797TP3     H126210   3.137   3.660   1.487
 4797TP3     H226211   3.271   3.589   1.488
 4798TP3      O26212   3.471   2.563   2.614
 4798TP3     H126213   3.396   2.600   2.566
 4798TP3     H226214   3.442   2.475   2.640
 4799TP3      O26215   2.158   3.193   2.400
 4799TP3     H126216   2.186   3.164   2.487
 4799TP3     H226217   2.094   3.127   2.373
 4800TP3      O26218   2.432   2.004   2.035
 4800TP3     H126219   2.353   1.997   1.982
 4800TP3     H226220   2.416   2.079   2.092
 4801TP3      O26221   2.933   1.982   2.396
 4801TP3     H126222   2.978   1.932   2.464
 4801TP3     H226223   2.840   1.966   2.412
 4802TP3      O26224   3.176   2.404   2.467
 4802TP3     H126225   3.245   2.367   2.521
 4802TP3     H226226   3.210   2.488   2.439
 4803TP3      O26227   3.324   2.797   1.026
 4803TP3     H126228   3.302   2.816   0.935
 4803TP3     H226229   3.414   2.827   1.036
 4804TP3      O26230   2.879   2.212   1.107
 4804TP3     H126231   2.820   2.211   1.182
 4804TP3     H226232   2.843   2.148   1.046
 4805TP3      O26233   2.467   2.558   2.148
 4805TP3     H126234   2.403   2.551   2.219
 4805TP3     H226235   2.519   2.635   2.170
 4806TP3      O26236   2.446   2.529   1.632
 4806TP3     H126237   2.351   2.513   1.628
 4806TP3     H226238   2.478   2.508   1.544
 4807TP3      O26239   3.004   2.556   1.513
 4807TP3     H126240   2.983   2.644   1.482
 4807TP3     H226241   3.074   2.527   1.455
 4808TP3      O26242   3.135   2.505   1.762
 4808TP3     H126243   3.077   2.546   1.698
 4808TP3     H226244   3.171   2.429   1.717
 4809TP3      O26245   2.240   2.508   2.308
 4809TP3     H126246   2.256   2.567   2.381
 4809TP3     H226247   2.234   2.422   2.348
 4810TP3      O26248   2.564   2.264   1.001
 4810TP3     H126249   2.528   2.250   1.088
 4810TP3     H226250   2.506   2.329   0.961
 4811TP3      O26251   1.887   2.203   1.738
 4811TP3     H126252   1.953   2.223   1.805
 4811TP3     H226253   1.937   2.198   1.657
 4812TP3      O26254   1.949   2.317   1.232
 4812TP3     H126255   2.017   2.358   1.179
 4812TP3     H226256   1.890   2.390   1.255
 4813TP3      O26257   3.066   2.675   2.243
 4813TP3     H126258   3.029   2.621   2.173
 4813TP3     H226259   2.991   2.698   2.298
 4814TP3      O26260   2.741   2.279   1.729
 4814TP3     H126261   2.650   2.265   1.755
 4814TP3     H226262   2.776   2.341   1.794
 4815TP3      O26263   2.184   2.449   1.627
 4815TP3     H126264   2.108   2.478   1.576
 4815TP3     H226265   2.198   2.358   1.600
 4816TP3      O26266   2.527   2.456   1.383
 4816TP3     H126267   2.622   2.446   1.393
 4816TP3     H226268   2.516   2.498   1.297
 4817TP3      O26269   3.094   2.185   2.039
 4817TP3     H126270   3.082   2.195   2.134
 4817TP3     H226271   3.066   2.269   2.003
 4818TP3      O26272   2.487   2.561   1.136
 4818TP3     H126273   2.443   2.532   1.056
 4818TP3     H226274   2.561   2.614   1.105
 4819TP3      O26275   3.488   3.761   2.693
 4819TP3     H126276   3.516   3.801   2.611
 4819TP3     H226277   3.560   3.777   2.754
 4820TP3      O26278   2.258   3.036   2.621
 4820TP3     H126279   2.332   3.062   2.676
 4820TP3     H226280   2.185   3.028   2.682
 4821TP3      O26281   2.809   2.461   1.918
 4821TP3     H126282   2.896   2.490   1.948
 4821TP3     H226283   2.763   2.436   1.997
 4822TP3      O26284   2.295   2.176   1.587
 4822TP3     H126285   2.245   2.098   1.610
 4822TP3     H226286   2.338   2.153   1.505
 4823TP3      O26287   2.694   2.400   2.156
 4823TP3     H126288   2.616   2.457   2.158
 4823TP3     H226289   2.748   2.431   2.229
 4824TP3      O26290   2.763   3.006   1.342
 4824TP3     H126291   2.758   2.911   1.339
 4824TP3     H226292   2.738   3.030   1.431
 4825TP3      O26293   3.481   2.880   2.204
 4825TP3     H126294   3.532   2.962   2.204
 4825TP3     H226295   3.416   2.893   2.135
 4826TP3      O26296   3.129   2.251   1.207
 4826TP3     H126297   3.041   2.252   1.169
 4826TP3     H226298   3.145   2.342   1.233
 4827TP3      O26299   3.209   2.487   1.337
 4827TP3     H126300   3.297   2.469   1.370
 4827TP3     H226301   3.216   2.575   1.298
 4828TP3      O26302   2.971   3.157   1.243
 4828TP3     H126303   2.939   3.247   1.251
 4828TP3     H226304   2.898   3.103   1.274
 4829TP3      O26305   2.015   2.765   2.510
 4829TP3     H126306   2.037   2.756   2.603
 4829TP3     H226307   1.936   2.712   2.499
 4830TP3      O26308   3.665   2.531   1.285
 4830TP3     H126309   3.624   2.509   1.202
 4830TP3     H226310   3.690   2.623   1.275
 4831TP3      O26311   3.733   3.147   2.564
 4831TP3     H126312   3.639   3.136   2.579
 4831TP3     H226313   3.744   3.134   2.470
 4832TP3      O26314   3.550   3.386   1.348
 4832TP3     H126315   3.490   3.319   1.382
 4832TP3     H226316   3.578   3.351   1.263
 4833TP3      O26317   3.290   2.886   2.002
 4833TP3     H126318   3.205   2.866   2.040
 4833TP3     H226319   3.311   2.809   1.949
 4834TP3      O26320   2.521   3.300   1.611
 4834TP3     H126321   2.568   3.381   1.591
 4834TP3     H226322   2.431   3.328   1.628
 4835TP3      O26323   2.102   2.786   1.126
 4835TP3     H126324   2.105   2.879   1.102
 4835TP3     H226325   2.015   2.774   1.164
 4836TP3      O26326   2.660   3.069   1.583
 4836TP3     H126327   2.611   3.151   1.594
 4836TP3     H226328   2.732   3.077   1.646
 4837TP3      O26329   2.720   3.503   2.222
 4837TP3     H126330   2.784   3.573   2.208
 4837TP3     H226331   2.752   3.455   2.298
 4838TP3      O26332   2.528   3.575   1.548
 4838TP3     H126333   2.438   3.591   1.576
 4838TP3     H226334   2.576   3.652   1.578
 4839TP3      O26335   3.319   3.191   1.140
 4839TP3     H126336   3.340   3.148   1.223
 4839TP3     H226337   3.227   3.170   1.125
 4840TP3      O26338   3.291   3.554   2.455
 4840TP3     H126339   3.221   3.512   2.406
 4840TP3     H226340   3.330   3.616   2.393
 4841TP3      O26341   3.734   3.616   1.134
 4841TP3     H126342   3.793   3.685   1.106
 4841TP3     H226343   3.657   3.661   1.167
 4842TP3      O26344   2.158   2.237   2.402
 4842TP3     H126345   2.085   2.280   2.448
 4842TP3     H226346   2.201   2.184   2.469
 4843TP3      O26347   3.411   3.058   1.368
 4843TP3     H126348   3.372   2.979   1.405
 4843TP3     H226349   3.505   3.042   1.370
 4844TP3      O26350   2.133   3.430   2.236
 4844TP3     H126351   2.148   3.351   2.289
 4844TP3     H226352   2.155   3.502   2.294
 4845TP3      O26353   2.706   3.271   0.994
 4845TP3     H126354   2.701   3.188   0.947
 4845TP3     H226355   2.658   3.256   1.075
 4846TP3      O26356   2.578   3.223   1.261
 4846TP3     H126357   2.667   3.200   1.288
 4846TP3     H226358   2.572   3.317   1.275
 4847TP3      O26359   3.054   2.216   2.300
 4847TP3     H126360   3.099   2.268   2.367
 4847TP3     H226361   3.013   2.145   2.348
 4848TP3      O26362   3.102   2.150   1.464
 4848TP3     H126363   3.108   2.187   1.376
 4848TP3     H226364   3.152   2.211   1.518
 4849TP3      O26365   2.848   3.394   1.277
 4849TP3     H126366   2.760   3.430   1.289
 4849TP3     H226367   2.906   3.466   1.299
 4850TP3      O26368   2.786   2.393   1.484
 4850TP3     H126369   2.862   2.451   1.493
 4850TP3     H226370   2.767   2.365   1.574
 4851TP3      O26371   2.849   2.483   2.362
 4851TP3     H126372   2.852   2.566   2.409
 4851TP3     H226373   2.937   2.446   2.373
 4852TP3      O26374   2.864   2.074   1.587
 4852TP3     H126375   2.831   2.154   1.627
 4852TP3     H226376   2.946   2.099   1.546
 4853TP3      O26377   2.589   3.492   1.294
 4853TP3     H126378   2.603   3.570   1.240
 4853TP3     H226379   2.573   3.527   1.382
 4854TP3      O26380   2.460   2.212   1.253
 4854TP3     H126381   2.454   2.296   1.299
 4854TP3     H226382   2.546   2.178   1.277
 4855TP3      O26383   3.468   2.175   2.389
 4855TP3     H126384   3.428   2.199   2.472
 4855TP3     H226385   3.541   2.236   2.378
 4856TP3      O26386   3.346   2.644   1.874
 4856TP3     H126387   3.271   2.595   1.839
 4856TP3     H226388   3.395   2.579   1.924
 4857TP3      O26389   2.300   3.167   1.151
 4857TP3     H126390   2.349   3.248   1.168
 4857TP3     H226391   2.358   3.115   1.097
 4858TP3      O26392   2.089   2.501   1.082
 4858TP3     H126393   2.117   2.587   1.115
 4858TP3     H226394   2.065   2.516   0.991
 4859TP3      O26395   3.475   3.581   2.037
 4859TP3     H126396   3.468   3.641   1.963
 4859TP3     H226397   3.569   3.576   2.056
 4860TP3      O26398   2.181   1.984   1.918
 4860TP3     H126399   2.176   1.971   1.823
 4860TP3     H226400   2.151   1.901   1.955
 4861TP3      O26401   2.081   3.382   1.531
 4861TP3     H126402   2.026   3.415   1.602
 4861TP3     H226403   2.070   3.445   1.461
 4862TP3      O26404   2.033   3.652   2.717
 4862TP3     H126405   2.101   3.603   2.762
 4862TP3     H226406   1.976   3.585   2.679
 4863TP3      O26407   2.509   3.543   2.829
 4863TP3     H126408   2.568   3.471   2.852
 4863TP3     H226409   2.466   3.514   2.748
 4864TP3      O26410   2.895   3.470   0.958
 4864TP3     H126411   2.833   3.400   0.981
 4864TP3     H226412   2.974   3.424   0.930
 4865TP3      O26413   3.130   3.302   2.816
 4865TP3     H126414   3.173   3.255   2.888
 4865TP3     H226415   3.182   3.382   2.807
 4866TP3      O26416   3.342   3.433   1.008
 4866TP3     H126417   3.349   3.353   1.060
 4866TP3     H226418   3.419   3.432   0.951
 4867TP3      O26419   2.033   2.994   2.770
 4867TP3     H126420   2.026   2.900   2.788
 4867TP3     H226421   1.950   3.017   2.729
 4868TP3      O26422   2.456   2.983   1.025
 4868TP3     H126423   2.396   2.968   0.951
 4868TP3     H226424   2.542   2.994   0.985
 4869TP3      O26425   3.061   3.143   0.988
 4869TP3     H126426   3.018   3.144   1.073
 4869TP3     H226427   3.039   3.058   0.950
 4870TP3      O26428   3.275   2.949   2.434
 4870TP3     H126429   3.343   3.016   2.435
 4870TP3     H226430   3.209   2.982   2.374
 4871TP3      O26431   2.064   2.711   2.781
 4871TP3     H126432   2.157   2.690   2.780
 4871TP3     H226433   2.033   2.678   2.865
 4872TP3      O26434   2.497   2.636   2.449
 4872TP3     H126435   2.428   2.703   2.454
 4872TP3     H226436   2.562   2.664   2.513
 4873TP3      O26437   2.701   2.706   1.051
 4873TP3     H126438   2.695   2.733   0.959
 4873TP3     H226439   2.795   2.696   1.067
 4874TP3      O26440   3.584   2.886   1.002
 4874TP3     H126441   3.586   2.863   0.909
 4874TP3     H226442   3.576   2.981   1.003
 4875TP3      O26443   2.433   2.366   2.491
 4875TP3     H126444   2.507   2.312   2.464
 4875TP3     H226445   2.464   2.456   2.479
 4876TP3      O26446   2.591   2.187   2.299
 4876TP3     H126447   2.641   2.250   2.246
 4876TP3     H226448   2.501   2.196   2.268
 4877TP3      O26449   3.340   2.846   2.677
 4877TP3     H126450   3.302   2.888   2.600
 4877TP3     H226451   3.434   2.841   2.658
 4878TP3      O26452   2.656   1.937   2.376
 4878TP3     H126453   2.637   2.028   2.353
 4878TP3     H226454   2.584   1.887   2.338
 4879TP3      O26455   3.079   2.258   2.701
 4879TP3     H126456   3.058   2.279   2.610
 4879TP3     H226457   3.175   2.257   2.703
 4880TP3      O26458   2.198   2.313   2.714
 4880TP3     H126459   2.283   2.346   2.686
 4880TP3     H226460   2.213   2.283   2.804
 4881TP3      O26461   2.628   1.870   2.647
 4881TP3     H126462   2.695   1.801   2.644
 4881TP3     H226463   2.627   1.906   2.558
 4882TP3      O26464   2.666   3.707   1.135
 4882TP3     H126465   2.759   3.693   1.153
 4882TP3     H226466   2.663   3.788   1.085
 4883TP3      O26467   2.031   3.186   1.105
 4883TP3     H126468   2.126   3.187   1.118
 4883TP3     H226469   2.017   3.119   1.037
 4884TP3      O26470   1.911   3.711   1.631
 4884TP3     H126471   1.853   3.679   1.562
 4884TP3     H226472   1.932   3.633   1.683
 4885TP3      O26473   1.992   3.494   1.785
 4885TP3     H126474   1.957   3.423   1.839
 4885TP3     H226475   2.042   3.548   1.846
 4886TP3      O26476   3.739   3.589   2.108
 4886TP3     H126477   3.731   3.590   2.203
 4886TP3     H226478   3.804   3.657   2.089
 4887TP3      O26479   3.677   3.565   2.376
 4887TP3     H126480   3.608   3.504   2.348
 4887TP3     H226481   3.722   3.519   2.447
 4888TP3      O26482   3.501   3.161   2.858
 4888TP3     H126483   3.415   3.174   2.899
 4888TP3     H226484   3.558   3.224   2.903
 4889TP3      O26485   3.677   2.988   1.395
 4889TP3     H126486   3.751   3.050   1.399
 4889TP3     H226487   3.693   2.928   1.468
 4890TP3      O26488   3.720   2.792   1.579
 4890TP3     H126489   3.638   2.758   1.614
 4890TP3     H226490   3.778   2.799   1.655
 4891TP3      O26491   3.742   3.018   1.963
 4891TP3     H126492   3.728   3.044   2.053
 4891TP3     H226493   3.704   3.089   1.911
 4892TP3      O26494   3.491   3.384   2.298
 4892TP3     H126495   3.397   3.391   2.284
 4892TP3     H226496   3.522   3.331   2.224
 4893TP3      O26497   3.726   2.790   1.213
 4893TP3     H126498   3.677   2.817   1.136
 4893TP3     H226499   3.708   2.858   1.278
 4894TP3      O26500   3.563   2.485   1.037
 4894TP3     H126501   3.547   2.546   0.965
 4894TP3     H226502   3.542   2.399   1.000
 4895TP3      O26503   3.477   2.669   1.633
 4895TP3     H126504   3.476   2.576   1.607
 4895TP3     H226505   3.439   2.669   1.721
 4896TP3      O26506   3.607   2.858   2.596
 4896TP3     H126507   3.655   2.776   2.590
 4896TP3     H226508   3.614   2.896   2.508
 4897TP3      O26509   3.732   2.613   2.614
 4897TP3     H126510   3.639   2.593   2.622
 4897TP3     H226511   3.776   2.528   2.625
 4898TP3      O26512   3.494   2.239   0.935
 4898TP3     H126513   3.533   2.191   1.008
 4898TP3     H226514   3.401   2.215   0.937
 4899TP3      O26515   3.466   2.416   1.458
 4899TP3     H126516   3.496   2.325   1.461
 4899TP3     H226517   3.533   2.462   1.407
 4900TP3      O26518   3.495   2.458   2.012
 4900TP3     H126519   3.588   2.471   1.992
 4900TP3     H226520   3.488   2.475   2.106
 4901TP3      O26521   3.505   2.535   2.278
 4901TP3     H126522   3.430   2.578   2.319
 4901TP3     H226523   3.571   2.604   2.271
 4902TP3      O26524   1.965   2.352   2.577
 4902TP3     H126525   2.044   2.352   2.632
 4902TP3     H226526   1.915   2.277   2.609
 4903TP3      O26527   3.732   1.943   2.824
 4903TP3     H126528   3.804   1.897   2.780
 4903TP3     H226529   3.728   2.028   2.781
 4904TP3      O26530   3.529   2.148   1.479
 4904TP3     H126531   3.553   2.108   1.562
 4904TP3     H226532   3.461   2.090   1.443
 4905TP3      O26533   2.064   2.232   1.961
 4905TP3     H126534   2.101   2.144   1.956
 4905TP3     H226535   2.140   2.289   1.974
 4906TP3      O26536   1.901   2.581   2.045
 4906TP3     H126537   1.962   2.559   1.976
 4906TP3     H226538   1.931   2.532   2.121
 4907TP3      O26539   3.672   2.152   2.648
 4907TP3     H126540   3.587   2.191   2.666
 4907TP3     H226541   3.654   2.086   2.581
 4908TP3      O26542   3.660   2.123   1.128
 4908TP3     H126543   3.711   2.067   1.069
 4908TP3     H226544   3.723   2.187   1.161
 4909TP3      O26545   1.935   2.147   1.444
 4909TP3     H126546   1.840   2.138   1.451
 4909TP3     H226547   1.948   2.210   1.374
 4910TP3      O26548   3.400   3.607   1.631
 4910TP3     H126549   3.479   3.612   1.577
 4910TP3     H226550   3.420   3.661   1.707
 4911TP3      O26551   1.941   1.975   2.257
 4911TP3     H126552   1.891   1.987   2.338
 4911TP3     H226553   1.911   2.045   2.199
 4912TP3      O26554   2.136   3.371   2.676
 4912TP3     H126555   2.051   3.374   2.633
 4912TP3     H226556   2.118   3.339   2.764
 4913TP3      O26557   2.463   3.461   2.321
 4913TP3     H126558   2.435   3.550   2.304
 4913TP3     H226559   2.556   3.460   2.296
 4914TP3      O26560   2.858   3.594   2.605
 4914TP3     H126561   2.874   3.548   2.688
 4914TP3     H226562   2.940   3.639   2.587
 4915TP3      O26563   3.095   3.722   2.568
 4915TP3     H126564   3.165   3.666   2.534
 4915TP3     H226565   3.132   3.762   2.646
 4916TP3      O26566   3.612   1.946   2.465
 4916TP3     H126567   3.545   1.993   2.416
 4916TP3     H226568   3.615   1.860   2.424
 4917TP3      O26569   2.164   3.739   2.339
 4917TP3     H126570   2.087   3.780   2.300
 4917TP3     H226571   2.173   3.781   2.425
 4918TP3      O26572   2.423   3.723   2.252
 4918TP3     H126573   2.332   3.734   2.279
 4918TP3     H226574   2.430   3.775   2.172
 4919TP3      O26575   2.889   3.714   2.148
 4919TP3     H126576   2.831   3.761   2.087
 4919TP3     H226577   2.903   3.775   2.220
 4920TP3      O26578   3.110   3.568   2.235
 4920TP3     H126579   3.031   3.607   2.198
 4920TP3     H226580   3.177   3.636   2.227
 4921TP3      O26581   3.353   3.721   2.241
 4921TP3     H126582   3.374   3.813   2.222
 4921TP3     H226583   3.396   3.672   2.171
 4922TP3      O26584   2.148   3.607   1.993
 4922TP3     H126585   2.132   3.568   2.079
 4922TP3     H226586   2.230   3.568   1.964
 4923TP3      O26587   2.368   3.472   1.899
 4923TP3     H126588   2.362   3.393   1.953
 4923TP3     H226589   2.457   3.503   1.912
 4924TP3      O26590   2.633   3.523   1.964
 4924TP3     H126591   2.711   3.490   1.920
 4924TP3     H226592   2.652   3.512   2.058
 4925TP3      O26593   2.908   1.994   1.856
 4925TP3     H126594   2.822   1.965   1.887
 4925TP3     H226595   2.893   2.022   1.766
 4926TP3      O26596   3.441   1.911   1.868
 4926TP3     H126597   3.509   1.964   1.826
 4926TP3     H226598   3.362   1.930   1.817
 4927TP3      O26599   3.623   2.023   1.704
 4927TP3     H126600   3.687   1.957   1.677
 4927TP3     H226601   3.676   2.101   1.724
 4928TP3      O26602   2.160   1.940   1.647
 4928TP3     H126603   2.069   1.922   1.624
 4928TP3     H226604   2.205   1.857   1.634
 4929TP3      O26605   2.076   1.959   1.264
 4929TP3     H126606   2.128   2.013   1.204
 4929TP3     H226607   2.038   2.021   1.326
 4930TP3      O26608   2.645   1.911   1.661
 4930TP3     H126609   2.715   1.970   1.633
 4930TP3     H226610   2.650   1.911   1.756
 4931TP3      O26611   3.204   1.948   1.731
 4931TP3     H126612   3.223   1.985   1.645
 4931TP3     H226613   3.173   1.859   1.713
 4932TP3      O26614   3.321   1.981   1.395
 4932TP3     H126615   3.242   2.034   1.398
 4932TP3     H226616   3.289   1.891   1.401
 4933TP3      O26617   2.045   3.565   1.333
 4933TP3     H126618   1.969   3.558   1.275
 4933TP3     H226619   2.073   3.656   1.324
 4934TP3      O26620   2.257   2.107   1.089
 4934TP3     H126621   2.306   2.049   1.030
 4934TP3     H226622   2.323   2.141   1.149
 4935TP3      O26623   2.722   2.178   1.331
 4935TP3     H126624   2.749   2.102   1.382
 4935TP3     H226625   2.748   2.253   1.385
 4936TP3      O26626   2.937   3.661   1.152
 4936TP3     H126627   3.032   3.669   1.153
 4936TP3     H226628   2.919   3.595   1.084
 4937TP3      O26629   3.613   3.626   1.452
 4937TP3     H126630   3.595   3.538   1.418
 4937TP3     H226631   3.593   3.684   1.379
 4938TP3      O26632   2.191   1.954   2.585
 4938TP3     H126633   2.130   1.890   2.622
 4938TP3     H226634   2.262   1.959   2.648
 4939TP3      O26635   2.382   1.866   2.789
 4939TP3     H126636   2.469   1.869   2.747
 4939TP3     H226637   2.380   1.783   2.835
 4940TP3      O26638   2.242   3.629   1.017
 4940TP3     H126639   2.221   3.631   1.110
 4940TP3     H226640   2.314   3.566   1.010
 4941TP3      O26641   3.244   1.862   2.811
 4941TP3     H126642   3.259   1.807   2.888
 4941TP3     H226643   3.331   1.874   2.773
 4942TP3      O26644   3.497   3.490   2.644
 4942TP3     H126645   3.429   3.486   2.576
 4942TP3     H226646   3.492   3.579   2.678
 4943TP3      O26647   4.952   2.901   1.644
 4943TP3     H126648   4.954   2.994   1.624
 4943TP3     H226649   4.895   2.862   1.578
 4944TP3      O26650   4.877   2.763   2.014
 4944TP3     H126651   4.900   2.748   2.106
 4944TP3     H226652   4.918   2.690   1.968
 4945TP3      O26653   4.105   2.781   2.130
 4945TP3     H126654   4.106   2.702   2.184
 4945TP3     H226655   4.081   2.851   2.191
 4946TP3      O26656   5.237   3.125   1.854
 4946TP3     H126657   5.227   3.042   1.902
 4946TP3     H226658   5.261   3.188   1.922
 4947TP3      O26659   4.237   3.224   1.973
 4947TP3     H126660   4.211   3.132   1.968
 4947TP3     H226661   4.332   3.222   1.980
 4948TP3      O26662   3.863   2.556   1.496
 4948TP3     H126663   3.831   2.638   1.533
 4948TP3     H226664   3.798   2.534   1.428
 4949TP3      O26665   3.934   2.771   1.747
 4949TP3     H126666   3.949   2.694   1.803
 4949TP3     H226667   4.020   2.788   1.708
 4950TP3      O26668   4.965   3.593   1.888
 4950TP3     H126669   5.001   3.535   1.820
 4950TP3     H226670   4.938   3.533   1.958
 4951TP3      O26671   4.728   3.031   1.993
 4951TP3     H126672   4.778   3.083   1.930
 4951TP3     H226673   4.783   3.029   2.071
 4952TP3      O26674   5.003   2.469   2.042
 4952TP3     H126675   5.022   2.377   2.060
 4952TP3     H226676   4.999   2.474   1.946
 4953TP3      O26677   4.369   2.293   1.772
 4953TP3     H126678   4.369   2.378   1.729
 4953TP3     H226679   4.313   2.238   1.717
 4954TP3      O26680   5.115   2.318   1.613
 4954TP3     H126681   5.157   2.284   1.692
 4954TP3     H226682   5.187   2.354   1.561
 4955TP3      O26683   4.010   2.530   1.860
 4955TP3     H126684   4.075   2.488   1.916
 4955TP3     H226685   4.030   2.496   1.772
 4956TP3      O26686   4.527   2.678   1.771
 4956TP3     H126687   4.582   2.612   1.813
 4956TP3     H226688   4.462   2.628   1.722
 4957TP3      O26689   4.231   2.205   2.199
 4957TP3     H126690   4.208   2.265   2.129
 4957TP3     H226691   4.158   2.212   2.261
 4958TP3      O26692   4.951   3.150   1.528
 4958TP3     H126693   4.930   3.145   1.435
 4958TP3     H226694   4.903   3.227   1.559
 4959TP3      O26695   4.506   3.007   2.225
 4959TP3     H126696   4.435   3.063   2.257
 4959TP3     H226697   4.571   3.068   2.191
 4960TP3      O26698   5.216   2.258   1.852
 4960TP3     H126699   5.162   2.205   1.910
 4960TP3     H226700   5.279   2.301   1.911
 4961TP3      O26701   4.207   2.374   1.984
 4961TP3     H126702   4.261   2.437   2.031
 4961TP3     H226703   4.265   2.339   1.915
 4962TP3      O26704   4.330   3.191   2.314
 4962TP3     H126705   4.336   3.285   2.297
 4962TP3     H226706   4.239   3.177   2.342
 4963TP3      O26707   3.900   3.157   1.374
 4963TP3     H126708   3.891   3.202   1.291
 4963TP3     H226709   3.923   3.225   1.437
 4964TP3      O26710   5.267   3.318   2.060
 4964TP3     H126711   5.173   3.326   2.072
 4964TP3     H226712   5.298   3.408   2.047
 4965TP3      O26713   5.291   2.126   2.157
 4965TP3     H126714   5.199   2.141   2.134
 4965TP3     H226715   5.337   2.202   2.121
 4966TP3      O26716   4.581   1.893   1.949
 4966TP3     H126717   4.553   1.801   1.949
 4966TP3     H226718   4.504   1.941   1.978
 4967TP3      O26719   5.085   3.461   1.677
 4967TP3     H126720   5.132   3.380   1.658
 4967TP3     H226721   5.152   3.529   1.675
 4968TP3      O26722   5.211   3.232   1.602
 4968TP3     H126723   5.132   3.187   1.570
 4968TP3     H226724   5.231   3.189   1.685
 4969TP3      O26725   5.385   3.036   2.436
 4969TP3     H126726   5.387   2.987   2.354
 4969TP3     H226727   5.402   3.127   2.409
 4970TP3      O26728   4.822   2.810   1.418
 4970TP3     H126729   4.756   2.873   1.390
 4970TP3     H226730   4.887   2.811   1.347
 4971TP3      O26731   4.865   2.660   1.082
 4971TP3     H126732   4.922   2.690   1.153
 4971TP3     H226733   4.922   2.605   1.028
 4972TP3      O26734   5.178   2.846   1.491
 4972TP3     H126735   5.112   2.867   1.557
 4972TP3     H226736   5.240   2.789   1.536
 4973TP3      O26737   5.157   2.637   2.431
 4973TP3     H126738   5.153   2.705   2.498
 4973TP3     H226739   5.087   2.658   2.370
 4974TP3      O26740   4.326   2.863   1.673
 4974TP3     H126741   4.301   2.835   1.585
 4974TP3     H226742   4.394   2.801   1.699
 4975TP3      O26743   4.510   3.245   1.929
 4975TP3     H126744   4.492   3.257   1.836
 4975TP3     H226745   4.571   3.172   1.932
 4976TP3      O26746   4.442   2.811   2.050
 4976TP3     H126747   4.367   2.848   2.005
 4976TP3     H226748   4.457   2.869   2.124
 4977TP3      O26749   4.999   3.332   2.121
 4977TP3     H126750   4.995   3.405   2.183
 4977TP3     H226751   4.965   3.257   2.170
 4978TP3      O26752   4.480   3.220   2.545
 4978TP3     H126753   4.419   3.283   2.583
 4978TP3     H226754   4.437   3.190   2.465
 4979TP3      O26755   5.052   2.756   1.267
 4979TP3     H126756   5.098   2.793   1.343
 4979TP3     H226757   5.106   2.782   1.192
 4980TP3      O26758   4.166   2.768   2.488
 4980TP3     H126759   4.180   2.855   2.526
 4980TP3     H226760   4.071   2.763   2.475
 4981TP3      O26761   4.834   3.389   1.598
 4981TP3     H126762   4.917   3.422   1.633
 4981TP3     H226763   4.794   3.463   1.554
 4982TP3      O26764   4.284   3.411   2.601
 4982TP3     H126765   4.291   3.432   2.508
 4982TP3     H226766   4.192   3.390   2.615
 4983TP3      O26767   5.410   1.891   1.235
 4983TP3     H126768   5.332   1.937   1.265
 4983TP3     H226769   5.476   1.958   1.226
 4984TP3      O26770   4.248   2.789   1.415
 4984TP3     H126771   4.192   2.856   1.377
 4984TP3     H226772   4.205   2.706   1.392
 4985TP3      O26773   3.983   2.963   2.303
 4985TP3     H126774   3.904   3.008   2.273
 4985TP3     H226775   3.950   2.894   2.361
 4986TP3      O26776   3.803   3.342   1.983
 4986TP3     H126777   3.813   3.272   2.048
 4986TP3     H226778   3.778   3.419   2.034
 4987TP3      O26779   4.720   3.338   2.470
 4987TP3     H126780   4.734   3.410   2.531
 4987TP3     H226781   4.638   3.298   2.499
 4988TP3      O26782   4.810   3.675   1.458
 4988TP3     H126783   4.780   3.683   1.367
 4988TP3     H226784   4.782   3.756   1.500
 4989TP3      O26785   4.161   3.566   1.640
 4989TP3     H126786   4.175   3.538   1.730
 4989TP3     H226787   4.099   3.502   1.604
 4990TP3      O26788   5.088   3.638   1.140
 4990TP3     H126789   5.137   3.563   1.107
 4990TP3     H226790   5.095   3.631   1.235
 4991TP3      O26791   5.071   3.617   1.411
 4991TP3     H126792   4.979   3.631   1.433
 4991TP3     H226793   5.106   3.568   1.485
 4992TP3      O26794   5.447   2.618   2.567
 4992TP3     H126795   5.366   2.578   2.534
 4992TP3     H226796   5.504   2.544   2.585
 4993TP3      O26797   4.085   3.187   2.431
 4993TP3     H126798   4.109   3.141   2.511
 4993TP3     H226799   4.037   3.122   2.380
 4994TP3      O26800   4.336   2.005   2.035
 4994TP3     H126801   4.260   1.994   1.978
 4994TP3     H226802   4.313   2.078   2.093
 4995TP3      O26803   4.796   1.985   2.377
 4995TP3     H126804   4.837   1.930   2.443
 4995TP3     H226805   4.702   1.974   2.391
 4996TP3      O26806   5.113   2.365   2.458
 4996TP3     H126807   5.037   2.358   2.516
 4996TP3     H226808   5.124   2.460   2.445
 4997TP3      O26809   5.209   2.812   1.062
 4997TP3     H126810   5.185   2.815   0.970
 4997TP3     H226811   5.303   2.829   1.063
 4998TP3      O26812   4.761   2.213   1.107
 4998TP3     H126813   4.704   2.211   1.184
 4998TP3     H226814   4.724   2.148   1.048
 4999TP3      O26815   4.357   2.549   2.138
 4999TP3     H126816   4.287   2.554   2.202
 4999TP3     H226817   4.375   2.640   2.114
 5000TP3      O26818   4.341   2.531   1.638
 5000TP3     H126819   4.246   2.518   1.637
 5000TP3     H226820   4.369   2.509   1.549
 5001TP3      O26821   4.883   2.563   1.521
 5001TP3     H126822   4.858   2.649   1.488
 5001TP3     H226823   4.951   2.533   1.461
 5002TP3      O26824   4.794   2.620   2.635
 5002TP3     H126825   4.774   2.549   2.696
 5002TP3     H226826   4.838   2.686   2.689
 5003TP3      O26827   4.990   2.505   1.773
 5003TP3     H126828   4.944   2.554   1.705
 5003TP3     H226829   5.028   2.430   1.728
 5004TP3      O26830   4.139   2.543   2.304
 5004TP3     H126831   4.138   2.597   2.383
 5004TP3     H226832   4.096   2.462   2.330
 5005TP3      O26833   4.449   2.264   0.999
 5005TP3     H126834   4.414   2.250   1.087
 5005TP3     H226835   4.390   2.330   0.960
 5006TP3      O26836   3.794   2.225   1.728
 5006TP3     H126837   3.853   2.236   1.803
 5006TP3     H226838   3.852   2.226   1.652
 5007TP3      O26839   3.833   2.317   1.228
 5007TP3     H126840   3.902   2.358   1.175
 5007TP3     H226841   3.776   2.390   1.253
 5008TP3      O26842   4.947   2.636   2.249
 5008TP3     H126843   4.974   2.573   2.182
 5008TP3     H226844   4.877   2.591   2.297
 5009TP3      O26845   4.653   2.249   1.736
 5009TP3     H126846   4.562   2.253   1.766
 5009TP3     H226847   4.700   2.207   1.808
 5010TP3      O26848   4.084   2.443   1.613
 5010TP3     H126849   4.008   2.473   1.563
 5010TP3     H226850   4.099   2.353   1.582
 5011TP3      O26851   4.411   2.451   1.391
 5011TP3     H126852   4.506   2.445   1.401
 5011TP3     H226853   4.398   2.491   1.304
 5012TP3      O26854   5.028   2.189   2.062
 5012TP3     H126855   4.987   2.199   2.148
 5012TP3     H226856   4.960   2.152   2.006
 5013TP3      O26857   4.363   2.542   1.141
 5013TP3     H126858   4.315   2.519   1.061
 5013TP3     H226859   4.441   2.588   1.109
 5014TP3      O26860   5.366   3.781   2.725
 5014TP3     H126861   5.390   3.811   2.637
 5014TP3     H226862   5.410   3.843   2.783
 5015TP3      O26863   4.163   3.014   2.639
 5015TP3     H126864   4.226   2.998   2.709
 5015TP3     H226865   4.078   3.013   2.684
 5016TP3      O26866   4.695   2.540   1.930
 5016TP3     H126867   4.764   2.484   1.894
 5016TP3     H226868   4.666   2.495   2.009
 5017TP3      O26869   4.194   2.172   1.586
 5017TP3     H126870   4.141   2.096   1.610
 5017TP3     H226871   4.236   2.147   1.504
 5018TP3      O26872   4.604   2.429   2.166
 5018TP3     H126873   4.521   2.477   2.168
 5018TP3     H226874   4.652   2.461   2.242
 5019TP3      O26875   4.631   3.001   1.350
 5019TP3     H126876   4.559   2.964   1.298
 5019TP3     H226877   4.591   3.020   1.435
 5020TP3      O26878   5.382   2.909   2.195
 5020TP3     H126879   5.457   2.884   2.141
 5020TP3     H226880   5.308   2.913   2.135
 5021TP3      O26881   5.014   2.261   1.190
 5021TP3     H126882   4.923   2.259   1.160
 5021TP3     H226883   5.026   2.349   1.226
 5022TP3      O26884   4.767   3.058   2.448
 5022TP3     H126885   4.741   3.030   2.536
 5022TP3     H226886   4.764   3.154   2.452
 5023TP3      O26887   5.085   2.490   1.336
 5023TP3     H126888   5.174   2.472   1.366
 5023TP3     H226889   5.088   2.580   1.303
 5024TP3      O26890   4.237   2.943   1.929
 5024TP3     H126891   4.240   2.920   1.836
 5024TP3     H226892   4.165   2.890   1.965
 5025TP3      O26893   4.842   3.150   1.270
 5025TP3     H126894   4.811   3.241   1.274
 5025TP3     H226895   4.766   3.097   1.294
 5026TP3      O26896   3.898   2.742   2.443
 5026TP3     H126897   3.858   2.704   2.521
 5026TP3     H226898   3.831   2.734   2.375
 5027TP3      O26899   4.558   2.766   2.668
 5027TP3     H126900   4.496   2.719   2.612
 5027TP3     H226901   4.642   2.725   2.650
 5028TP3      O26902   5.011   3.306   2.474
 5028TP3     H126903   4.918   3.322   2.458
 5028TP3     H226904   5.024   3.332   2.566
 5029TP3      O26905   5.413   3.355   1.337
 5029TP3     H126906   5.352   3.306   1.392
 5029TP3     H226907   5.463   3.288   1.290
 5030TP3      O26908   5.181   2.881   1.999
 5030TP3     H126909   5.085   2.882   1.994
 5030TP3     H226910   5.206   2.800   1.955
 5031TP3      O26911   4.420   3.305   1.672
 5031TP3     H126912   4.445   3.388   1.633
 5031TP3     H226913   4.325   3.310   1.682
 5032TP3      O26914   3.988   2.762   1.137
 5032TP3     H126915   4.032   2.833   1.184
 5032TP3     H226916   3.897   2.768   1.166
 5033TP3      O26917   4.507   3.059   1.583
 5033TP3     H126918   4.485   3.147   1.612
 5033TP3     H226919   4.438   3.003   1.621
 5034TP3      O26920   4.618   3.484   2.250
 5034TP3     H126921   4.678   3.555   2.225
 5034TP3     H226922   4.668   3.432   2.312
 5035TP3      O26923   4.423   3.565   1.564
 5035TP3     H126924   4.330   3.578   1.583
 5035TP3     H226925   4.466   3.644   1.599
 5036TP3      O26926   4.901   3.043   2.214
 5036TP3     H126927   4.852   3.042   2.297
 5036TP3     H226928   4.991   3.022   2.239
 5037TP3      O26929   5.214   3.176   1.112
 5037TP3     H126930   5.233   3.130   1.195
 5037TP3     H226931   5.125   3.150   1.090
 5038TP3      O26932   5.253   3.498   2.435
 5038TP3     H126933   5.168   3.454   2.427
 5038TP3     H226934   5.245   3.575   2.378
 5039TP3      O26935   4.026   2.244   2.379
 5039TP3     H126936   3.934   2.271   2.382
 5039TP3     H226937   4.030   2.168   2.437
 5040TP3      O26938   5.298   3.047   1.340
 5040TP3     H126939   5.247   2.983   1.389
 5040TP3     H226940   5.383   3.049   1.384
 5041TP3      O26941   4.016   3.480   2.235
 5041TP3     H126942   4.020   3.394   2.278
 5041TP3     H226943   4.020   3.543   2.307
 5042TP3      O26944   4.567   3.302   0.985
 5042TP3     H126945   4.572   3.219   0.937
 5042TP3     H226946   4.525   3.279   1.068
 5043TP3      O26947   4.441   3.262   1.227
 5043TP3     H126948   4.490   3.210   1.291
 5043TP3     H226949   4.451   3.352   1.255
 5044TP3      O26950   4.089   2.973   1.288
 5044TP3     H126951   4.020   3.021   1.333
 5044TP3     H226952   4.135   3.039   1.235
 5045TP3      O26953   4.917   2.219   2.303
 5045TP3     H126954   4.978   2.241   2.373
 5045TP3     H226955   4.872   2.141   2.335
 5046TP3      O26956   4.979   2.151   1.442
 5046TP3     H126957   4.990   2.189   1.355
 5046TP3     H226958   5.020   2.214   1.501
 5047TP3      O26959   4.744   3.400   1.281
 5047TP3     H126960   4.655   3.432   1.297
 5047TP3     H226961   4.793   3.478   1.254
 5048TP3      O26962   4.669   2.392   1.499
 5048TP3     H126963   4.743   2.453   1.505
 5048TP3     H226964   4.664   2.353   1.586
 5049TP3      O26965   4.766   2.486   2.388
 5049TP3     H126966   4.770   2.528   2.474
 5049TP3     H226967   4.800   2.398   2.403
 5050TP3      O26968   4.746   2.056   1.551
 5050TP3     H126969   4.723   2.126   1.612
 5050TP3     H226970   4.831   2.083   1.514
 5051TP3      O26971   4.497   3.514   1.308
 5051TP3     H126972   4.501   3.598   1.263
 5051TP3     H226973   4.469   3.536   1.397
 5052TP3      O26974   4.347   2.211   1.252
 5052TP3     H126975   4.337   2.294   1.299
 5052TP3     H226976   4.433   2.179   1.278
 5053TP3      O26977   5.370   2.291   2.481
 5053TP3     H126978   5.276   2.295   2.462
 5053TP3     H226979   5.412   2.333   2.406
 5054TP3      O26980   5.225   2.625   1.885
 5054TP3     H126981   5.145   2.585   1.851
 5054TP3     H226982   5.263   2.558   1.942
 5055TP3      O26983   4.194   3.176   1.130
 5055TP3     H126984   4.266   3.224   1.170
 5055TP3     H226985   4.236   3.122   1.063
 5056TP3      O26986   3.976   2.491   1.073
 5056TP3     H126987   3.997   2.578   1.107
 5056TP3     H226988   3.940   2.508   0.986
 5057TP3      O26989   5.364   3.583   2.057
 5057TP3     H126990   5.348   3.648   1.988
 5057TP3     H226991   5.459   3.584   2.068
 5058TP3      O26992   4.089   1.976   1.916
 5058TP3     H126993   4.078   1.968   1.821
 5058TP3     H226994   4.054   1.895   1.952
 5059TP3      O26995   3.964   3.387   1.529
 5059TP3     H126996   3.913   3.419   1.603
 5059TP3     H226997   3.949   3.452   1.460
 5060TP3      O26998   3.942   3.641   2.672
 5060TP3     H126999   3.995   3.570   2.709
 5060TP3     H227000   3.867   3.596   2.632
 5061TP3      O27001   4.360   3.446   2.860
 5061TP3     H127002   4.418   3.372   2.874
 5061TP3     H227003   4.335   3.439   2.768
 5062TP3      O27004   4.771   3.479   0.957
 5062TP3     H127005   4.701   3.417   0.975
 5062TP3     H227006   4.847   3.425   0.936
 5063TP3      O27007   5.018   3.384   2.738
 5063TP3     H127008   4.972   3.313   2.783
 5063TP3     H227009   5.096   3.400   2.793
 5064TP3      O27010   5.216   3.433   1.021
 5064TP3     H127011   5.228   3.349   1.066
 5064TP3     H227012   5.286   3.436   0.956
 5065TP3      O27013   3.904   3.035   2.750
 5065TP3     H127014   3.904   2.939   2.748
 5065TP3     H227015   3.839   3.061   2.685
 5066TP3      O27016   4.333   3.002   0.974
 5066TP3     H127017   4.360   2.953   1.052
 5066TP3     H227018   4.415   3.021   0.929
 5067TP3      O27019   4.639   3.040   2.692
 5067TP3     H127020   4.568   3.088   2.649
 5067TP3     H227021   4.600   2.955   2.712
 5068TP3      O27022   4.956   3.132   1.024
 5068TP3     H127023   4.910   3.134   1.107
 5068TP3     H227024   4.930   3.049   0.984
 5069TP3      O27025   5.109   3.045   2.449
 5069TP3     H127026   5.203   3.057   2.439
 5069TP3     H227027   5.074   3.134   2.458
 5070TP3      O27028   4.004   2.779   2.776
 5070TP3     H127029   4.064   2.711   2.744
 5070TP3     H227030   4.016   2.778   2.871
 5071TP3      O27031   4.433   2.871   1.208
 5071TP3     H127032   4.379   2.827   1.273
 5071TP3     H227033   4.483   2.800   1.166
 5072TP3      O27034   4.408   2.632   2.469
 5072TP3     H127035   4.327   2.683   2.468
 5072TP3     H227036   4.466   2.678   2.408
 5073TP3      O27037   4.585   2.683   1.073
 5073TP3     H127038   4.582   2.705   0.980
 5073TP3     H227039   4.678   2.667   1.091
 5074TP3      O27040   4.885   2.819   2.807
 5074TP3     H127041   4.938   2.888   2.767
 5074TP3     H227042   4.850   2.859   2.887
 5075TP3      O27043   5.472   2.881   1.006
 5075TP3     H127044   5.460   2.860   0.913
 5075TP3     H227045   5.459   2.976   1.011
 5076TP3      O27046   4.463   2.379   2.551
 5076TP3     H127047   4.466   2.320   2.476
 5076TP3     H227048   4.449   2.465   2.513
 5077TP3      O27049   4.475   2.224   2.315
 5077TP3     H127050   4.528   2.275   2.254
 5077TP3     H227051   4.389   2.221   2.275
 5078TP3      O27052   4.595   2.771   2.327
 5078TP3     H127053   4.682   2.783   2.366
 5078TP3     H227054   4.567   2.859   2.302
 5079TP3      O27055   5.082   2.502   2.895
 5079TP3     H127056   5.134   2.454   2.830
 5079TP3     H227057   5.122   2.588   2.898
 5080TP3      O27058   5.165   2.841   2.625
 5080TP3     H127059   5.127   2.910   2.569
 5080TP3     H227060   5.256   2.867   2.637
 5081TP3      O27061   4.284   2.435   2.758
 5081TP3     H127062   4.204   2.392   2.729
 5081TP3     H227063   4.343   2.429   2.682
 5082TP3      O27064   4.523   1.960   2.379
 5082TP3     H127065   4.504   2.051   2.357
 5082TP3     H227066   4.455   1.910   2.333
 5083TP3      O27067   4.674   2.371   2.731
 5083TP3     H127068   4.641   2.428   2.801
 5083TP3     H227069   4.600   2.362   2.671
 5084TP3      O27070   4.906   2.299   2.614
 5084TP3     H127071   4.821   2.322   2.652
 5084TP3     H227072   4.957   2.265   2.687
 5085TP3      O27073   5.076   2.119   2.794
 5085TP3     H127074   5.126   2.039   2.780
 5085TP3     H227075   4.985   2.093   2.786
 5086TP3      O27076   4.073   2.254   2.719
 5086TP3     H127077   4.065   2.179   2.659
 5086TP3     H227078   4.103   2.216   2.801
 5087TP3      O27079   4.516   1.877   2.639
 5087TP3     H127080   4.577   1.803   2.631
 5087TP3     H227081   4.509   1.912   2.550
 5088TP3      O27082   4.568   2.032   2.862
 5088TP3     H127083   4.545   1.994   2.777
 5088TP3     H227084   4.514   2.111   2.868
 5089TP3      O27085   4.565   3.751   1.183
 5089TP3     H127086   4.656   3.721   1.176
 5089TP3     H227087   4.557   3.817   1.114
 5090TP3      O27088   3.929   3.222   1.079
 5090TP3     H127089   4.022   3.215   1.102
 5090TP3     H227090   3.914   3.149   1.019
 5091TP3      O27091   3.805   3.720   1.620
 5091TP3     H127092   3.743   3.689   1.554
 5091TP3     H227093   3.822   3.643   1.675
 5092TP3      O27094   3.879   3.507   1.776
 5092TP3     H127095   3.839   3.434   1.825
 5092TP3     H227096   3.923   3.559   1.843
 5093TP3      O27097   5.371   3.156   2.934
 5093TP3     H127098   5.276   3.159   2.947
 5093TP3     H227099   5.395   3.246   2.912
 5094TP3      O27100   5.388   3.281   2.317
 5094TP3     H127101   5.357   3.362   2.356
 5094TP3     H227102   5.363   3.287   2.225
 5095TP3      O27103   5.486   2.482   1.010
 5095TP3     H127104   5.439   2.539   0.948
 5095TP3     H227105   5.445   2.397   1.001
 5096TP3      O27106   5.324   2.661   1.627
 5096TP3     H127107   5.317   2.569   1.600
 5096TP3     H227108   5.307   2.659   1.721
 5097TP3      O27109   3.838   2.774   2.043
 5097TP3     H127110   3.807   2.854   2.000
 5097TP3     H227111   3.932   2.786   2.051
 5098TP3      O27112   5.440   2.882   2.659
 5098TP3     H127113   5.454   2.794   2.625
 5098TP3     H227114   5.436   2.938   2.582
 5099TP3      O27115   5.362   2.245   0.968
 5099TP3     H127116   5.401   2.158   0.967
 5099TP3     H227117   5.270   2.231   0.950
 5100TP3      O27118   5.333   2.413   1.467
 5100TP3     H127119   5.352   2.319   1.466
 5100TP3     H227120   5.419   2.455   1.462
 5101TP3      O27121   5.358   2.389   2.046
 5101TP3     H127122   5.439   2.432   2.019
 5101TP3     H227123   5.341   2.424   2.134
 5102TP3      O27124   5.362   2.520   2.286
 5102TP3     H127125   5.291   2.569   2.327
 5102TP3     H227126   5.424   2.586   2.256
 5103TP3      O27127   3.839   2.361   2.605
 5103TP3     H127128   3.922   2.341   2.649
 5103TP3     H227129   3.780   2.290   2.631
 5104TP3      O27130   5.369   2.141   1.493
 5104TP3     H127131   5.376   2.110   1.583
 5104TP3     H227132   5.306   2.081   1.452
 5105TP3      O27133   3.964   2.222   1.945
 5105TP3     H127134   4.002   2.134   1.945
 5105TP3     H227135   4.037   2.280   1.964
 5106TP3      O27136   3.761   2.515   1.992
 5106TP3     H127137   3.837   2.493   1.938
 5106TP3     H227138   3.774   2.607   2.016
 5107TP3      O27139   3.825   2.134   1.427
 5107TP3     H127140   3.731   2.130   1.443
 5107TP3     H227141   3.836   2.203   1.362
 5108TP3      O27142   5.261   3.657   1.640
 5108TP3     H127143   5.331   3.651   1.576
 5108TP3     H227144   5.302   3.694   1.718
 5109TP3      O27145   3.820   1.981   2.267
 5109TP3     H127146   3.759   1.979   2.341
 5109TP3     H227147   3.784   2.048   2.209
 5110TP3      O27148   4.025   3.373   2.704
 5110TP3     H127149   3.950   3.369   2.645
 5110TP3     H227150   3.995   3.326   2.783
 5111TP3      O27151   4.358   3.465   2.334
 5111TP3     H127152   4.322   3.549   2.305
 5111TP3     H227153   4.450   3.468   2.309
 5112TP3      O27154   4.778   3.542   2.645
 5112TP3     H127155   4.836   3.491   2.702
 5112TP3     H227156   4.834   3.612   2.610
 5113TP3      O27157   4.959   3.724   2.556
 5113TP3     H127158   5.028   3.682   2.505
 5113TP3     H227159   5.001   3.750   2.638
 5114TP3      O27160   5.410   1.900   2.465
 5114TP3     H127161   5.337   1.905   2.403
 5114TP3     H227162   5.471   1.839   2.425
 5115TP3      O27163   4.055   3.767   2.352
 5115TP3     H127164   3.975   3.799   2.310
 5115TP3     H227165   4.060   3.815   2.434
 5116TP3      O27166   4.309   3.724   2.262
 5116TP3     H127167   4.219   3.740   2.289
 5116TP3     H227168   4.317   3.769   2.177
 5117TP3      O27169   4.771   3.696   2.160
 5117TP3     H127170   4.723   3.732   2.085
 5117TP3     H227171   4.783   3.771   2.219
 5118TP3      O27172   4.998   3.570   2.259
 5118TP3     H127173   4.923   3.616   2.221
 5118TP3     H227174   5.071   3.631   2.248
 5119TP3      O27175   5.235   3.718   2.258
 5119TP3     H127176   5.238   3.808   2.226
 5119TP3     H227177   5.284   3.668   2.192
 5120TP3      O27178   4.022   3.615   1.997
 5120TP3     H127179   4.007   3.571   2.080
 5120TP3     H227180   4.098   3.571   1.959
 5121TP3      O27181   4.232   3.482   1.891
 5121TP3     H127182   4.217   3.393   1.922
 5121TP3     H227183   4.317   3.507   1.928
 5122TP3      O27184   4.492   3.514   2.001
 5122TP3     H127185   4.505   3.425   1.969
 5122TP3     H227186   4.523   3.512   2.092
 5123TP3      O27187   4.818   2.080   1.896
 5123TP3     H127188   4.755   2.010   1.913
 5123TP3     H227189   4.892   2.036   1.854
 5124TP3      O27190   5.310   1.900   1.918
 5124TP3     H127191   5.363   1.962   1.868
 5124TP3     H227192   5.220   1.923   1.896
 5125TP3      O27193   5.454   2.047   1.742
 5125TP3     H127194   5.516   1.990   1.698
 5125TP3     H227195   5.498   2.132   1.746
 5126TP3      O27196   4.053   1.941   1.646
 5126TP3     H127197   3.961   1.925   1.623
 5126TP3     H227198   4.095   1.856   1.632
 5127TP3      O27199   3.962   1.953   1.256
 5127TP3     H127200   4.014   2.011   1.200
 5127TP3     H227201   3.920   2.012   1.319
 5128TP3      O27202   4.536   1.907   1.664
 5128TP3     H127203   4.606   1.957   1.622
 5128TP3     H227204   4.558   1.910   1.757
 5129TP3      O27205   5.046   1.945   1.808
 5129TP3     H127206   5.087   1.926   1.723
 5129TP3     H227207   5.017   1.860   1.840
 5130TP3      O27208   5.186   1.975   1.385
 5130TP3     H127209   5.107   2.027   1.398
 5130TP3     H227210   5.156   1.884   1.397
 5131TP3      O27211   3.931   3.568   1.328
 5131TP3     H127212   3.852   3.558   1.275
 5131TP3     H227213   3.954   3.660   1.320
 5132TP3      O27214   4.143   2.108   1.087
 5132TP3     H127215   4.193   2.051   1.029
 5132TP3     H227216   4.208   2.142   1.148
 5133TP3      O27217   4.608   2.184   1.335
 5133TP3     H127218   4.639   2.110   1.386
 5133TP3     H227219   4.631   2.261   1.388
 5134TP3      O27220   4.816   3.648   1.165
 5134TP3     H127221   4.911   3.662   1.158
 5134TP3     H227222   4.794   3.596   1.088
 5135TP3      O27223   5.432   3.613   1.422
 5135TP3     H127224   5.423   3.523   1.392
 5135TP3     H227225   5.419   3.666   1.343
 5136TP3      O27226   4.051   2.014   2.575
 5136TP3     H127227   3.985   1.951   2.605
 5136TP3     H227228   4.130   1.990   2.623
 5137TP3      O27229   4.246   1.926   2.741
 5137TP3     H127230   4.334   1.896   2.719
 5137TP3     H227231   4.212   1.859   2.801
 5138TP3      O27232   4.123   3.620   1.015
 5138TP3     H127233   4.099   3.613   1.108
 5138TP3     H227234   4.200   3.565   1.005
 5139TP3      O27235   5.168   1.860   2.769
 5139TP3     H127236   5.158   1.765   2.760
 5139TP3     H227237   5.263   1.874   2.763
 5140TP3      O27238   5.418   3.521   2.668
 5140TP3     H127239   5.372   3.502   2.586
 5140TP3     H227240   5.393   3.611   2.689
 5141TP3      O27241   1.212   4.785   1.631
 5141TP3     H127242   1.204   4.879   1.616
 5141TP3     H227243   1.143   4.746   1.577
 5142TP3      O27244   1.084   4.693   2.027
 5142TP3     H127245   1.115   4.649   2.107
 5142TP3     H227246   1.037   4.624   1.979
 5143TP3      O27247   0.308   4.634   2.154
 5143TP3     H127248   0.313   4.555   2.208
 5143TP3     H227249   0.398   4.649   2.125
 5144TP3      O27250   1.464   4.992   1.851
 5144TP3     H127251   1.434   4.914   1.897
 5144TP3     H227252   1.482   5.055   1.921
 5145TP3      O27253   0.446   5.078   1.981
 5145TP3     H127254   0.413   4.994   1.948
 5145TP3     H227255   0.541   5.068   1.980
 5146TP3      O27256   0.041   4.418   1.494
 5146TP3     H127257   0.018   4.500   1.538
 5146TP3     H227258   0.051   4.355   1.566
 5147TP3      O27259   0.160   4.673   1.814
 5147TP3     H127260   0.194   4.584   1.823
 5147TP3     H227261   0.239   4.727   1.806
 5148TP3      O27262   1.175   5.377   1.850
 5148TP3     H127263   1.258   5.359   1.807
 5148TP3     H227264   1.180   5.330   1.933
 5149TP3      O27265   0.938   4.935   2.038
 5149TP3     H127266   0.978   4.853   2.010
 5149TP3     H227267   1.006   4.978   2.090
 5150TP3      O27268   1.814   4.080   2.142
 5150TP3     H127269   1.821   4.145   2.212
 5150TP3     H227270   1.865   4.117   2.070
 5151TP3      O27271   1.244   4.368   2.047
 5151TP3     H127272   1.258   4.274   2.060
 5151TP3     H227273   1.233   4.377   1.953
 5152TP3      O27274   0.618   4.174   1.767
 5152TP3     H127275   0.617   4.260   1.725
 5152TP3     H227276   0.558   4.121   1.714
 5153TP3      O27277   1.369   4.201   1.620
 5153TP3     H127278   1.409   4.171   1.701
 5153TP3     H227279   1.442   4.240   1.571
 5154TP3      O27280   0.251   4.413   1.856
 5154TP3     H127281   0.312   4.364   1.911
 5154TP3     H227282   0.269   4.382   1.767
 5155TP3      O27283   0.708   4.569   1.835
 5155TP3     H127284   0.795   4.536   1.860
 5155TP3     H227285   0.676   4.506   1.772
 5156TP3      O27286   1.820   4.243   2.364
 5156TP3     H127287   1.763   4.317   2.341
 5156TP3     H227288   1.859   4.267   2.448
 5157TP3      O27289   0.452   4.092   2.178
 5157TP3     H127290   0.443   4.155   2.107
 5157TP3     H227291   0.363   4.080   2.211
 5158TP3      O27292   1.189   5.041   1.524
 5158TP3     H127293   1.160   5.039   1.433
 5158TP3     H227294   1.146   5.117   1.561
 5159TP3      O27295   0.717   4.852   2.180
 5159TP3     H127296   0.668   4.923   2.221
 5159TP3     H227297   0.788   4.896   2.133
 5160TP3      O27298   1.464   4.151   1.870
 5160TP3     H127299   1.399   4.124   1.935
 5160TP3     H227300   1.524   4.208   1.918
 5161TP3      O27301   0.461   4.272   1.972
 5161TP3     H127302   0.516   4.326   2.029
 5161TP3     H227303   0.521   4.233   1.909
 5162TP3      O27304   0.563   5.044   2.301
 5162TP3     H127305   0.551   5.139   2.300
 5162TP3     H227306   0.474   5.009   2.298
 5163TP3      O27307   0.155   5.003   1.403
 5163TP3     H127308   0.118   5.047   1.326
 5163TP3     H227309   0.166   5.073   1.468
 5164TP3      O27310   1.480   5.183   2.054
 5164TP3     H127311   1.386   5.198   2.060
 5164TP3     H227312   1.517   5.269   2.037
 5165TP3      O27313   1.566   3.959   2.207
 5165TP3     H127314   1.498   4.014   2.168
 5165TP3     H227315   1.648   3.996   2.175
 5166TP3      O27316   0.813   3.777   1.951
 5166TP3     H127317   0.784   3.686   1.951
 5166TP3     H227318   0.737   3.827   1.980
 5167TP3      O27319   1.395   5.361   1.694
 5167TP3     H127320   1.416   5.275   1.659
 5167TP3     H227321   1.479   5.405   1.702
 5168TP3      O27322   1.445   5.112   1.605
 5168TP3     H127323   1.365   5.075   1.569
 5168TP3     H227324   1.461   5.062   1.685
 5169TP3      O27325   1.612   4.995   2.422
 5169TP3     H127326   1.610   4.933   2.349
 5169TP3     H227327   1.632   5.079   2.381
 5170TP3      O27328   1.069   4.681   1.416
 5170TP3     H127329   1.001   4.745   1.394
 5170TP3     H227330   1.135   4.692   1.348
 5171TP3      O27331   1.089   4.570   1.069
 5171TP3     H127332   1.141   4.595   1.145
 5171TP3     H227333   1.141   4.503   1.026
 5172TP3      O27334   1.787   4.645   2.241
 5172TP3     H127335   1.717   4.710   2.239
 5172TP3     H227336   1.847   4.671   2.171
 5173TP3      O27337   1.426   4.713   1.479
 5173TP3     H127338   1.359   4.739   1.542
 5173TP3     H227339   1.492   4.668   1.532
 5174TP3      O27340   1.374   4.511   2.441
 5174TP3     H127341   1.373   4.583   2.504
 5174TP3     H227342   1.314   4.538   2.372
 5175TP3      O27343   0.577   4.761   1.675
 5175TP3     H127344   0.552   4.724   1.591
 5175TP3     H227345   0.628   4.692   1.717
 5176TP3      O27346   0.722   5.079   1.932
 5176TP3     H127347   0.722   5.087   1.836
 5176TP3     H227348   0.800   5.028   1.952
 5177TP3      O27349   0.566   4.668   2.049
 5177TP3     H127350   0.619   4.639   1.975
 5177TP3     H227351   0.620   4.732   2.094
 5178TP3      O27352   1.215   5.243   2.095
 5178TP3     H127353   1.219   5.309   2.165
 5178TP3     H227354   1.187   5.163   2.140
 5179TP3      O27355   0.723   5.096   2.519
 5179TP3     H127356   0.656   5.149   2.562
 5179TP3     H227357   0.679   5.060   2.442
 5180TP3      O27358   1.295   4.640   1.250
 5180TP3     H127359   1.346   4.675   1.323
 5180TP3     H227360   1.348   4.660   1.173
 5181TP3      O27361   0.425   4.703   2.454
 5181TP3     H127362   0.420   4.777   2.516
 5181TP3     H227363   0.335   4.687   2.428
 5182TP3      O27364   1.075   5.274   1.612
 5182TP3     H127365   1.095   5.309   1.699
 5182TP3     H227366   0.997   5.322   1.584
 5183TP3      O27367   0.517   5.258   2.600
 5183TP3     H127368   0.517   5.292   2.510
 5183TP3     H227369   0.425   5.242   2.619
 5184TP3      O27370   1.662   3.789   1.248
 5184TP3     H127371   1.578   3.813   1.286
 5184TP3     H227372   1.699   3.871   1.216
 5185TP3      O27373   0.493   4.669   1.423
 5185TP3     H127374   0.437   4.733   1.379
 5185TP3     H227375   0.448   4.586   1.412
 5186TP3      O27376   1.793   5.186   1.111
 5186TP3     H127377   1.807   5.280   1.117
 5186TP3     H227378   1.881   5.149   1.107
 5187TP3      O27379   0.141   4.893   2.305
 5187TP3     H127380   0.108   4.866   2.219
 5187TP3     H227381   0.136   4.814   2.359
 5188TP3      O27382   0.086   5.190   1.991
 5188TP3     H127383   0.156   5.126   2.000
 5188TP3     H227384   0.037   5.184   2.072
 5189TP3      O27385   1.768   5.241   2.734
 5189TP3     H127386   1.835   5.234   2.666
 5189TP3     H227387   1.705   5.304   2.698
 5190TP3      O27388   0.958   5.224   2.471
 5190TP3     H127389   0.967   5.297   2.533
 5190TP3     H227390   0.874   5.184   2.494
 5191TP3      O27391   0.383   5.404   1.644
 5191TP3     H127392   0.398   5.382   1.736
 5191TP3     H227393   0.317   5.342   1.614
 5192TP3      O27394   1.295   5.478   1.133
 5192TP3     H127395   1.366   5.420   1.105
 5192TP3     H227396   1.287   5.462   1.227
 5193TP3      O27397   1.255   5.420   1.407
 5193TP3     H127398   1.170   5.389   1.374
 5193TP3     H227399   1.267   5.372   1.489
 5194TP3      O27400   1.591   4.402   2.588
 5194TP3     H127401   1.507   4.434   2.554
 5194TP3     H227402   1.581   4.307   2.591
 5195TP3      O27403   0.291   5.081   2.421
 5195TP3     H127404   0.338   5.025   2.482
 5195TP3     H227405   0.231   5.022   2.376
 5196TP3      O27406   0.573   3.891   2.035
 5196TP3     H127407   0.500   3.881   1.974
 5196TP3     H227408   0.548   3.965   2.090
 5197TP3      O27409   1.046   3.866   2.380
 5197TP3     H127410   1.090   3.815   2.447
 5197TP3     H227411   0.953   3.856   2.400
 5198TP3      O27412   1.333   4.235   2.460
 5198TP3     H127413   1.279   4.229   2.539
 5198TP3     H227414   1.341   4.329   2.444
 5199TP3      O27415   1.437   4.663   1.018
 5199TP3     H127416   1.419   4.693   0.929
 5199TP3     H227417   1.525   4.695   1.037
 5200TP3      O27418   0.990   4.103   1.106
 5200TP3     H127419   0.935   4.098   1.184
 5200TP3     H227420   0.954   4.036   1.048
 5201TP3      O27421   0.584   4.419   2.169
 5201TP3     H127422   0.507   4.410   2.225
 5201TP3     H227423   0.581   4.510   2.139
 5202TP3      O27424   0.591   4.414   1.642
 5202TP3     H127425   0.496   4.406   1.638
 5202TP3     H227426   0.620   4.398   1.553
 5203TP3      O27427   1.121   4.437   1.520
 5203TP3     H127428   1.097   4.525   1.490
 5203TP3     H227429   1.190   4.409   1.461
 5204TP3      O27430   1.026   4.466   2.630
 5204TP3     H127431   0.983   4.391   2.672
 5204TP3     H227432   1.103   4.482   2.684
 5205TP3      O27433   1.222   4.384   1.777
 5205TP3     H127434   1.177   4.431   1.707
 5205TP3     H227435   1.265   4.311   1.732
 5206TP3      O27436   0.336   4.391   2.296
 5206TP3     H127437   0.343   4.366   2.388
 5206TP3     H227438   0.275   4.327   2.259
 5207TP3      O27439   0.675   4.145   0.999
 5207TP3     H127440   0.645   4.137   1.090
 5207TP3     H227441   0.619   4.212   0.961
 5208TP3      O27442   0.075   4.211   1.664
 5208TP3     H127443   0.100   4.194   1.754
 5208TP3     H227444   0.055   4.124   1.628
 5209TP3      O27445   0.122   4.249   1.286
 5209TP3     H127446   0.164   4.289   1.211
 5209TP3     H227447   0.094   4.323   1.341
 5210TP3      O27448   1.173   4.538   2.242
 5210TP3     H127449   1.208   4.482   2.173
 5210TP3     H227450   1.107   4.484   2.286
 5211TP3      O27451   0.889   4.125   1.725
 5211TP3     H127452   0.799   4.135   1.755
 5211TP3     H227453   0.937   4.094   1.801
 5212TP3      O27454   0.337   4.328   1.599
 5212TP3     H127455   0.256   4.333   1.548
 5212TP3     H227456   0.365   4.237   1.592
 5213TP3      O27457   0.647   4.338   1.387
 5213TP3     H127458   0.742   4.333   1.399
 5213TP3     H227459   0.636   4.378   1.300
 5214TP3      O27460   1.261   4.092   2.056
 5214TP3     H127461   1.219   4.095   2.142
 5214TP3     H227462   1.195   4.051   1.999
 5215TP3      O27463   0.604   4.423   1.134
 5215TP3     H127464   0.547   4.407   1.059
 5215TP3     H227465   0.675   4.476   1.098
 5216TP3      O27466   0.395   4.920   2.630
 5216TP3     H127467   0.457   4.903   2.701
 5216TP3     H227468   0.310   4.927   2.675
 5217TP3      O27469   0.946   4.456   1.933
 5217TP3     H127470   1.015   4.403   1.892
 5217TP3     H227471   0.913   4.402   2.005
 5218TP3      O27472   0.438   4.067   1.577
 5218TP3     H127473   0.394   3.986   1.600
 5218TP3     H227474   0.475   4.050   1.490
 5219TP3      O27475   0.837   4.318   2.152
 5219TP3     H127476   0.753   4.362   2.164
 5219TP3     H227477   0.890   4.344   2.228
 5220TP3      O27478   0.885   4.870   1.354
 5220TP3     H127479   0.810   4.853   1.296
 5220TP3     H227480   0.845   4.900   1.435
 5221TP3      O27481   1.585   4.832   2.197
 5221TP3     H127482   1.651   4.883   2.150
 5221TP3     H227483   1.516   4.816   2.133
 5222TP3      O27484   1.246   4.153   1.182
 5222TP3     H127485   1.153   4.151   1.159
 5222TP3     H227486   1.259   4.238   1.224
 5223TP3      O27487   1.042   4.934   2.452
 5223TP3     H127488   1.058   4.887   2.533
 5223TP3     H227489   1.000   5.016   2.479
 5224TP3      O27490   1.321   4.375   1.332
 5224TP3     H127491   1.408   4.359   1.368
 5224TP3     H227492   1.323   4.465   1.301
 5225TP3      O27493   0.403   4.824   1.876
 5225TP3     H127494   0.459   4.814   1.799
 5225TP3     H227495   0.442   4.767   1.942
 5226TP3      O27496   1.069   5.057   1.270
 5226TP3     H127497   1.039   5.148   1.277
 5226TP3     H227498   0.992   5.005   1.293
 5227TP3      O27499   0.142   4.661   2.454
 5227TP3     H127500   0.157   4.650   2.548
 5227TP3     H227501   0.094   4.583   2.427
 5228TP3      O27502   0.816   4.650   2.644
 5228TP3     H127503   0.750   4.609   2.589
 5228TP3     H227504   0.895   4.597   2.630
 5229TP3      O27505   1.236   5.197   2.460
 5229TP3     H127506   1.143   5.201   2.438
 5229TP3     H227507   1.239   5.207   2.555
 5230TP3      O27508   1.779   4.416   1.285
 5230TP3     H127509   1.739   4.394   1.201
 5230TP3     H227510   1.805   4.508   1.275
 5231TP3      O27511   1.831   4.938   2.584
 5231TP3     H127512   1.752   4.978   2.547
 5231TP3     H227513   1.897   4.947   2.516
 5232TP3      O27514   1.673   5.234   1.376
 5232TP3     H127515   1.607   5.173   1.409
 5232TP3     H227516   1.695   5.201   1.289
 5233TP3      O27517   1.380   4.766   2.002
 5233TP3     H127518   1.285   4.756   1.992
 5233TP3     H227519   1.416   4.689   1.957
 5234TP3      O27520   0.643   5.173   1.670
 5234TP3     H127521   0.659   5.254   1.621
 5234TP3     H227522   0.547   5.166   1.674
 5235TP3      O27523   0.202   4.679   1.087
 5235TP3     H127524   0.256   4.733   1.145
 5235TP3     H227525   0.114   4.717   1.094
 5236TP3      O27526   0.759   4.944   1.580
 5236TP3     H127527   0.726   5.030   1.605
 5236TP3     H227528   0.696   4.882   1.617
 5237TP3      O27529   0.818   5.354   2.251
 5237TP3     H127530   0.868   5.435   2.260
 5237TP3     H227531   0.869   5.289   2.300
 5238TP3      O27532   0.631   5.418   1.532
 5238TP3     H127533   0.540   5.425   1.561
 5238TP3     H227534   0.677   5.488   1.578
 5239TP3      O27535   1.151   4.994   2.208
 5239TP3     H127536   1.115   4.969   2.293
 5239TP3     H227537   1.219   4.930   2.191
 5240TP3      O27538   1.431   5.078   1.123
 5240TP3     H127539   1.456   5.028   1.201
 5240TP3     H227540   1.339   5.055   1.108
 5241TP3      O27541   1.431   5.385   2.414
 5241TP3     H127542   1.369   5.314   2.434
 5241TP3     H227543   1.385   5.441   2.352
 5242TP3      O27544   1.842   5.447   1.136
 5242TP3     H127545   1.870   5.508   1.068
 5242TP3     H227546   1.770   5.492   1.181
 5243TP3      O27547   0.272   4.121   2.488
 5243TP3     H127548   0.222   4.131   2.407
 5243TP3     H227549   0.278   4.027   2.501
 5244TP3      O27550   1.530   4.922   1.326
 5244TP3     H127551   1.485   4.862   1.386
 5244TP3     H227552   1.622   4.912   1.346
 5245TP3      O27553   0.235   5.320   2.265
 5245TP3     H127554   0.264   5.240   2.307
 5245TP3     H227555   0.145   5.332   2.295
 5246TP3      O27556   0.826   5.154   0.961
 5246TP3     H127557   0.829   5.070   0.914
 5246TP3     H227558   0.801   5.131   1.050
 5247TP3      O27559   0.743   5.110   1.211
 5247TP3     H127560   0.651   5.083   1.212
 5247TP3     H227561   0.742   5.198   1.248
 5248TP3      O27562   0.337   4.842   1.278
 5248TP3     H127563   0.270   4.888   1.329
 5248TP3     H227564   0.392   4.911   1.243
 5249TP3      O27565   1.144   4.111   2.303
 5249TP3     H127566   1.216   4.132   2.361
 5249TP3     H227567   1.112   4.026   2.333
 5250TP3      O27568   1.227   4.040   1.444
 5250TP3     H127569   1.235   4.081   1.358
 5250TP3     H227570   1.268   4.101   1.504
 5251TP3      O27571   1.019   5.335   1.274
 5251TP3     H127572   0.926   5.354   1.285
 5251TP3     H227573   1.037   5.356   1.182
 5252TP3      O27574   0.902   4.276   1.494
 5252TP3     H127575   0.976   4.336   1.501
 5252TP3     H227576   0.896   4.235   1.580
 5253TP3      O27577   1.008   4.362   2.366
 5253TP3     H127578   1.011   4.386   2.459
 5253TP3     H227579   1.045   4.274   2.363
 5254TP3      O27580   0.989   3.938   1.545
 5254TP3     H127581   0.963   4.006   1.607
 5254TP3     H227582   1.074   3.967   1.512
 5255TP3      O27583   0.746   5.374   1.289
 5255TP3     H127584   0.700   5.429   1.225
 5255TP3     H227585   0.703   5.393   1.372
 5256TP3      O27586   0.580   4.097   1.257
 5256TP3     H127587   0.574   4.182   1.301
 5256TP3     H227588   0.666   4.063   1.282
 5257TP3      O27589   1.583   4.133   2.508
 5257TP3     H127590   1.494   4.150   2.480
 5257TP3     H227591   1.637   4.152   2.431
 5258TP3      O27592   1.460   4.523   1.876
 5258TP3     H127593   1.377   4.480   1.855
 5258TP3     H227594   1.507   4.460   1.931
 5259TP3      O27595   0.466   5.079   1.192
 5259TP3     H127596   0.436   5.160   1.232
 5259TP3     H227597   0.422   5.077   1.106
 5260TP3      O27598   0.212   4.401   1.072
 5260TP3     H127599   0.228   4.494   1.088
 5260TP3     H227600   0.120   4.397   1.044
 5261TP3      O27601   1.580   5.431   2.041
 5261TP3     H127602   1.546   5.504   1.988
 5261TP3     H227603   1.675   5.445   2.042
 5262TP3      O27604   0.339   3.866   1.897
 5262TP3     H127605   0.336   3.851   1.803
 5262TP3     H227606   0.298   3.789   1.935
 5263TP3      O27607   0.182   5.249   1.545
 5263TP3     H127608   0.113   5.291   1.596
 5263TP3     H227609   0.179   5.293   1.460
 5264TP3      O27610   0.180   5.477   2.691
 5264TP3     H127611   0.264   5.495   2.734
 5264TP3     H227612   0.184   5.384   2.669
 5265TP3      O27613   0.582   5.353   2.852
 5265TP3     H127614   0.665   5.322   2.888
 5265TP3     H227615   0.575   5.310   2.767
 5266TP3      O27616   1.024   5.333   0.991
 5266TP3     H127617   0.954   5.267   0.982
 5266TP3     H227618   1.102   5.288   0.958
 5267TP3      O27619   1.271   5.205   2.729
 5267TP3     H127620   1.236   5.126   2.770
 5267TP3     H227621   1.365   5.192   2.727
 5268TP3      O27622   1.468   5.317   0.985
 5268TP3     H127623   1.481   5.240   1.040
 5268TP3     H227624   1.551   5.328   0.940
 5269TP3      O27625   0.157   4.956   2.764
 5269TP3     H127626   0.145   4.862   2.778
 5269TP3     H227627   0.076   4.995   2.796
 5270TP3      O27628   0.589   4.835   0.957
 5270TP3     H127629   0.600   4.822   1.051
 5270TP3     H227630   0.672   4.871   0.928
 5271TP3      O27631   0.794   4.919   2.714
 5271TP3     H127632   0.776   4.967   2.634
 5271TP3     H227633   0.812   4.829   2.685
 5272TP3      O27634   1.176   5.023   1.021
 5272TP3     H127635   1.128   5.026   1.104
 5272TP3     H227636   1.146   4.942   0.980
 5273TP3      O27637   1.365   4.950   2.521
 5273TP3     H127638   1.453   4.965   2.486
 5273TP3     H227639   1.312   5.018   2.482
 5274TP3      O27640   0.184   4.609   2.717
 5274TP3     H127641   0.198   4.517   2.739
 5274TP3     H227642   0.121   4.640   2.782
 5275TP3      O27643   0.671   4.757   1.214
 5275TP3     H127644   0.621   4.716   1.285
 5275TP3     H227645   0.714   4.684   1.170
 5276TP3      O27646   0.633   4.527   2.471
 5276TP3     H127647   0.557   4.585   2.465
 5276TP3     H227648   0.692   4.558   2.402
 5277TP3      O27649   0.810   4.579   1.047
 5277TP3     H127650   0.803   4.614   0.959
 5277TP3     H227651   0.904   4.574   1.064
 5278TP3      O27652   1.139   4.761   2.781
 5278TP3     H127653   1.221   4.728   2.743
 5278TP3     H227654   1.112   4.693   2.842
 5279TP3      O27655   1.694   4.763   1.000
 5279TP3     H127656   1.699   4.739   0.908
 5279TP3     H227657   1.683   4.858   0.999
 5280TP3      O27658   0.686   4.271   2.543
 5280TP3     H127659   0.682   4.213   2.467
 5280TP3     H227660   0.667   4.358   2.508
 5281TP3      O27661   0.695   4.112   2.308
 5281TP3     H127662   0.748   4.162   2.245
 5281TP3     H227663   0.608   4.109   2.269
 5282TP3      O27664   0.817   4.632   2.305
 5282TP3     H127665   0.911   4.647   2.310
 5282TP3     H227666   0.783   4.711   2.263
 5283TP3      O27667   1.270   4.402   2.869
 5283TP3     H127668   1.271   4.335   2.800
 5283TP3     H227669   1.359   4.400   2.905
 5284TP3      O27670   1.397   4.711   2.648
 5284TP3     H127671   1.381   4.795   2.603
 5284TP3     H227672   1.493   4.707   2.655
 5285TP3      O27673   0.525   4.331   2.781
 5285TP3     H127674   0.435   4.300   2.767
 5285TP3     H227675   0.565   4.329   2.694
 5286TP3      O27676   0.762   3.850   2.376
 5286TP3     H127677   0.741   3.941   2.356
 5286TP3     H227678   0.695   3.799   2.331
 5287TP3      O27679   0.901   4.235   2.710
 5287TP3     H127680   0.851   4.211   2.788
 5287TP3     H227681   0.834   4.244   2.641
 5288TP3      O27682   1.176   4.200   2.678
 5288TP3     H127683   1.080   4.199   2.688
 5288TP3     H227684   1.206   4.125   2.729
 5289TP3      O27685   1.303   4.011   2.829
 5289TP3     H127686   1.314   3.917   2.814
 5289TP3     H227687   1.393   4.046   2.828
 5290TP3      O27688   0.283   4.204   2.746
 5290TP3     H127689   0.285   4.168   2.657
 5290TP3     H227690   0.312   4.132   2.802
 5291TP3      O27691   0.740   3.745   2.628
 5291TP3     H127692   0.808   3.678   2.620
 5291TP3     H227693   0.737   3.786   2.542
 5292TP3      O27694   0.806   3.901   2.842
 5292TP3     H127695   0.783   3.857   2.760
 5292TP3     H227696   0.766   3.988   2.834
 5293TP3      O27697   0.051   5.121   1.177
 5293TP3     H127698   0.132   5.133   1.128
 5293TP3     H227699  -0.012   5.090   1.112
 5294TP3      O27700   0.088   5.394   1.804
 5294TP3     H127701   0.065   5.310   1.844
 5294TP3     H227702   0.136   5.441   1.872
 5295TP3      O27703   1.856   5.450   2.062
 5295TP3     H127704   1.845   5.448   2.157
 5295TP3     H227705   1.946   5.482   2.049
 5296TP3      O27706   1.815   5.423   2.328
 5296TP3     H127707   1.748   5.358   2.310
 5296TP3     H227708   1.878   5.378   2.385
 5297TP3      O27709   1.615   5.056   2.862
 5297TP3     H127710   1.581   5.007   2.788
 5297TP3     H227711   1.677   5.118   2.823
 5298TP3      O27712   1.791   4.861   1.400
 5298TP3     H127713   1.864   4.923   1.400
 5298TP3     H227714   1.809   4.802   1.473
 5299TP3      O27715   1.847   4.665   1.587
 5299TP3     H127716   1.762   4.636   1.620
 5299TP3     H227717   1.899   4.681   1.666
 5300TP3      O27718   1.812   4.946   2.103
 5300TP3     H127719   1.869   4.882   2.061
 5300TP3     H227720   1.841   5.030   2.069
 5301TP3      O27721   1.622   5.234   2.291
 5301TP3     H127722   1.554   5.290   2.330
 5301TP3     H227723   1.586   5.210   2.206
 5302TP3      O27724   1.842   4.673   1.210
 5302TP3     H127725   1.791   4.700   1.134
 5302TP3     H227726   1.823   4.739   1.277
 5303TP3      O27727   1.679   4.371   1.037
 5303TP3     H127728   1.655   4.430   0.965
 5303TP3     H227729   1.660   4.283   1.003
 5304TP3      O27730   1.594   4.555   1.637
 5304TP3     H127731   1.590   4.465   1.606
 5304TP3     H227732   1.553   4.552   1.724
 5305TP3      O27733   0.081   4.749   2.064
 5305TP3     H127734   0.092   4.747   1.969
 5305TP3     H227735   0.164   4.716   2.099
 5306TP3      O27736   1.678   4.730   2.672
 5306TP3     H127737   1.728   4.650   2.655
 5306TP3     H227738   1.731   4.800   2.632
 5307TP3      O27739   1.834   4.508   2.611
 5307TP3     H127740   1.747   4.469   2.608
 5307TP3     H227741   1.892   4.435   2.634
 5308TP3      O27742   1.605   4.125   0.938
 5308TP3     H127743   1.640   4.079   1.014
 5308TP3     H227744   1.512   4.100   0.937
 5309TP3      O27745   1.578   4.306   1.457
 5309TP3     H127746   1.607   4.215   1.461
 5309TP3     H227747   1.645   4.350   1.405
 5310TP3      O27748   1.610   4.334   2.020
 5310TP3     H127749   1.703   4.345   2.001
 5310TP3     H227750   1.602   4.357   2.113
 5311TP3      O27751   1.628   4.428   2.282
 5311TP3     H127752   1.555   4.461   2.335
 5311TP3     H227753   1.685   4.504   2.269
 5312TP3      O27754   0.020   4.289   2.702
 5312TP3     H127755   0.110   4.260   2.715
 5312TP3     H227756  -0.033   4.218   2.738
 5313TP3      O27757   1.845   3.832   2.829
 5313TP3     H127758   1.915   3.772   2.804
 5313TP3     H227759   1.857   3.907   2.772
 5314TP3      O27760   1.642   4.037   1.479
 5314TP3     H127761   1.665   3.997   1.563
 5314TP3     H227762   1.575   3.979   1.442
 5315TP3      O27763   0.147   4.071   1.899
 5315TP3     H127764   0.225   4.015   1.906
 5315TP3     H227765   0.133   4.102   1.989
 5316TP3      O27766   0.027   4.469   2.039
 5316TP3     H127767   0.103   4.437   1.991
 5316TP3     H227768   0.041   4.564   2.046
 5317TP3      O27769   1.804   4.013   2.619
 5317TP3     H127770   1.722   4.062   2.607
 5317TP3     H227771   1.802   3.946   2.551
 5318TP3      O27772   1.768   4.015   1.135
 5318TP3     H127773   1.817   3.959   1.075
 5318TP3     H227774   1.832   4.077   1.169
 5319TP3      O27775   0.068   3.999   1.372
 5319TP3     H127776  -0.008   4.016   1.428
 5319TP3     H227777   0.096   4.086   1.343
 5320TP3      O27778   0.057   3.828   2.245
 5320TP3     H127779   0.005   3.835   2.325
 5320TP3     H227780   0.078   3.918   2.222
 5321TP3      O27781   0.236   5.207   2.659
 5321TP3     H127782   0.235   5.180   2.567
 5321TP3     H227783   0.211   5.129   2.708
 5322TP3      O27784   0.546   5.318   2.327
 5322TP3     H127785   0.483   5.362   2.271
 5322TP3     H227786   0.631   5.342   2.290
 5323TP3      O27787   1.051   5.488   2.619
 5323TP3     H127788   1.035   5.436   2.698
 5323TP3     H227789   1.141   5.519   2.630
 5324TP3      O27790   1.720   3.819   2.433
 5324TP3     H127791   1.653   3.848   2.371
 5324TP3     H227792   1.733   3.727   2.412
 5325TP3      O27793   1.242   5.488   2.238
 5325TP3     H127794   1.170   5.536   2.280
 5325TP3     H227795   1.266   5.542   2.163
 5326TP3      O27796   0.252   5.470   2.022
 5326TP3     H127797   0.232   5.423   2.103
 5326TP3     H227798   0.320   5.417   1.980
 5327TP3      O27799   0.453   5.336   1.901
 5327TP3     H127800   0.441   5.245   1.929
 5327TP3     H227801   0.543   5.356   1.925
 5328TP3      O27802   0.717   5.345   1.996
 5328TP3     H127803   0.724   5.253   1.968
 5328TP3     H227804   0.755   5.345   2.084
 5329TP3      O27805   1.047   3.972   1.900
 5329TP3     H127806   0.986   3.901   1.918
 5329TP3     H227807   1.121   3.930   1.856
 5330TP3      O27808   1.548   3.798   1.870
 5330TP3     H127809   1.614   3.852   1.825
 5330TP3     H227810   1.469   3.851   1.869
 5331TP3      O27811   1.734   3.909   1.705
 5331TP3     H127812   1.798   3.842   1.681
 5331TP3     H227813   1.787   3.986   1.725
 5332TP3      O27814   0.320   3.822   1.627
 5332TP3     H127815   0.229   3.804   1.606
 5332TP3     H227816   0.363   3.737   1.621
 5333TP3      O27817   0.224   3.822   1.243
 5333TP3     H127818   0.275   3.879   1.184
 5333TP3     H227819   0.177   3.883   1.299
 5334TP3      O27820   0.773   3.791   1.663
 5334TP3     H127821   0.842   3.843   1.622
 5334TP3     H227822   0.790   3.799   1.757
 5335TP3      O27823   1.268   3.851   1.794
 5335TP3     H127824   1.300   3.837   1.705
 5335TP3     H227825   1.247   3.764   1.827
 5336TP3      O27826   1.438   3.866   1.389
 5336TP3     H127827   1.363   3.924   1.402
 5336TP3     H227828   1.403   3.778   1.399
 5337TP3      O27829   0.179   5.377   1.306
 5337TP3     H127830   0.099   5.358   1.258
 5337TP3     H227831   0.197   5.469   1.286
 5338TP3      O27832   0.384   3.992   1.085
 5338TP3     H127833   0.439   3.944   1.023
 5338TP3     H227834   0.445   4.029   1.148
 5339TP3      O27835   0.843   4.065   1.335
 5339TP3     H127836   0.877   3.993   1.388
 5339TP3     H227837   0.862   4.144   1.386
 5340TP3      O27838   1.740   5.480   1.484
 5340TP3     H127839   1.725   5.388   1.461
 5340TP3     H227840   1.715   5.528   1.405
 5341TP3      O27841   0.293   3.858   2.565
 5341TP3     H127842   0.228   3.797   2.600
 5341TP3     H227843   0.363   3.859   2.630
 5342TP3      O27844   0.483   3.822   2.766
 5342TP3     H127845   0.563   3.783   2.730
 5342TP3     H227846   0.437   3.749   2.806
 5343TP3      O27847   0.322   5.463   1.013
 5343TP3     H127848   0.303   5.494   1.101
 5343TP3     H227849   0.341   5.370   1.023
 5344TP3      O27850   1.357   3.744   2.791
 5344TP3     H127851   1.362   3.659   2.834
 5344TP3     H227852   1.446   3.759   2.758
 5345TP3      O27853   1.559   5.428   2.671
 5345TP3     H127854   1.539   5.431   2.577
 5345TP3     H227855   1.624   5.497   2.683
 5346TP3      O27856   3.098   4.788   1.624
 5346TP3     H127857   3.090   4.883   1.612
 5346TP3     H227858   3.023   4.752   1.575
 5347TP3      O27859   2.968   4.689   2.025
 5347TP3     H127860   2.996   4.648   2.107
 5347TP3     H227861   2.921   4.620   1.979
 5348TP3      O27862   2.185   4.625   2.167
 5348TP3     H127863   2.192   4.551   2.228
 5348TP3     H227864   2.262   4.679   2.187
 5349TP3      O27865   3.352   4.991   1.849
 5349TP3     H127866   3.320   4.912   1.892
 5349TP3     H227867   3.366   5.053   1.920
 5350TP3      O27868   2.329   5.076   1.971
 5350TP3     H127869   2.293   4.990   1.949
 5350TP3     H227870   2.423   5.059   1.982
 5351TP3      O27871   1.976   4.432   1.494
 5351TP3     H127872   1.947   4.516   1.531
 5351TP3     H227873   1.911   4.412   1.426
 5352TP3      O27874   2.040   4.679   1.791
 5352TP3     H127875   2.068   4.590   1.810
 5352TP3     H227876   2.119   4.732   1.804
 5353TP3      O27877   3.063   5.377   1.854
 5353TP3     H127878   3.145   5.355   1.810
 5353TP3     H227879   3.068   5.330   1.938
 5354TP3      O27880   2.830   4.935   2.037
 5354TP3     H127881   2.868   4.851   2.011
 5354TP3     H227882   2.897   4.976   2.091
 5355TP3      O27883   3.697   4.090   2.140
 5355TP3     H127884   3.713   4.153   2.210
 5355TP3     H227885   3.734   4.130   2.062
 5356TP3      O27886   3.132   4.365   2.049
 5356TP3     H127887   3.166   4.276   2.064
 5356TP3     H227888   3.114   4.368   1.955
 5357TP3      O27889   2.471   4.178   1.785
 5357TP3     H127890   2.477   4.262   1.739
 5357TP3     H227891   2.420   4.122   1.726
 5358TP3      O27892   3.253   4.221   1.620
 5358TP3     H127893   3.298   4.188   1.698
 5358TP3     H227894   3.324   4.251   1.563
 5359TP3      O27895   2.112   4.423   1.858
 5359TP3     H127896   2.178   4.385   1.917
 5359TP3     H227897   2.135   4.387   1.772
 5360TP3      O27898   2.602   4.569   1.819
 5360TP3     H127899   2.684   4.531   1.851
 5360TP3     H227900   2.564   4.501   1.763
 5361TP3      O27901   3.745   4.260   2.350
 5361TP3     H127902   3.667   4.313   2.336
 5361TP3     H227903   3.762   4.268   2.444
 5362TP3      O27904   2.340   4.093   2.202
 5362TP3     H127905   2.317   4.155   2.133
 5362TP3     H227906   2.271   4.103   2.267
 5363TP3      O27907   3.077   5.047   1.526
 5363TP3     H127908   3.051   5.046   1.433
 5363TP3     H227909   3.032   5.123   1.562
 5364TP3      O27910   2.611   4.848   2.179
 5364TP3     H127911   2.564   4.920   2.223
 5364TP3     H227912   2.684   4.892   2.135
 5365TP3      O27913   3.376   4.157   1.847
 5365TP3     H127914   3.332   4.092   1.902
 5365TP3     H227915   3.422   4.213   1.909
 5366TP3      O27916   2.306   4.263   1.987
 5366TP3     H127917   2.360   4.322   2.039
 5366TP3     H227918   2.365   4.228   1.921
 5367TP3      O27919   2.472   5.049   2.304
 5367TP3     H127920   2.467   5.144   2.305
 5367TP3     H227921   2.384   5.019   2.329
 5368TP3      O27922   2.014   5.020   1.377
 5368TP3     H127923   2.008   5.066   1.293
 5368TP3     H227924   2.035   5.089   1.441
 5369TP3      O27925   3.364   5.182   2.050
 5369TP3     H127926   3.270   5.195   2.061
 5369TP3     H227927   3.399   5.270   2.039
 5370TP3      O27928   3.440   3.983   2.207
 5370TP3     H127929   3.369   4.035   2.167
 5370TP3     H227930   3.520   4.020   2.170
 5371TP3      O27931   2.685   3.797   1.952
 5371TP3     H127932   2.660   3.705   1.950
 5371TP3     H227933   2.606   3.842   1.983
 5372TP3      O27934   3.278   5.360   1.689
 5372TP3     H127935   3.303   5.274   1.657
 5372TP3     H227936   3.361   5.402   1.712
 5373TP3      O27937   3.337   5.111   1.604
 5373TP3     H127938   3.255   5.076   1.569
 5373TP3     H227939   3.353   5.061   1.683
 5374TP3      O27940   3.491   4.981   2.410
 5374TP3     H127941   3.488   4.915   2.341
 5374TP3     H227942   3.510   5.063   2.365
 5375TP3      O27943   2.943   4.697   1.406
 5375TP3     H127944   2.880   4.762   1.379
 5375TP3     H227945   3.015   4.705   1.343
 5376TP3      O27946   2.973   4.575   1.073
 5376TP3     H127947   3.027   4.597   1.149
 5376TP3     H227948   3.027   4.513   1.023
 5377TP3      O27949   3.680   4.646   2.233
 5377TP3     H127950   3.604   4.703   2.232
 5377TP3     H227951   3.734   4.676   2.160
 5378TP3      O27952   3.313   4.710   1.480
 5378TP3     H127953   3.245   4.737   1.542
 5378TP3     H227954   3.376   4.662   1.533
 5379TP3      O27955   3.264   4.501   2.427
 5379TP3     H127956   3.264   4.572   2.491
 5379TP3     H227957   3.201   4.530   2.361
 5380TP3      O27958   2.464   4.762   1.676
 5380TP3     H127959   2.439   4.722   1.593
 5380TP3     H227960   2.517   4.695   1.719
 5381TP3      O27961   2.612   5.078   1.934
 5381TP3     H127962   2.615   5.081   1.838
 5381TP3     H227963   2.689   5.027   1.959
 5382TP3      O27964   2.465   4.668   2.038
 5382TP3     H127965   2.520   4.640   1.965
 5382TP3     H227966   2.519   4.730   2.087
 5383TP3      O27967   3.101   5.244   2.101
 5383TP3     H127968   3.108   5.305   2.174
 5383TP3     H227969   3.073   5.162   2.142
 5384TP3      O27970   2.612   5.099   2.537
 5384TP3     H127971   2.545   5.153   2.578
 5384TP3     H227972   2.570   5.063   2.458
 5385TP3      O27973   3.178   4.640   1.253
 5385TP3     H127974   3.230   4.672   1.327
 5385TP3     H227975   3.231   4.662   1.176
 5386TP3      O27976   2.287   4.687   2.462
 5386TP3     H127977   2.293   4.760   2.524
 5386TP3     H227978   2.194   4.676   2.446
 5387TP3      O27979   2.955   5.277   1.617
 5387TP3     H127980   2.980   5.310   1.703
 5387TP3     H227981   2.873   5.322   1.597
 5388TP3      O27982   2.404   5.264   2.613
 5388TP3     H127983   2.388   5.289   2.522
 5388TP3     H227984   2.317   5.256   2.651
 5389TP3      O27985   3.547   3.787   1.238
 5389TP3     H127986   3.463   3.810   1.278
 5389TP3     H227987   3.582   3.871   1.207
 5390TP3      O27988   2.380   4.676   1.419
 5390TP3     H127989   2.320   4.742   1.383
 5390TP3     H227990   2.331   4.594   1.415
 5391TP3      O27991   3.682   5.193   1.109
 5391TP3     H127992   3.695   5.287   1.114
 5391TP3     H227993   3.770   5.156   1.102
 5392TP3      O27994   1.965   4.923   2.345
 5392TP3     H127995   1.912   4.932   2.265
 5392TP3     H227996   1.988   4.830   2.347
 5393TP3      O27997   1.919   5.179   2.018
 5393TP3     H127998   2.011   5.193   1.995
 5393TP3     H227999   1.885   5.267   2.035
 5394TP3      O28000   3.738   5.274   2.609
 5394TP3     H128001   3.729   5.178   2.603
 5394TP3     H228002   3.651   5.304   2.636
 5395TP3      O28003   2.838   5.232   2.464
 5395TP3     H128004   2.860   5.299   2.529
 5395TP3     H228005   2.759   5.191   2.499
 5396TP3      O28006   2.272   5.403   1.633
 5396TP3     H128007   2.285   5.380   1.725
 5396TP3     H228008   2.210   5.338   1.601
 5397TP3      O28009   3.200   5.479   1.152
 5397TP3     H128010   3.264   5.415   1.122
 5397TP3     H228011   3.183   5.455   1.243
 5398TP3      O28012   3.148   5.419   1.420
 5398TP3     H128013   3.062   5.384   1.397
 5398TP3     H228014   3.169   5.379   1.504
 5399TP3      O28015   3.487   4.389   2.579
 5399TP3     H128016   3.399   4.420   2.560
 5399TP3     H228017   3.483   4.294   2.567
 5400TP3      O28018   2.223   5.023   2.400
 5400TP3     H128019   2.240   4.991   2.489
 5400TP3     H228020   2.128   5.025   2.394
 5401TP3      O28021   2.441   3.895   2.039
 5401TP3     H128022   2.365   3.889   1.981
 5401TP3     H228023   2.421   3.969   2.097
 5402TP3      O28024   2.934   3.857   2.378
 5402TP3     H128025   2.983   3.814   2.448
 5402TP3     H228026   2.842   3.850   2.405
 5403TP3      O28027   3.225   4.229   2.461
 5403TP3     H128028   3.156   4.222   2.526
 5403TP3     H228029   3.233   4.323   2.443
 5404TP3      O28030   3.321   4.678   1.026
 5404TP3     H128031   3.303   4.699   0.934
 5404TP3     H228032   3.411   4.707   1.040
 5405TP3      O28033   2.872   4.105   1.096
 5405TP3     H128034   2.827   4.106   1.180
 5405TP3     H228035   2.835   4.029   1.051
 5406TP3      O28036   2.453   4.419   2.155
 5406TP3     H128037   2.391   4.421   2.228
 5406TP3     H228038   2.455   4.509   2.122
 5407TP3      O28039   2.454   4.410   1.645
 5407TP3     H128040   2.359   4.399   1.644
 5407TP3     H228041   2.481   4.392   1.555
 5408TP3      O28042   2.996   4.450   1.517
 5408TP3     H128043   2.975   4.537   1.483
 5408TP3     H228044   3.067   4.419   1.461
 5409TP3      O28045   2.933   4.484   2.696
 5409TP3     H128046   2.879   4.410   2.722
 5409TP3     H228047   3.021   4.460   2.724
 5410TP3      O28048   3.099   4.387   1.778
 5410TP3     H128049   3.051   4.435   1.710
 5410TP3     H228050   3.145   4.318   1.730
 5411TP3      O28051   2.248   4.410   2.339
 5411TP3     H128052   2.261   4.448   2.426
 5411TP3     H228053   2.211   4.323   2.356
 5412TP3      O28054   2.546   4.155   0.979
 5412TP3     H128055   2.522   4.135   1.070
 5412TP3     H228056   2.492   4.231   0.956
 5413TP3      O28057   1.908   4.109   1.734
 5413TP3     H128058   1.960   4.121   1.814
 5413TP3     H228059   1.971   4.125   1.663
 5414TP3      O28060   1.949   4.203   1.232
 5414TP3     H128061   2.019   4.244   1.182
 5414TP3     H228062   1.891   4.276   1.257
 5415TP3      O28063   3.046   4.533   2.241
 5415TP3     H128064   3.082   4.474   2.175
 5415TP3     H228065   2.989   4.478   2.295
 5416TP3      O28066   2.755   4.169   1.741
 5416TP3     H128067   2.666   4.165   1.777
 5416TP3     H228068   2.806   4.111   1.797
 5417TP3      O28069   2.195   4.322   1.618
 5417TP3     H128070   2.122   4.350   1.563
 5417TP3     H228071   2.217   4.235   1.586
 5418TP3      O28072   2.513   4.336   1.389
 5418TP3     H128073   2.606   4.335   1.410
 5418TP3     H228074   2.508   4.377   1.303
 5419TP3      O28075   3.200   4.093   2.078
 5419TP3     H128076   3.135   4.094   2.149
 5419TP3     H228077   3.161   4.035   2.013
 5420TP3      O28078   2.488   4.432   1.136
 5420TP3     H128079   2.433   4.420   1.059
 5420TP3     H228080   2.565   4.479   1.103
 5421TP3      O28081   2.270   4.905   2.649
 5421TP3     H128082   2.336   4.897   2.718
 5421TP3     H228083   2.186   4.909   2.695
 5422TP3      O28084   2.826   4.451   1.936
 5422TP3     H128085   2.890   4.395   1.893
 5422TP3     H228086   2.796   4.400   2.011
 5423TP3      O28087   2.310   4.059   1.587
 5423TP3     H128088   2.255   3.982   1.608
 5423TP3     H228089   2.369   4.027   1.519
 5424TP3      O28090   2.717   4.322   2.167
 5424TP3     H128091   2.633   4.368   2.171
 5424TP3     H228092   2.766   4.355   2.242
 5425TP3      O28093   2.754   4.894   1.332
 5425TP3     H128094   2.684   4.851   1.283
 5425TP3     H228095   2.715   4.910   1.418
 5426TP3      O28096   3.475   4.824   2.184
 5426TP3     H128097   3.536   4.881   2.137
 5426TP3     H228098   3.403   4.809   2.122
 5427TP3      O28099   3.122   4.220   1.103
 5427TP3     H128100   3.035   4.182   1.117
 5427TP3     H228101   3.142   4.264   1.186
 5428TP3      O28102   2.911   4.936   2.443
 5428TP3     H128103   2.940   4.882   2.517
 5428TP3     H228104   2.861   5.007   2.483
 5429TP3      O28105   3.198   4.368   1.327
 5429TP3     H128106   3.284   4.349   1.364
 5429TP3     H228107   3.204   4.460   1.300
 5430TP3      O28108   2.281   4.807   1.878
 5430TP3     H128109   2.340   4.804   1.803
 5430TP3     H228110   2.323   4.754   1.945
 5431TP3      O28111   2.964   5.052   1.268
 5431TP3     H128112   2.938   5.144   1.275
 5431TP3     H228113   2.885   5.003   1.290
 5432TP3      O28114   2.005   4.653   2.430
 5432TP3     H128115   1.982   4.617   2.516
 5432TP3     H228116   1.931   4.630   2.374
 5433TP3      O28117   2.726   4.669   2.637
 5433TP3     H128118   2.658   4.617   2.594
 5433TP3     H228119   2.796   4.606   2.656
 5434TP3      O28120   3.119   5.191   2.462
 5434TP3     H128121   3.025   5.190   2.443
 5434TP3     H228122   3.125   5.194   2.557
 5435TP3      O28123   3.666   4.414   1.281
 5435TP3     H128124   3.626   4.392   1.197
 5435TP3     H228125   3.691   4.506   1.272
 5436TP3      O28126   3.724   5.007   2.563
 5436TP3     H128127   3.634   4.977   2.550
 5436TP3     H228128   3.771   4.978   2.485
 5437TP3      O28129   3.559   5.236   1.378
 5437TP3     H128130   3.495   5.175   1.415
 5437TP3     H228131   3.579   5.201   1.291
 5438TP3      O28132   3.267   4.765   1.995
 5438TP3     H128133   3.171   4.754   1.995
 5438TP3     H228134   3.300   4.686   1.953
 5439TP3      O28135   2.530   5.175   1.668
 5439TP3     H128136   2.543   5.257   1.620
 5439TP3     H228137   2.436   5.174   1.688
 5440TP3      O28138   2.104   4.648   1.137
 5440TP3     H128139   2.151   4.716   1.186
 5440TP3     H228140   2.013   4.656   1.166
 5441TP3      O28141   2.627   4.948   1.559
 5441TP3     H128142   2.601   5.032   1.597
 5441TP3     H228143   2.574   4.884   1.605
 5442TP3      O28144   2.716   5.358   2.240
 5442TP3     H128145   2.788   5.421   2.235
 5442TP3     H228146   2.746   5.293   2.303
 5443TP3      O28147   2.523   5.418   1.532
 5443TP3     H128148   2.431   5.427   1.558
 5443TP3     H228149   2.568   5.487   1.580
 5444TP3      O28150   3.039   4.995   2.211
 5444TP3     H128151   2.994   4.974   2.293
 5444TP3     H228152   3.113   4.935   2.209
 5445TP3      O28153   3.319   5.074   1.127
 5445TP3     H128154   3.344   5.024   1.204
 5445TP3     H228155   3.230   5.046   1.107
 5446TP3      O28156   3.323   5.364   2.419
 5446TP3     H128157   3.259   5.296   2.439
 5446TP3     H228158   3.277   5.422   2.359
 5447TP3      O28159   3.731   5.456   1.130
 5447TP3     H128160   3.758   5.523   1.067
 5447TP3     H228161   3.657   5.496   1.177
 5448TP3      O28162   2.142   4.153   2.386
 5448TP3     H128163   2.047   4.167   2.385
 5448TP3     H228164   2.160   4.114   2.472
 5449TP3      O28165   3.416   4.921   1.330
 5449TP3     H128166   3.372   4.859   1.388
 5449TP3     H228167   3.509   4.910   1.349
 5450TP3      O28168   2.168   5.289   2.241
 5450TP3     H128169   2.189   5.196   2.230
 5450TP3     H228170   2.116   5.293   2.321
 5451TP3      O28171   2.698   5.163   0.980
 5451TP3     H128172   2.701   5.079   0.933
 5451TP3     H228173   2.654   5.143   1.062
 5452TP3      O28174   2.570   5.133   1.220
 5452TP3     H128175   2.606   5.078   1.290
 5452TP3     H228176   2.590   5.223   1.248
 5453TP3      O28177   2.213   4.853   1.288
 5453TP3     H128178   2.141   4.897   1.334
 5453TP3     H228179   2.256   4.922   1.238
 5454TP3      O28180   3.036   4.101   2.297
 5454TP3     H128181   3.102   4.126   2.362
 5454TP3     H228182   2.999   4.020   2.331
 5455TP3      O28183   3.156   4.071   1.410
 5455TP3     H128184   3.124   4.149   1.364
 5455TP3     H228185   3.175   4.103   1.498
 5456TP3      O28186   2.900   5.321   1.278
 5456TP3     H128187   2.810   5.351   1.289
 5456TP3     H228188   2.922   5.342   1.187
 5457TP3      O28189   2.766   4.302   1.499
 5457TP3     H128190   2.845   4.357   1.505
 5457TP3     H228191   2.760   4.260   1.584
 5458TP3      O28192   2.897   4.359   2.390
 5458TP3     H128193   2.904   4.375   2.484
 5458TP3     H228194   2.928   4.270   2.378
 5459TP3      O28195   2.823   3.966   1.546
 5459TP3     H128196   2.826   4.035   1.612
 5459TP3     H228197   2.897   3.909   1.567
 5460TP3      O28198   2.632   5.390   1.288
 5460TP3     H128199   2.602   5.464   1.236
 5460TP3     H228200   2.592   5.403   1.374
 5461TP3      O28201   2.470   4.097   1.241
 5461TP3     H128202   2.453   4.176   1.293
 5461TP3     H228203   2.557   4.069   1.268
 5462TP3      O28204   3.474   4.119   2.494
 5462TP3     H128205   3.382   4.144   2.485
 5462TP3     H228206   3.494   4.075   2.412
 5463TP3      O28207   3.342   4.521   1.875
 5463TP3     H128208   3.257   4.480   1.859
 5463TP3     H228209   3.389   4.458   1.931
 5464TP3      O28210   2.312   5.062   1.130
 5464TP3     H128211   2.384   5.112   1.169
 5464TP3     H228212   2.354   5.006   1.064
 5465TP3      O28213   2.095   4.377   1.080
 5465TP3     H128214   2.115   4.464   1.115
 5465TP3     H228215   2.056   4.395   0.994
 5466TP3      O28216   3.461   5.431   2.052
 5466TP3     H128217   3.433   5.500   1.991
 5466TP3     H228218   3.555   5.446   2.064
 5467TP3      O28219   2.197   3.870   1.914
 5467TP3     H128220   2.189   3.862   1.819
 5467TP3     H228221   2.170   3.784   1.947
 5468TP3      O28222   2.074   5.238   1.537
 5468TP3     H128223   2.025   5.274   1.611
 5468TP3     H228224   2.057   5.298   1.465
 5469TP3      O28225   2.041   5.531   2.642
 5469TP3     H128226   2.053   5.501   2.732
 5469TP3     H228227   2.025   5.451   2.592
 5470TP3      O28228   2.499   5.374   2.841
 5470TP3     H128229   2.568   5.315   2.872
 5470TP3     H228230   2.465   5.331   2.762
 5471TP3      O28231   2.913   5.332   1.003
 5471TP3     H128232   2.840   5.273   0.987
 5471TP3     H228233   2.987   5.292   0.956
 5472TP3      O28234   3.146   5.209   2.726
 5472TP3     H128235   3.107   5.140   2.779
 5472TP3     H228236   3.224   5.236   2.775
 5473TP3      O28237   3.357   5.310   0.993
 5473TP3     H128238   3.365   5.231   1.047
 5473TP3     H228239   3.441   5.315   0.946
 5474TP3      O28240   2.021   4.865   2.780
 5474TP3     H128241   2.049   4.780   2.746
 5474TP3     H228242   1.955   4.895   2.718
 5475TP3      O28243   2.451   4.884   0.980
 5475TP3     H128244   2.476   4.839   1.061
 5475TP3     H228245   2.533   4.900   0.935
 5476TP3      O28246   2.675   4.921   2.737
 5476TP3     H128247   2.658   4.973   2.659
 5476TP3     H228248   2.702   4.836   2.704
 5477TP3      O28249   3.070   5.010   1.020
 5477TP3     H128250   3.022   5.015   1.102
 5477TP3     H228251   3.037   4.932   0.977
 5478TP3      O28252   3.232   4.936   2.474
 5478TP3     H128253   3.325   4.953   2.461
 5478TP3     H228254   3.190   5.021   2.463
 5479TP3      O28255   2.120   4.610   2.726
 5479TP3     H128256   2.185   4.546   2.695
 5479TP3     H228257   2.094   4.577   2.812
 5480TP3      O28258   2.550   4.757   1.207
 5480TP3     H128259   2.500   4.717   1.278
 5480TP3     H228260   2.595   4.684   1.165
 5481TP3      O28261   2.520   4.529   2.477
 5481TP3     H128262   2.443   4.586   2.470
 5481TP3     H228263   2.577   4.559   2.406
 5482TP3      O28264   2.697   4.582   1.050
 5482TP3     H128265   2.694   4.612   0.959
 5482TP3     H228266   2.791   4.574   1.069
 5483TP3      O28267   3.050   4.766   2.777
 5483TP3     H128268   3.133   4.747   2.731
 5483TP3     H228269   2.995   4.691   2.757
 5484TP3      O28270   3.583   4.765   0.997
 5484TP3     H128271   3.586   4.739   0.905
 5484TP3     H228272   3.572   4.860   0.995
 5485TP3      O28273   2.557   4.272   2.561
 5485TP3     H128274   2.567   4.212   2.486
 5485TP3     H228275   2.549   4.359   2.522
 5486TP3      O28276   2.588   4.113   2.320
 5486TP3     H128277   2.642   4.165   2.260
 5486TP3     H228278   2.502   4.110   2.278
 5487TP3      O28279   2.699   4.619   2.296
 5487TP3     H128280   2.792   4.632   2.316
 5487TP3     H228281   2.671   4.701   2.257
 5488TP3      O28282   3.183   4.397   2.808
 5488TP3     H128283   3.177   4.307   2.840
 5488TP3     H228284   3.276   4.419   2.817
 5489TP3      O28285   3.278   4.707   2.610
 5489TP3     H128286   3.257   4.788   2.563
 5489TP3     H228287   3.372   4.712   2.624
 5490TP3      O28288   2.287   4.385   2.658
 5490TP3     H128289   2.255   4.300   2.689
 5490TP3     H228290   2.381   4.372   2.648
 5491TP3      O28291   2.649   3.847   2.380
 5491TP3     H128292   2.629   3.938   2.361
 5491TP3     H228293   2.578   3.797   2.339
 5492TP3      O28294   2.773   4.255   2.734
 5492TP3     H128295   2.741   4.229   2.820
 5492TP3     H228296   2.695   4.254   2.678
 5493TP3      O28297   3.014   4.181   2.622
 5493TP3     H128298   2.927   4.196   2.660
 5493TP3     H228299   3.063   4.139   2.692
 5494TP3      O28300   3.155   4.073   2.831
 5494TP3     H128301   3.185   3.983   2.818
 5494TP3     H228302   3.156   4.086   2.925
 5495TP3      O28303   2.179   4.128   2.718
 5495TP3     H128304   2.180   4.040   2.679
 5495TP3     H228305   2.212   4.116   2.807
 5496TP3      O28306   2.660   3.789   2.647
 5496TP3     H128307   2.714   3.710   2.645
 5496TP3     H228308   2.652   3.816   2.556
 5497TP3      O28309   2.042   5.077   1.093
 5497TP3     H128310   2.136   5.083   1.109
 5497TP3     H228311   2.033   5.011   1.025
 5498TP3      O28312   1.978   5.362   1.764
 5498TP3     H128313   1.885   5.345   1.779
 5498TP3     H228314   2.005   5.414   1.840
 5499TP3      O28315   3.733   5.458   2.096
 5499TP3     H128316   3.735   5.446   2.191
 5499TP3     H228317   3.799   5.525   2.079
 5500TP3      O28318   3.719   5.375   2.357
 5500TP3     H128319   3.654   5.314   2.323
 5500TP3     H228320   3.739   5.341   2.445
 5501TP3      O28321   3.560   5.061   2.958
 5501TP3     H128322   3.472   5.041   2.990
 5501TP3     H228323   3.609   5.084   3.036
 5502TP3      O28324   3.678   4.862   1.397
 5502TP3     H128325   3.752   4.922   1.401
 5502TP3     H228326   3.692   4.802   1.471
 5503TP3      O28327   3.724   4.666   1.585
 5503TP3     H128328   3.640   4.632   1.616
 5503TP3     H228329   3.775   4.678   1.665
 5504TP3      O28330   3.703   4.956   2.107
 5504TP3     H128331   3.757   4.893   2.060
 5504TP3     H228332   3.730   5.041   2.072
 5505TP3      O28333   3.513   5.220   2.283
 5505TP3     H128334   3.445   5.273   2.325
 5505TP3     H228335   3.476   5.198   2.197
 5506TP3      O28336   3.728   4.672   1.208
 5506TP3     H128337   3.678   4.699   1.132
 5506TP3     H228338   3.709   4.738   1.275
 5507TP3      O28339   3.569   4.368   1.031
 5507TP3     H128340   3.545   4.428   0.959
 5507TP3     H228341   3.549   4.281   0.997
 5508TP3      O28342   3.476   4.548   1.637
 5508TP3     H128343   3.471   4.458   1.606
 5508TP3     H228344   3.434   4.546   1.723
 5509TP3      O28345   1.963   4.720   2.049
 5509TP3     H128346   1.978   4.712   1.955
 5509TP3     H228347   2.046   4.694   2.089
 5510TP3      O28348   3.555   4.729   2.630
 5510TP3     H128349   3.616   4.657   2.613
 5510TP3     H228350   3.579   4.760   2.717
 5511TP3      O28351   3.727   4.506   2.602
 5511TP3     H128352   3.638   4.472   2.602
 5511TP3     H228353   3.781   4.431   2.627
 5512TP3      O28354   3.499   4.121   0.928
 5512TP3     H128355   3.530   4.076   1.006
 5512TP3     H228356   3.406   4.097   0.922
 5513TP3      O28357   3.457   4.303   1.446
 5513TP3     H128358   3.487   4.212   1.453
 5513TP3     H228359   3.527   4.347   1.398
 5514TP3      O28360   3.495   4.336   2.019
 5514TP3     H128361   3.588   4.345   2.000
 5514TP3     H228362   3.488   4.355   2.112
 5515TP3      O28363   3.525   4.421   2.279
 5515TP3     H128364   3.453   4.445   2.338
 5515TP3     H228365   3.576   4.502   2.272
 5516TP3      O28366   1.950   4.249   2.613
 5516TP3     H128367   2.033   4.236   2.659
 5516TP3     H228368   1.899   4.170   2.633
 5517TP3      O28369   3.743   3.802   2.788
 5517TP3     H128370   3.821   3.767   2.744
 5517TP3     H228371   3.735   3.891   2.756
 5518TP3      O28372   3.530   4.037   1.472
 5518TP3     H128373   3.551   4.001   1.558
 5518TP3     H228374   3.463   3.979   1.437
 5519TP3      O28375   2.067   4.110   1.958
 5519TP3     H128376   2.109   4.024   1.953
 5519TP3     H228377   2.140   4.170   1.974
 5520TP3      O28378   1.879   4.392   2.013
 5520TP3     H128379   1.950   4.390   1.949
 5520TP3     H228380   1.902   4.463   2.073
 5521TP3      O28381   3.668   4.054   2.690
 5521TP3     H128382   3.622   4.069   2.773
 5521TP3     H228383   3.601   4.066   2.623
 5522TP3      O28384   3.659   4.011   1.126
 5522TP3     H128385   3.712   3.954   1.069
 5522TP3     H228386   3.722   4.073   1.162
 5523TP3      O28387   1.934   4.004   1.416
 5523TP3     H128388   1.842   4.010   1.441
 5523TP3     H228389   1.949   4.079   1.359
 5524TP3      O28390   1.931   3.852   2.246
 5524TP3     H128391   1.869   3.848   2.319
 5524TP3     H228392   1.904   3.930   2.197
 5525TP3      O28393   2.166   5.257   2.759
 5525TP3     H128394   2.107   5.247   2.684
 5525TP3     H228395   2.127   5.204   2.828
 5526TP3      O28396   2.437   5.319   2.334
 5526TP3     H128397   2.356   5.339   2.286
 5526TP3     H228398   2.507   5.355   2.279
 5527TP3      O28399   2.935   5.448   2.622
 5527TP3     H128400   2.916   5.407   2.707
 5527TP3     H228401   3.030   5.461   2.623
 5528TP3      O28402   3.591   3.819   2.430
 5528TP3     H128403   3.517   3.837   2.371
 5528TP3     H228404   3.615   3.728   2.412
 5529TP3      O28405   3.142   5.487   2.250
 5529TP3     H128406   3.070   5.535   2.292
 5529TP3     H228407   3.167   5.541   2.176
 5530TP3      O28408   2.131   5.444   2.015
 5530TP3     H128409   2.138   5.404   2.101
 5530TP3     H228410   2.203   5.405   1.964
 5531TP3      O28411   2.341   5.331   1.890
 5531TP3     H128412   2.330   5.241   1.918
 5531TP3     H228413   2.430   5.354   1.918
 5532TP3      O28414   2.601   5.344   1.995
 5532TP3     H128415   2.607   5.253   1.967
 5532TP3     H228416   2.641   5.346   2.081
 5533TP3      O28417   2.886   3.956   1.852
 5533TP3     H128418   2.821   3.899   1.894
 5533TP3     H228419   2.936   3.898   1.796
 5534TP3      O28420   3.457   3.773   1.845
 5534TP3     H128421   3.520   3.830   1.802
 5534TP3     H228422   3.378   3.826   1.854
 5535TP3      O28423   3.631   3.917   1.698
 5535TP3     H128424   3.696   3.852   1.672
 5535TP3     H228425   3.682   3.996   1.717
 5536TP3      O28426   2.168   3.828   1.644
 5536TP3     H128427   2.076   3.811   1.622
 5536TP3     H228428   2.211   3.743   1.634
 5537TP3      O28429   2.079   3.829   1.252
 5537TP3     H128430   2.130   3.890   1.199
 5537TP3     H228431   2.033   3.884   1.314
 5538TP3      O28432   2.626   3.806   1.657
 5538TP3     H128433   2.690   3.855   1.606
 5538TP3     H228434   2.656   3.813   1.747
 5539TP3      O28435   3.211   3.891   1.866
 5539TP3     H128436   3.176   3.884   1.777
 5539TP3     H228437   3.167   3.821   1.914
 5540TP3      O28438   3.330   3.866   1.379
 5540TP3     H128439   3.262   3.934   1.385
 5540TP3     H228440   3.286   3.785   1.404
 5541TP3      O28441   2.041   5.404   1.329
 5541TP3     H128442   1.964   5.398   1.273
 5541TP3     H228443   2.079   5.489   1.308
 5542TP3      O28444   2.256   3.995   1.089
 5542TP3     H128445   2.304   3.942   1.026
 5542TP3     H228446   2.324   4.027   1.149
 5543TP3      O28447   2.733   4.092   1.327
 5543TP3     H128448   2.763   4.023   1.386
 5543TP3     H228449   2.743   4.173   1.377
 5544TP3      O28450   3.632   5.482   1.483
 5544TP3     H128451   3.616   5.389   1.463
 5544TP3     H228452   3.603   5.528   1.404
 5545TP3      O28453   2.188   3.864   2.617
 5545TP3     H128454   2.128   3.796   2.650
 5545TP3     H228455   2.271   3.844   2.660
 5546TP3      O28456   2.416   3.799   2.776
 5546TP3     H128457   2.497   3.819   2.729
 5546TP3     H228458   2.427   3.710   2.809
 5547TP3      O28459   2.190   5.423   1.013
 5547TP3     H128460   2.165   5.475   1.089
 5547TP3     H228461   2.279   5.393   1.032
 5548TP3      O28462   3.232   3.806   2.791
 5548TP3     H128463   3.229   3.760   2.875
 5548TP3     H228464   3.322   3.794   2.760
 5549TP3      O28465   3.497   5.408   2.631
 5549TP3     H128466   3.433   5.385   2.563
 5549TP3     H228467   3.524   5.497   2.608
 5550TP3      O28468   4.970   4.783   1.630
 5550TP3     H128469   4.966   4.878   1.618
 5550TP3     H228470   4.901   4.748   1.574
 5551TP3      O28471   4.848   4.692   2.022
 5551TP3     H128472   4.867   4.649   2.105
 5551TP3     H228473   4.804   4.624   1.970
 5552TP3      O28474   4.073   4.636   2.162
 5552TP3     H128475   4.076   4.551   2.206
 5552TP3     H228476   4.137   4.690   2.208
 5553TP3      O28477   5.228   5.004   1.856
 5553TP3     H128478   5.202   4.924   1.901
 5553TP3     H228479   5.258   5.062   1.927
 5554TP3      O28480   4.223   5.074   1.969
 5554TP3     H128481   4.184   4.989   1.949
 5554TP3     H228482   4.317   5.057   1.974
 5555TP3      O28483   3.866   4.441   1.491
 5555TP3     H128484   3.831   4.522   1.527
 5555TP3     H228485   3.801   4.413   1.428
 5556TP3      O28486   3.921   4.676   1.785
 5556TP3     H128487   3.950   4.587   1.808
 5556TP3     H228488   4.000   4.729   1.794
 5557TP3      O28489   4.958   5.371   1.847
 5557TP3     H128490   5.041   5.348   1.803
 5557TP3     H228491   4.963   5.326   1.931
 5558TP3      O28492   4.713   4.936   2.039
 5558TP3     H128493   4.751   4.852   2.012
 5558TP3     H228494   4.783   4.979   2.088
 5559TP3      O28495   4.996   4.373   2.053
 5559TP3     H128496   5.017   4.280   2.064
 5559TP3     H228497   4.995   4.386   1.959
 5560TP3      O28498   4.368   4.172   1.777
 5560TP3     H128499   4.370   4.257   1.733
 5560TP3     H228500   4.311   4.118   1.722
 5561TP3      O28501   5.109   4.201   1.623
 5561TP3     H128502   5.151   4.165   1.700
 5561TP3     H228503   5.180   4.240   1.572
 5562TP3      O28504   4.004   4.425   1.862
 5562TP3     H128505   4.068   4.383   1.919
 5562TP3     H228506   4.023   4.389   1.775
 5563TP3      O28507   4.490   4.568   1.814
 5563TP3     H128508   4.572   4.529   1.843
 5563TP3     H228509   4.450   4.502   1.758
 5564TP3      O28510   4.224   4.088   2.202
 5564TP3     H128511   4.202   4.147   2.129
 5564TP3     H228512   4.150   4.096   2.262
 5565TP3      O28513   4.957   5.041   1.527
 5565TP3     H128514   4.932   5.040   1.435
 5565TP3     H228515   4.914   5.119   1.563
 5566TP3      O28516   4.493   4.850   2.185
 5566TP3     H128517   4.441   4.918   2.227
 5566TP3     H228518   4.563   4.897   2.139
 5567TP3      O28519   5.216   4.133   1.860
 5567TP3     H128520   5.149   4.106   1.922
 5567TP3     H228521   5.276   4.188   1.911
 5568TP3      O28522   4.203   4.259   1.984
 5568TP3     H128523   4.257   4.317   2.037
 5568TP3     H228524   4.263   4.225   1.917
 5569TP3      O28525   4.341   5.039   2.316
 5569TP3     H128526   4.340   5.135   2.311
 5569TP3     H228527   4.249   5.015   2.328
 5570TP3      O28528   3.903   5.023   1.378
 5570TP3     H128529   3.892   5.076   1.298
 5570TP3     H228530   3.923   5.088   1.446
 5571TP3      O28531   5.267   5.193   2.067
 5571TP3     H128532   5.172   5.206   2.069
 5571TP3     H228533   5.304   5.281   2.063
 5572TP3      O28534   5.267   3.969   2.166
 5572TP3     H128535   5.202   4.032   2.134
 5572TP3     H228536   5.346   4.020   2.180
 5573TP3      O28537   4.582   3.782   1.952
 5573TP3     H128538   4.554   3.691   1.953
 5573TP3     H228539   4.506   3.831   1.983
 5574TP3      O28540   5.176   5.357   1.681
 5574TP3     H128541   5.192   5.267   1.652
 5574TP3     H228542   5.262   5.399   1.675
 5575TP3      O28543   5.223   5.104   1.600
 5575TP3     H128544   5.144   5.064   1.565
 5575TP3     H228545   5.236   5.061   1.685
 5576TP3      O28546   5.379   4.942   2.419
 5576TP3     H128547   5.379   4.889   2.339
 5576TP3     H228548   5.418   5.025   2.393
 5577TP3      O28549   4.824   4.694   1.409
 5577TP3     H128550   4.761   4.760   1.380
 5577TP3     H228551   4.893   4.696   1.343
 5578TP3      O28552   4.865   4.565   1.063
 5578TP3     H128553   4.918   4.588   1.139
 5578TP3     H228554   4.921   4.507   1.012
 5579TP3      O28555   5.188   4.715   1.482
 5579TP3     H128556   5.120   4.739   1.545
 5579TP3     H228557   5.250   4.662   1.533
 5580TP3      O28558   5.125   4.514   2.411
 5580TP3     H128559   5.128   4.578   2.482
 5580TP3     H228560   5.053   4.543   2.355
 5581TP3      O28561   4.346   4.760   1.678
 5581TP3     H128562   4.319   4.722   1.595
 5581TP3     H228563   4.401   4.693   1.719
 5582TP3      O28564   4.500   5.078   1.933
 5582TP3     H128565   4.503   5.082   1.837
 5582TP3     H228566   4.578   5.026   1.956
 5583TP3      O28567   4.361   4.657   2.042
 5583TP3     H128568   4.414   4.636   1.965
 5583TP3     H228569   4.412   4.725   2.088
 5584TP3      O28570   4.996   5.246   2.095
 5584TP3     H128571   4.997   5.310   2.167
 5584TP3     H228572   4.967   5.165   2.136
 5585TP3      O28573   4.498   5.077   2.545
 5585TP3     H128574   4.429   5.134   2.580
 5585TP3     H228575   4.460   5.040   2.466
 5586TP3      O28576   5.056   4.643   1.255
 5586TP3     H128577   5.106   4.675   1.330
 5586TP3     H228578   5.110   4.666   1.179
 5587TP3      O28579   4.157   4.691   2.454
 5587TP3     H128580   4.163   4.763   2.517
 5587TP3     H228581   4.063   4.676   2.442
 5588TP3      O28582   4.841   5.277   1.613
 5588TP3     H128583   4.871   5.309   1.698
 5588TP3     H228584   4.757   5.322   1.599
 5589TP3      O28585   4.291   5.243   2.601
 5589TP3     H128586   4.286   5.275   2.510
 5589TP3     H228587   4.200   5.232   2.627
 5590TP3      O28588   5.410   3.808   1.222
 5590TP3     H128589   5.332   3.839   1.269
 5590TP3     H228590   5.481   3.864   1.253
 5591TP3      O28591   4.262   4.675   1.421
 5591TP3     H128592   4.204   4.741   1.383
 5591TP3     H228593   4.212   4.594   1.415
 5592TP3      O28594   3.854   4.918   2.340
 5592TP3     H128595   3.797   4.924   2.264
 5592TP3     H228596   3.862   4.824   2.357
 5593TP3      O28597   3.805   5.197   2.028
 5593TP3     H128598   3.899   5.211   2.027
 5593TP3     H228599   3.769   5.283   2.050
 5594TP3      O28600   4.720   5.222   2.477
 5594TP3     H128601   4.732   5.296   2.537
 5594TP3     H228602   4.639   5.181   2.506
 5595TP3      O28603   4.161   5.398   1.638
 5595TP3     H128604   4.175   5.377   1.731
 5595TP3     H228605   4.097   5.334   1.609
 5596TP3      O28606   5.045   5.481   1.131
 5596TP3     H128607   5.113   5.419   1.104
 5596TP3     H228608   5.036   5.466   1.225
 5597TP3      O28609   5.022   5.415   1.405
 5597TP3     H128610   4.936   5.380   1.381
 5597TP3     H228611   5.043   5.375   1.489
 5598TP3      O28612   5.419   4.485   2.567
 5598TP3     H128613   5.391   4.439   2.488
 5598TP3     H228614   5.463   4.418   2.620
 5599TP3      O28615   4.068   5.072   2.398
 5599TP3     H128616   4.094   5.029   2.479
 5599TP3     H228617   3.992   5.023   2.368
 5600TP3      O28618   4.338   3.891   2.042
 5600TP3     H128619   4.264   3.880   1.983
 5600TP3     H228620   4.312   3.962   2.100
 5601TP3      O28621   4.812   3.869   2.373
 5601TP3     H128622   4.857   3.821   2.443
 5601TP3     H228623   4.719   3.861   2.394
 5602TP3      O28624   5.115   4.239   2.466
 5602TP3     H128625   5.069   4.239   2.549
 5602TP3     H228626   5.125   4.332   2.444
 5603TP3      O28627   5.208   4.692   1.040
 5603TP3     H128628   5.191   4.705   0.946
 5603TP3     H228629   5.299   4.718   1.052
 5604TP3      O28630   4.768   4.092   1.107
 5604TP3     H128631   4.711   4.092   1.185
 5604TP3     H228632   4.726   4.029   1.048
 5605TP3      O28633   4.344   4.413   2.161
 5605TP3     H128634   4.273   4.415   2.227
 5605TP3     H228635   4.345   4.502   2.126
 5606TP3      O28636   4.346   4.407   1.643
 5606TP3     H128637   4.250   4.398   1.641
 5606TP3     H228638   4.373   4.390   1.553
 5607TP3      O28639   4.882   4.448   1.519
 5607TP3     H128640   4.857   4.534   1.486
 5607TP3     H228641   4.950   4.417   1.458
 5608TP3      O28642   4.811   4.496   2.710
 5608TP3     H128643   4.757   4.418   2.725
 5608TP3     H228644   4.890   4.462   2.667
 5609TP3      O28645   4.986   4.395   1.780
 5609TP3     H128646   4.943   4.446   1.712
 5609TP3     H228647   5.021   4.319   1.734
 5610TP3      O28648   4.122   4.411   2.322
 5610TP3     H128649   4.103   4.460   2.402
 5610TP3     H228650   4.083   4.325   2.337
 5611TP3      O28651   4.453   4.148   1.001
 5611TP3     H128652   4.418   4.136   1.089
 5611TP3     H228653   4.394   4.213   0.961
 5612TP3      O28654   3.805   4.119   1.717
 5612TP3     H128655   3.859   4.127   1.796
 5612TP3     H228656   3.868   4.110   1.646
 5613TP3      O28657   3.836   4.201   1.228
 5613TP3     H128658   3.904   4.243   1.176
 5613TP3     H228659   3.778   4.273   1.253
 5614TP3      O28660   4.897   4.534   2.246
 5614TP3     H128661   4.940   4.481   2.179
 5614TP3     H228662   4.846   4.472   2.297
 5615TP3      O28663   4.648   4.128   1.729
 5615TP3     H128664   4.558   4.136   1.762
 5615TP3     H228665   4.698   4.097   1.804
 5616TP3      O28666   4.084   4.330   1.617
 5616TP3     H128667   4.009   4.360   1.565
 5616TP3     H228668   4.099   4.240   1.589
 5617TP3      O28669   4.411   4.337   1.388
 5617TP3     H128670   4.506   4.332   1.402
 5617TP3     H228671   4.402   4.378   1.302
 5618TP3      O28672   5.019   4.095   2.056
 5618TP3     H128673   4.982   4.099   2.145
 5618TP3     H228674   4.949   4.056   2.003
 5619TP3      O28675   4.376   4.430   1.134
 5619TP3     H128676   4.323   4.405   1.059
 5619TP3     H228677   4.450   4.477   1.097
 5620TP3      O28678   4.130   4.922   2.621
 5620TP3     H128679   4.186   4.953   2.692
 5620TP3     H228680   4.048   4.898   2.665
 5621TP3      O28681   4.714   4.451   1.926
 5621TP3     H128682   4.789   4.401   1.892
 5621TP3     H228683   4.680   4.397   1.998
 5622TP3      O28684   4.192   4.060   1.586
 5622TP3     H128685   4.142   3.982   1.610
 5622TP3     H228686   4.233   4.038   1.502
 5623TP3      O28687   4.600   4.315   2.145
 5623TP3     H128688   4.514   4.356   2.155
 5623TP3     H228689   4.648   4.339   2.224
 5624TP3      O28690   4.637   4.895   1.332
 5624TP3     H128691   4.569   4.850   1.282
 5624TP3     H228692   4.599   4.909   1.418
 5625TP3      O28693   5.364   4.806   2.184
 5625TP3     H128694   5.443   4.787   2.132
 5625TP3     H228695   5.292   4.798   2.121
 5626TP3      O28696   5.023   4.148   1.179
 5626TP3     H128697   4.931   4.142   1.155
 5626TP3     H228698   5.032   4.235   1.219
 5627TP3      O28699   4.793   4.938   2.432
 5627TP3     H128700   4.805   4.889   2.513
 5627TP3     H228701   4.755   5.021   2.460
 5628TP3      O28702   5.080   4.374   1.330
 5628TP3     H128703   5.166   4.357   1.369
 5628TP3     H228704   5.086   4.464   1.298
 5629TP3      O28705   4.169   4.807   1.886
 5629TP3     H128706   4.229   4.799   1.812
 5629TP3     H228707   4.204   4.748   1.952
 5630TP3      O28708   4.850   5.051   1.267
 5630TP3     H128709   4.823   5.142   1.270
 5630TP3     H228710   4.770   5.002   1.288
 5631TP3      O28711   3.882   4.647   2.424
 5631TP3     H128712   3.843   4.611   2.504
 5631TP3     H228713   3.817   4.630   2.356
 5632TP3      O28714   4.574   4.651   2.676
 5632TP3     H128715   4.511   4.609   2.617
 5632TP3     H228716   4.652   4.594   2.672
 5633TP3      O28717   5.002   5.185   2.480
 5633TP3     H128718   4.913   5.191   2.447
 5633TP3     H228719   4.995   5.207   2.573
 5634TP3      O28720   5.420   5.233   1.384
 5634TP3     H128721   5.360   5.169   1.421
 5634TP3     H228722   5.466   5.187   1.314
 5635TP3      O28723   5.146   4.768   2.001
 5635TP3     H128724   5.051   4.760   1.993
 5635TP3     H228725   5.181   4.689   1.960
 5636TP3      O28726   4.418   5.174   1.671
 5636TP3     H128727   4.430   5.255   1.622
 5636TP3     H228728   4.325   5.172   1.693
 5637TP3      O28729   3.990   4.646   1.134
 5637TP3     H128730   4.037   4.713   1.184
 5637TP3     H228731   3.900   4.653   1.163
 5638TP3      O28732   4.511   4.945   1.560
 5638TP3     H128733   4.485   5.030   1.598
 5638TP3     H228734   4.456   4.881   1.605
 5639TP3      O28735   4.594   5.352   2.249
 5639TP3     H128736   4.638   5.435   2.266
 5639TP3     H228737   4.643   5.289   2.302
 5640TP3      O28738   4.410   5.416   1.532
 5640TP3     H128739   4.318   5.422   1.559
 5640TP3     H228740   4.454   5.486   1.580
 5641TP3      O28741   4.930   4.998   2.204
 5641TP3     H128742   4.887   4.971   2.285
 5641TP3     H228743   5.003   4.938   2.194
 5642TP3      O28744   5.195   5.065   1.132
 5642TP3     H128745   5.221   5.018   1.211
 5642TP3     H228746   5.102   5.044   1.121
 5643TP3      O28747   5.223   5.337   2.430
 5643TP3     H128748   5.149   5.277   2.440
 5643TP3     H228749   5.189   5.408   2.375
 5644TP3      O28750   4.011   4.161   2.367
 5644TP3     H128751   3.920   4.183   2.348
 5644TP3     H228752   4.009   4.121   2.454
 5645TP3      O28753   5.298   4.928   1.346
 5645TP3     H128754   5.254   4.858   1.394
 5645TP3     H228755   5.388   4.927   1.378
 5646TP3      O28756   4.032   5.319   2.259
 5646TP3     H128757   4.047   5.234   2.300
 5646TP3     H228758   3.955   5.354   2.305
 5647TP3      O28759   4.574   5.148   0.979
 5647TP3     H128760   4.575   5.065   0.932
 5647TP3     H228761   4.530   5.128   1.061
 5648TP3      O28762   4.454   5.129   1.223
 5648TP3     H128763   4.492   5.075   1.293
 5648TP3     H228764   4.474   5.219   1.249
 5649TP3      O28765   4.098   4.851   1.288
 5649TP3     H128766   4.026   4.896   1.332
 5649TP3     H228767   4.141   4.920   1.237
 5650TP3      O28768   4.921   4.114   2.310
 5650TP3     H128769   4.995   4.134   2.367
 5650TP3     H228770   4.891   4.028   2.339
 5651TP3      O28771   4.986   4.037   1.439
 5651TP3     H128772   4.998   4.080   1.354
 5651TP3     H228773   5.021   4.100   1.502
 5652TP3      O28774   4.783   5.319   1.262
 5652TP3     H128775   4.693   5.348   1.277
 5652TP3     H228776   4.801   5.346   1.172
 5653TP3      O28777   4.668   4.279   1.496
 5653TP3     H128778   4.741   4.340   1.505
 5653TP3     H228779   4.660   4.238   1.583
 5654TP3      O28780   4.764   4.333   2.372
 5654TP3     H128781   4.721   4.308   2.454
 5654TP3     H228782   4.816   4.256   2.348
 5655TP3      O28783   4.751   3.941   1.549
 5655TP3     H128784   4.726   4.009   1.610
 5655TP3     H228785   4.836   3.968   1.515
 5656TP3      O28786   4.516   5.387   1.287
 5656TP3     H128787   4.480   5.457   1.233
 5656TP3     H228788   4.478   5.401   1.373
 5657TP3      O28789   4.350   4.096   1.253
 5657TP3     H128790   4.341   4.179   1.300
 5657TP3     H228791   4.436   4.063   1.279
 5658TP3      O28792   5.364   4.110   2.429
 5658TP3     H128793   5.284   4.161   2.441
 5658TP3     H228794   5.427   4.172   2.392
 5659TP3      O28795   5.220   4.522   1.890
 5659TP3     H128796   5.139   4.484   1.856
 5659TP3     H228797   5.258   4.453   1.945
 5660TP3      O28798   4.198   5.059   1.131
 5660TP3     H128799   4.272   5.106   1.170
 5660TP3     H228800   4.239   5.004   1.063
 5661TP3      O28801   3.977   4.375   1.070
 5661TP3     H128802   4.000   4.461   1.106
 5661TP3     H228803   3.927   4.395   0.991
 5662TP3      O28804   5.355   5.449   2.092
 5662TP3     H128805   5.337   5.516   2.026
 5662TP3     H228806   5.421   5.488   2.149
 5663TP3      O28807   4.098   3.866   1.912
 5663TP3     H128808   4.085   3.856   1.818
 5663TP3     H228809   4.061   3.786   1.950
 5664TP3      O28810   3.958   5.238   1.545
 5664TP3     H128811   3.909   5.278   1.617
 5664TP3     H228812   3.940   5.293   1.469
 5665TP3      O28813   3.922   5.468   2.665
 5665TP3     H128814   3.990   5.404   2.686
 5665TP3     H228815   3.846   5.415   2.641
 5666TP3      O28816   4.374   5.388   2.818
 5666TP3     H128817   4.436   5.431   2.760
 5666TP3     H228818   4.336   5.317   2.766
 5667TP3      O28819   4.779   5.323   0.975
 5667TP3     H128820   4.709   5.258   0.977
 5667TP3     H228821   4.857   5.274   0.949
 5668TP3      O28822   4.972   5.245   2.746
 5668TP3     H128823   4.942   5.164   2.787
 5668TP3     H228824   5.048   5.272   2.798
 5669TP3      O28825   5.225   5.321   1.007
 5669TP3     H128826   5.258   5.249   1.060
 5669TP3     H228827   5.297   5.343   0.948
 5670TP3      O28828   3.888   4.909   2.759
 5670TP3     H128829   3.840   4.841   2.807
 5670TP3     H228830   3.824   4.943   2.697
 5671TP3      O28831   4.334   4.882   0.977
 5671TP3     H128832   4.360   4.836   1.057
 5671TP3     H228833   4.415   4.892   0.927
 5672TP3      O28834   4.568   4.911   2.757
 5672TP3     H128835   4.549   4.964   2.679
 5672TP3     H228836   4.576   4.822   2.724
 5673TP3      O28837   4.933   5.020   1.007
 5673TP3     H128838   4.892   5.016   1.093
 5673TP3     H228839   4.913   4.935   0.967
 5674TP3      O28840   5.116   4.933   2.487
 5674TP3     H128841   5.208   4.942   2.461
 5674TP3     H228842   5.078   5.019   2.473
 5675TP3      O28843   4.066   4.640   2.792
 5675TP3     H128844   4.046   4.548   2.778
 5675TP3     H228845   4.017   4.664   2.871
 5676TP3      O28846   4.438   4.755   1.205
 5676TP3     H128847   4.386   4.712   1.273
 5676TP3     H228848   4.483   4.683   1.160
 5677TP3      O28849   4.399   4.538   2.482
 5677TP3     H128850   4.318   4.588   2.467
 5677TP3     H228851   4.460   4.571   2.416
 5678TP3      O28852   4.585   4.580   1.044
 5678TP3     H128853   4.581   4.607   0.952
 5678TP3     H228854   4.679   4.569   1.061
 5679TP3      O28855   4.902   4.754   2.768
 5679TP3     H128856   4.982   4.741   2.716
 5679TP3     H228857   4.850   4.675   2.752
 5680TP3      O28858   5.471   4.778   1.027
 5680TP3     H128859   5.492   4.762   0.935
 5680TP3     H228860   5.461   4.873   1.033
 5681TP3      O28861   4.479   4.277   2.535
 5681TP3     H128862   4.463   4.218   2.461
 5681TP3     H228863   4.443   4.362   2.506
 5682TP3      O28864   4.474   4.106   2.309
 5682TP3     H128865   4.523   4.153   2.241
 5682TP3     H228866   4.385   4.101   2.275
 5683TP3      O28867   4.594   4.634   2.318
 5683TP3     H128868   4.688   4.637   2.303
 5683TP3     H228869   4.560   4.711   2.273
 5684TP3      O28870   5.123   4.703   2.621
 5684TP3     H128871   5.111   4.783   2.570
 5684TP3     H228872   5.216   4.703   2.644
 5685TP3      O28873   4.302   4.350   2.794
 5685TP3     H128874   4.209   4.357   2.817
 5685TP3     H228875   4.303   4.345   2.698
 5686TP3      O28876   4.533   3.843   2.389
 5686TP3     H128877   4.514   3.935   2.367
 5686TP3     H228878   4.463   3.794   2.347
 5687TP3      O28879   4.672   4.263   2.724
 5687TP3     H128880   4.642   4.214   2.800
 5687TP3     H228881   4.597   4.263   2.663
 5688TP3      O28882   4.954   4.225   2.695
 5688TP3     H128883   4.859   4.219   2.704
 5688TP3     H228884   4.988   4.159   2.755
 5689TP3      O28885   5.042   4.030   2.881
 5689TP3     H128886   5.056   3.945   2.840
 5689TP3     H228887   4.996   4.010   2.963
 5690TP3      O28888   4.065   4.142   2.717
 5690TP3     H128889   4.062   4.049   2.694
 5690TP3     H228890   4.044   4.144   2.810
 5691TP3      O28891   4.563   3.761   2.649
 5691TP3     H128892   4.623   3.686   2.648
 5691TP3     H228893   4.555   3.787   2.557
 5692TP3      O28894   4.617   3.956   2.843
 5692TP3     H128895   4.597   3.894   2.772
 5692TP3     H228896   4.537   4.008   2.852
 5693TP3      O28897   3.932   5.088   1.081
 5693TP3     H128898   4.024   5.084   1.106
 5693TP3     H228899   3.921   5.015   1.019
 5694TP3      O28900   3.869   5.371   1.771
 5694TP3     H128901   3.782   5.342   1.797
 5694TP3     H228902   3.909   5.404   1.852
 5695TP3      O28903   5.455   5.066   2.859
 5695TP3     H128904   5.395   5.055   2.932
 5695TP3     H228905   5.399   5.090   2.785
 5696TP3      O28906   5.426   5.196   2.299
 5696TP3     H128907   5.371   5.255   2.350
 5696TP3     H228908   5.377   5.181   2.218
 5697TP3      O28909   5.481   4.386   1.001
 5697TP3     H128910   5.416   4.443   0.959
 5697TP3     H228911   5.448   4.297   0.984
 5698TP3      O28912   5.336   4.545   1.636
 5698TP3     H128913   5.321   4.452   1.621
 5698TP3     H228914   5.318   4.557   1.730
 5699TP3      O28915   3.851   4.734   2.041
 5699TP3     H128916   3.862   4.719   1.948
 5699TP3     H228917   3.934   4.706   2.080
 5700TP3      O28918   5.393   4.745   2.640
 5700TP3     H128919   5.413   4.657   2.607
 5700TP3     H228920   5.410   4.803   2.565
 5701TP3      O28921   5.391   4.130   0.931
 5701TP3     H128922   5.410   4.081   1.011
 5701TP3     H228923   5.298   4.115   0.915
 5702TP3      O28924   5.316   4.300   1.468
 5702TP3     H128925   5.343   4.209   1.475
 5702TP3     H228926   5.398   4.348   1.453
 5703TP3      O28927   5.338   4.307   2.035
 5703TP3     H128928   5.424   4.348   2.022
 5703TP3     H228929   5.329   4.300   2.130
 5704TP3      O28930   5.364   4.399   2.305
 5704TP3     H128931   5.289   4.458   2.314
 5704TP3     H228932   5.424   4.445   2.245
 5705TP3      O28933   3.839   4.253   2.612
 5705TP3     H128934   3.923   4.233   2.655
 5705TP3     H228935   3.778   4.188   2.648
 5706TP3      O28936   5.369   4.037   1.516
 5706TP3     H128937   5.391   4.006   1.604
 5706TP3     H228938   5.308   3.972   1.483
 5707TP3      O28939   3.970   4.110   1.934
 5707TP3     H128940   4.007   4.022   1.939
 5707TP3     H228941   4.042   4.168   1.958
 5708TP3      O28942   3.765   4.381   2.011
 5708TP3     H128943   3.839   4.389   1.950
 5708TP3     H228944   3.785   4.445   2.080
 5709TP3      O28945   3.824   4.008   1.417
 5709TP3     H128946   3.731   4.010   1.442
 5709TP3     H228947   3.835   4.082   1.358
 5710TP3      O28948   3.816   3.872   2.268
 5710TP3     H128949   3.748   3.863   2.336
 5710TP3     H228950   3.784   3.942   2.211
 5711TP3      O28951   4.039   5.220   2.702
 5711TP3     H128952   3.965   5.186   2.652
 5711TP3     H228953   4.027   5.183   2.790
 5712TP3      O28954   4.321   5.313   2.332
 5712TP3     H128955   4.247   5.348   2.282
 5712TP3     H228956   4.398   5.346   2.287
 5713TP3      O28957   4.784   5.460   2.639
 5713TP3     H128958   4.765   5.521   2.710
 5713TP3     H228959   4.867   5.420   2.663
 5714TP3      O28960   5.403   3.847   2.463
 5714TP3     H128961   5.393   3.942   2.455
 5714TP3     H228962   5.339   3.811   2.401
 5715TP3      O28963   5.019   5.473   2.262
 5715TP3     H128964   4.950   5.525   2.304
 5715TP3     H228965   5.059   5.533   2.199
 5716TP3      O28966   4.018   5.438   2.007
 5716TP3     H128967   4.020   5.409   2.099
 5716TP3     H228968   4.096   5.398   1.968
 5717TP3      O28969   4.236   5.331   1.895
 5717TP3     H128970   4.225   5.240   1.922
 5717TP3     H228971   4.325   5.353   1.922
 5718TP3      O28972   4.497   5.344   1.995
 5718TP3     H128973   4.502   5.252   1.967
 5718TP3     H228974   4.533   5.345   2.083
 5719TP3      O28975   4.812   3.974   1.900
 5719TP3     H128976   4.748   3.904   1.917
 5719TP3     H228977   4.885   3.930   1.857
 5720TP3      O28978   5.313   3.786   1.878
 5720TP3     H128979   5.374   3.853   1.848
 5720TP3     H228980   5.233   3.834   1.900
 5721TP3      O28981  -0.035   3.941   1.741
 5721TP3     H128982   0.014   3.868   1.704
 5721TP3     H228983   0.026   3.982   1.803
 5722TP3      O28984   4.060   3.825   1.643
 5722TP3     H128985   3.968   3.810   1.622
 5722TP3     H228986   4.102   3.740   1.630
 5723TP3      O28987   3.955   3.831   1.245
 5723TP3     H128988   4.009   3.891   1.194
 5723TP3     H228989   3.912   3.886   1.310
 5724TP3      O28990   4.542   3.788   1.665
 5724TP3     H128991   4.609   3.842   1.623
 5724TP3     H228992   4.558   3.798   1.759
 5725TP3      O28993   5.027   3.840   1.799
 5725TP3     H128994   5.080   3.821   1.721
 5725TP3     H228995   5.005   3.754   1.835
 5726TP3      O28996   5.196   3.863   1.393
 5726TP3     H128997   5.118   3.917   1.403
 5726TP3     H228998   5.163   3.773   1.405
 5727TP3      O28999   3.923   5.386   1.323
 5727TP3     H129000   3.846   5.389   1.267
 5727TP3     H229001   3.967   5.470   1.308
 5728TP3      O29002   4.143   3.993   1.088
 5728TP3     H129003   4.194   3.938   1.029
 5728TP3     H229004   4.207   4.028   1.150
 5729TP3      O29005   4.613   4.068   1.334
 5729TP3     H129006   4.644   3.996   1.389
 5729TP3     H229007   4.631   4.146   1.385
 5730TP3      O29008   5.470   5.473   1.503
 5730TP3     H129009   5.451   5.384   1.473
 5730TP3     H229010   5.475   5.524   1.422
 5731TP3      O29011   4.070   3.878   2.616
 5731TP3     H129012   4.014   3.803   2.636
 5731TP3     H229013   4.156   3.853   2.650
 5732TP3      O29014   4.299   3.771   2.726
 5732TP3     H129015   4.391   3.787   2.704
 5732TP3     H229016   4.287   3.677   2.713
 5733TP3      O29017   4.095   5.451   1.013
 5733TP3     H129018   4.066   5.488   1.096
 5733TP3     H229019   4.173   5.400   1.036
 5734TP3      O29020   5.099   3.775   2.785
 5734TP3     H129021   5.092   3.733   2.871
 5734TP3     H229022   5.193   3.773   2.765
 5735TP3      O29023   5.335   5.392   2.681
 5735TP3     H129024   5.300   5.363   2.596
 5735TP3     H229025   5.397   5.461   2.659
 5736TP3      O29026   1.574   0.084   3.132
 5736TP3     H129027   1.484   0.087   3.097
 5736TP3     H229028   1.622   0.146   3.077
 5737TP3      O29029   1.774   1.460   2.975
 5737TP3     H129030   1.762   1.455   3.069
 5737TP3     H229031   1.863   1.427   2.960
 5738TP3      O29032   0.977   0.268   3.035
 5738TP3     H129033   0.991   0.179   3.068
 5738TP3     H229034   0.915   0.257   2.963
 5739TP3      O29035   1.217   0.382   3.084
 5739TP3     H129036   1.129   0.349   3.066
 5739TP3     H229037   1.217   0.470   3.046
 5740TP3      O29038   0.181   0.924   3.031
 5740TP3     H129039   0.247   0.984   2.996
 5740TP3     H229040   0.099   0.952   2.990
 5741TP3      O29041   1.462   1.286   3.077
 5741TP3     H129042   1.526   1.316   3.141
 5741TP3     H229043   1.392   1.352   3.079
 5742TP3      O29044   0.870   1.360   2.891
 5742TP3     H129045   0.832   1.287   2.842
 5742TP3     H229046   0.821   1.362   2.973
 5743TP3      O29047   1.056   1.533   2.786
 5743TP3     H129048   0.989   1.481   2.829
 5743TP3     H229049   1.133   1.476   2.782
 5744TP3      O29050   0.513   1.156   2.896
 5744TP3     H129051   0.501   1.196   2.982
 5744TP3     H229052   0.608   1.142   2.888
 5745TP3      O29053   0.836   0.766   2.949
 5745TP3     H129054   0.753   0.793   2.988
 5745TP3     H229055   0.829   0.793   2.857
 5746TP3      O29056   1.551   0.420   2.785
 5746TP3     H129057   1.606   0.373   2.847
 5746TP3     H229058   1.468   0.373   2.785
 5747TP3      O29059   1.704   0.259   2.956
 5747TP3     H129060   1.728   0.191   2.894
 5747TP3     H229061   1.783   0.312   2.966
 5748TP3      O29062   0.197   0.119   3.154
 5748TP3     H129063   0.225   0.196   3.104
 5748TP3     H229064   0.111   0.141   3.187
 5749TP3      O29065   0.310   1.709   2.973
 5749TP3     H129066   0.347   1.724   3.060
 5749TP3     H229067   0.384   1.683   2.919
 5750TP3      O29068   2.962   0.784   2.976
 5750TP3     H129069   3.019   0.765   3.051
 5750TP3     H229070   3.001   0.734   2.904
 5751TP3      O29071   3.501   0.056   3.076
 5751TP3     H129072   3.441  -0.016   3.057
 5751TP3     H229073   3.481   0.081   3.166
 5752TP3      O29074   3.290   0.924   2.855
 5752TP3     H129075   3.310   0.920   2.761
 5752TP3     H229076   3.376   0.933   2.897
 5753TP3      O29077   2.849   0.402   2.998
 5753TP3     H129078   2.797   0.397   3.078
 5753TP3     H229079   2.825   0.323   2.949
 5754TP3      O29080   2.547   0.386   2.879
 5754TP3     H129081   2.502   0.344   2.953
 5754TP3     H229082   2.494   0.464   2.861
 5755TP3      O29083   3.114   0.465   3.024
 5755TP3     H129084   3.020   0.448   3.029
 5755TP3     H229085   3.126   0.548   3.071
 5756TP3      O29086   2.130   0.935   3.022
 5756TP3     H129087   2.153   1.025   3.044
 5756TP3     H229088   2.115   0.936   2.927
 5757TP3      O29089   2.724   1.373   2.876
 5757TP3     H129090   2.692   1.294   2.831
 5757TP3     H229091   2.646   1.427   2.888
 5758TP3      O29092   2.449   0.282   3.149
 5758TP3     H129093   2.407   0.319   3.226
 5758TP3     H229094   2.542   0.300   3.161
 5759TP3      O29095   2.141   0.655   2.955
 5759TP3     H129096   2.131   0.734   3.007
 5759TP3     H229097   2.087   0.590   2.999
 5760TP3      O29098   2.926   1.564   2.838
 5760TP3     H129099   2.862   1.494   2.854
 5760TP3     H229100   3.001   1.520   2.799
 5761TP3      O29101   2.392   1.202   2.868
 5761TP3     H129102   2.395   1.272   2.932
 5761TP3     H229103   2.481   1.196   2.834
 5762TP3      O29104   2.983   1.266   2.814
 5762TP3     H129105   2.891   1.278   2.841
 5762TP3     H229106   2.998   1.172   2.822
 5763TP3      O29107   3.570   1.032   2.885
 5763TP3     H129108   3.578   1.012   2.791
 5763TP3     H229109   3.587   1.126   2.891
 5764TP3      O29110   2.752   1.852   3.083
 5764TP3     H129111   2.766   1.906   3.161
 5764TP3     H229112   2.678   1.893   3.039
 5765TP3      O29113   2.014   1.330   2.917
 5765TP3     H129114   2.105   1.344   2.945
 5765TP3     H229115   2.017   1.250   2.865
 5766TP3      O29116   3.734   0.970   3.095
 5766TP3     H129117   3.678   0.972   3.018
 5766TP3     H229118   3.697   1.035   3.154
 5767TP3      O29119   3.475   0.380   2.787
 5767TP3     H129120   3.512   0.354   2.871
 5767TP3     H229121   3.383   0.355   2.794
 5768TP3      O29122   3.624   0.295   3.020
 5768TP3     H129123   3.592   0.204   3.023
 5768TP3     H229124   3.719   0.287   3.019
 5769TP3      O29125   2.015   5.497   2.924
 5769TP3     H129126   2.107   5.477   2.942
 5769TP3     H229127   1.967   5.420   2.956
 5770TP3      O29128   2.272   0.235   2.949
 5770TP3     H129129   2.279   0.142   2.926
 5770TP3     H229130   2.332   0.246   3.022
 5771TP3      O29131   3.000   1.743   3.027
 5771TP3     H129132   2.983   1.681   2.957
 5771TP3     H229133   2.913   1.778   3.050
 5772TP3      O29134   4.849   0.799   2.953
 5772TP3     H129135   4.862   0.790   3.048
 5772TP3     H229136   4.908   0.734   2.915
 5773TP3      O29137   5.416   0.095   3.112
 5773TP3     H129138   5.322   0.090   3.096
 5773TP3     H229139   5.453   0.125   3.029
 5774TP3      O29140   5.197   1.053   2.888
 5774TP3     H129141   5.154   1.008   2.816
 5774TP3     H229142   5.211   0.985   2.954
 5775TP3      O29143   4.528   0.343   2.922
 5775TP3     H129144   4.520   0.304   3.009
 5775TP3     H229145   4.475   0.422   2.926
 5776TP3      O29146   3.970   0.942   2.964
 5776TP3     H129147   3.964   1.019   2.907
 5776TP3     H229148   3.893   0.947   3.020
 5777TP3      O29149   4.565   1.378   2.866
 5777TP3     H129150   4.601   1.315   2.803
 5777TP3     H229151   4.500   1.328   2.915
 5778TP3      O29152   3.987   0.654   2.982
 5778TP3     H129153   3.969   0.744   2.956
 5778TP3     H229154   3.961   0.601   2.907
 5779TP3      O29155   4.774   1.560   2.834
 5779TP3     H129156   4.707   1.495   2.850
 5779TP3     H229157   4.847   1.511   2.795
 5780TP3      O29158   4.379   1.139   2.885
 5780TP3     H129159   4.388   1.050   2.919
 5780TP3     H229160   4.448   1.146   2.818
 5781TP3      O29161   4.897   1.243   2.897
 5781TP3     H129162   4.852   1.220   2.978
 5781TP3     H229163   4.899   1.161   2.847
 5782TP3      O29164   4.535   0.859   2.941
 5782TP3     H129165   4.540   0.857   2.846
 5782TP3     H229166   4.623   0.837   2.970
 5783TP3      O29167   5.483   1.008   2.901
 5783TP3     H129168   5.484   0.974   2.811
 5783TP3     H229169   5.423   1.082   2.899
 5784TP3      O29170   4.617   1.839   3.044
 5784TP3     H129171   4.599   1.762   2.990
 5784TP3     H229172   4.598   1.913   2.986
 5785TP3      O29173   3.911   0.271   3.035
 5785TP3     H129174   4.005   0.281   3.021
 5785TP3     H229175   3.881   0.218   2.962
 5786TP3      O29176   4.185   0.234   2.952
 5786TP3     H129177   4.213   0.182   2.877
 5786TP3     H229178   4.259   0.231   3.013
 5787TP3      O29179   4.103   1.726   2.896
 5787TP3     H129180   4.037   1.695   2.958
 5787TP3     H229181   4.166   1.654   2.890
 5788TP3      O29182   1.085   2.674   2.947
 5788TP3     H129183   1.092   2.660   3.041
 5788TP3     H229184   1.148   2.613   2.909
 5789TP3      O29185   0.611   2.234   2.940
 5789TP3     H129186   0.606   2.327   2.962
 5789TP3     H229187   0.661   2.232   2.858
 5790TP3      O29188   0.596   2.496   2.985
 5790TP3     H129189   0.532   2.518   2.917
 5790TP3     H229190   0.666   2.561   2.975
 5791TP3      O29191   1.346   2.331   3.004
 5791TP3     H129192   1.312   2.263   3.062
 5791TP3     H229193   1.437   2.344   3.032
 5792TP3      O29194   1.156   3.220   3.171
 5792TP3     H129195   1.129   3.311   3.186
 5792TP3     H229196   1.199   3.195   3.253
 5793TP3      O29197   0.187   2.754   2.989
 5793TP3     H129198   0.254   2.798   3.041
 5793TP3     H229199   0.114   2.816   2.986
 5794TP3      O29200   1.409   3.279   3.040
 5794TP3     H129201   1.458   3.286   3.121
 5794TP3     H229202   1.318   3.266   3.067
 5795TP3      O29203   0.865   3.254   2.846
 5795TP3     H129204   0.819   3.181   2.803
 5795TP3     H229205   0.952   3.219   2.865
 5796TP3      O29206   0.162   2.464   2.948
 5796TP3     H129207   0.200   2.547   2.977
 5796TP3     H229208   0.074   2.487   2.918
 5797TP3      O29209   1.000   3.493   2.836
 5797TP3     H129210   0.943   3.419   2.857
 5797TP3     H229211   1.087   3.454   2.827
 5798TP3      O29212   1.433   3.487   2.865
 5798TP3     H129213   1.433   3.430   2.942
 5798TP3     H229214   1.515   3.468   2.821
 5799TP3      O29215   1.114   3.161   2.902
 5799TP3     H129216   1.128   3.171   2.996
 5799TP3     H229217   1.143   3.072   2.882
 5800TP3      O29218   0.807   2.651   2.910
 5800TP3     H129219   0.790   2.700   2.830
 5800TP3     H229220   0.899   2.669   2.930
 5801TP3      O29221   0.740   3.728   3.043
 5801TP3     H129222   0.822   3.701   3.085
 5801TP3     H229223   0.767   3.784   2.970
 5802TP3      O29224   0.193   3.170   3.009
 5802TP3     H129225   0.176   3.259   2.980
 5802TP3     H229226   0.187   3.117   2.930
 5803TP3      O29227   1.628   2.444   2.992
 5803TP3     H129228   1.701   2.503   3.012
 5803TP3     H229229   1.643   2.417   2.902
 5804TP3      O29230   1.598   2.219   2.806
 5804TP3     H129231   1.638   2.172   2.879
 5804TP3     H229232   1.506   2.193   2.809
 5805TP3      O29233   1.770   2.076   2.968
 5805TP3     H129234   1.801   2.003   2.915
 5805TP3     H229235   1.833   2.146   2.951
 5806TP3      O29236   0.379   2.093   2.932
 5806TP3     H129237   0.419   2.022   2.880
 5806TP3     H229238   0.453   2.148   2.958
 5807TP3      O29239   0.327   3.622   2.881
 5807TP3     H129240   0.256   3.587   2.936
 5807TP3     H229241   0.397   3.558   2.888
 5808TP3      O29242   3.414   1.901   3.068
 5808TP3     H129243   3.481   1.872   3.130
 5808TP3     H229244   3.451   1.980   3.028
 5809TP3      O29245   3.685   3.319   2.996
 5809TP3     H129246   3.659   3.410   2.976
 5809TP3     H229247   3.777   3.315   2.971
 5810TP3      O29248   3.236   3.671   3.023
 5810TP3     H129249   3.286   3.589   3.022
 5810TP3     H229250   3.239   3.699   3.115
 5811TP3      O29251   2.684   3.319   2.845
 5811TP3     H129252   2.639   3.241   2.812
 5811TP3     H229253   2.710   3.296   2.934
 5812TP3      O29254   2.910   3.462   2.831
 5812TP3     H129255   2.831   3.408   2.839
 5812TP3     H229256   2.982   3.398   2.836
 5813TP3      O29257   3.382   3.441   2.918
 5813TP3     H129258   3.345   3.361   2.954
 5813TP3     H229259   3.414   3.417   2.831
 5814TP3      O29260   3.600   2.911   2.865
 5814TP3     H129261   3.614   2.886   2.773
 5814TP3     H229262   3.566   3.000   2.861
 5815TP3      O29263   2.025   3.284   2.909
 5815TP3     H129264   2.004   3.328   2.992
 5815TP3     H229265   2.027   3.191   2.931
 5816TP3      O29266   3.777   2.905   3.093
 5816TP3     H129267   3.722   2.903   3.014
 5816TP3     H229268   3.853   2.852   3.070
 5817TP3      O29269   3.497   2.154   2.970
 5817TP3     H129270   3.565   2.213   3.002
 5817TP3     H229271   3.472   2.191   2.885
 5818TP3      O29272   2.296   2.203   2.954
 5818TP3     H129273   2.349   2.125   2.935
 5818TP3     H229274   2.360   2.274   2.957
 5819TP3      O29275   4.845   2.621   3.039
 5819TP3     H129276   4.860   2.713   3.064
 5819TP3     H229277   4.917   2.601   2.980
 5820TP3      O29278   5.487   1.753   3.145
 5820TP3     H129279   5.523   1.764   3.233
 5820TP3     H229280   5.561   1.769   3.087
 5821TP3      O29281   5.115   3.674   3.036
 5821TP3     H129282   5.166   3.597   3.062
 5821TP3     H229283   5.056   3.689   3.110
 5822TP3      O29284   5.217   2.738   2.880
 5822TP3     H129285   5.181   2.770   2.797
 5822TP3     H229286   5.245   2.817   2.926
 5823TP3      O29287   4.423   2.264   2.927
 5823TP3     H129288   4.434   2.318   3.005
 5823TP3     H229289   4.381   2.322   2.863
 5824TP3      O29290   4.256   2.543   3.019
 5824TP3     H129291   4.281   2.524   2.928
 5824TP3     H229292   4.337   2.570   3.061
 5825TP3      O29293   4.050   2.781   3.053
 5825TP3     H129294   4.130   2.833   3.052
 5825TP3     H229295   4.081   2.690   3.064
 5826TP3      O29296   4.526   3.228   2.902
 5826TP3     H129297   4.592   3.214   2.835
 5826TP3     H229298   4.517   3.143   2.945
 5827TP3      O29299   5.282   3.424   2.887
 5827TP3     H129300   5.320   3.467   2.963
 5827TP3     H229301   5.333   3.457   2.813
 5828TP3      O29302   4.872   3.190   2.856
 5828TP3     H129303   4.926   3.180   2.935
 5828TP3     H229304   4.808   3.120   2.863
 5829TP3      O29305   4.602   2.571   2.901
 5829TP3     H129306   4.570   2.656   2.870
 5829TP3     H229307   4.671   2.593   2.963
 5830TP3      O29308   5.470   2.902   2.942
 5830TP3     H129309   5.463   2.881   2.849
 5830TP3     H229310   5.444   2.994   2.947
 5831TP3      O29311   3.958   3.221   2.940
 5831TP3     H129312   4.050   3.196   2.936
 5831TP3     H229313   3.913   3.154   2.889
 5832TP3      O29314   5.429   2.515   2.878
 5832TP3     H129315   5.388   2.601   2.872
 5832TP3     H229316   5.374   2.458   2.825
 5833TP3      O29317   5.265   2.334   2.740
 5833TP3     H129318   5.303   2.321   2.653
 5833TP3     H229319   5.205   2.261   2.751
 5834TP3      O29320   4.177   3.612   2.997
 5834TP3     H129321   4.170   3.695   2.950
 5834TP3     H229322   4.234   3.557   2.943
 5835TP3      O29323   1.066   4.554   2.959
 5835TP3     H129324   1.036   4.513   3.040
 5835TP3     H229325   1.139   4.498   2.930
 5836TP3      O29326   1.850   5.286   2.992
 5836TP3     H129327   1.811   5.277   2.905
 5836TP3     H229328   1.915   5.216   2.998
 5837TP3      O29329   1.295   0.043   3.031
 5837TP3     H129330   1.281  -0.024   3.098
 5837TP3     H229331   1.212   0.090   3.026
 5838TP3      O29332   1.439   4.791   2.944
 5838TP3     H129333   1.418   4.747   2.862
 5838TP3     H229334   1.530   4.767   2.961
 5839TP3      O29335   0.708   4.163   2.890
 5839TP3     H129336   0.684   4.154   2.982
 5839TP3     H229337   0.644   4.225   2.854
 5840TP3      O29338   0.874   5.118   2.890
 5840TP3     H129339   0.826   5.047   2.847
 5840TP3     H229340   0.828   5.129   2.974
 5841TP3      O29341   0.786   5.195   3.142
 5841TP3     H129342   0.741   5.155   3.216
 5841TP3     H229343   0.844   5.260   3.181
 5842TP3      O29344   0.637   4.100   3.148
 5842TP3     H129345   0.684   4.162   3.203
 5842TP3     H229346   0.670   4.015   3.174
 5843TP3      O29347   1.035   5.326   2.825
 5843TP3     H129348   0.976   5.259   2.860
 5843TP3     H229349   1.116   5.279   2.808
 5844TP3      O29350   0.567   4.864   2.850
 5844TP3     H129351   0.600   4.786   2.895
 5844TP3     H229352   0.643   4.898   2.803
 5845TP3      O29353   1.131   5.019   2.862
 5845TP3     H129354   1.038   5.039   2.872
 5845TP3     H229355   1.132   4.927   2.837
 5846TP3      O29356   0.764   4.655   2.914
 5846TP3     H129357   0.776   4.650   2.819
 5846TP3     H229358   0.846   4.621   2.950
 5847TP3      O29359   1.722   4.802   2.939
 5847TP3     H129360   1.717   4.763   2.852
 5847TP3     H229361   1.707   4.896   2.924
 5848TP3      O29362   0.412   4.028   2.936
 5848TP3     H129363   0.442   3.959   2.877
 5848TP3     H229364   0.490   4.053   2.986
 5849TP3      O29365   3.263   5.416   3.088
 5849TP3     H129366   3.296   5.365   3.013
 5849TP3     H229367   3.232   5.350   3.150
 5850TP3      O29368   2.523   4.174   2.935
 5850TP3     H129369   2.500   4.189   3.026
 5850TP3     H229370   2.549   4.259   2.901
 5851TP3      O29371   3.166   4.122   3.103
 5851TP3     H129372   3.110   4.096   3.176
 5851TP3     H229373   3.255   4.115   3.137
 5852TP3      O29374   1.991   4.669   2.991
 5852TP3     H129375   1.999   4.748   2.938
 5852TP3     H229376   1.897   4.658   3.004
 5853TP3      O29377   3.311   5.091   3.071
 5853TP3     H129378   3.349   5.098   3.159
 5853TP3     H229379   3.219   5.068   3.087
 5854TP3      O29380   2.681   5.166   2.878
 5854TP3     H129381   2.687   5.077   2.842
 5854TP3     H229382   2.640   5.154   2.963
 5855TP3      O29383   2.553   5.181   3.117
 5855TP3     H129384   2.562   5.125   3.194
 5855TP3     H229385   2.460   5.203   3.114
 5856TP3      O29386   1.991   4.395   3.051
 5856TP3     H129387   2.013   4.484   3.023
 5856TP3     H229388   1.896   4.395   3.058
 5857TP3      O29389   2.900   5.317   2.853
 5857TP3     H129390   2.819   5.267   2.862
 5857TP3     H229391   2.969   5.253   2.867
 5858TP3      O29392   3.364   5.288   2.873
 5858TP3     H129393   3.377   5.209   2.925
 5858TP3     H229394   3.442   5.296   2.819
 5859TP3      O29395   2.442   4.854   2.862
 5859TP3     H129396   2.461   4.762   2.883
 5859TP3     H229397   2.525   4.887   2.827
 5860TP3      O29398   3.023   5.041   2.898
 5860TP3     H129399   3.026   5.038   2.994
 5860TP3     H229400   3.021   4.950   2.871
 5861TP3      O29401   3.638   4.809   2.883
 5861TP3     H129402   3.620   4.760   2.963
 5861TP3     H229403   3.616   4.899   2.903
 5862TP3      O29404   2.040   5.092   2.960
 5862TP3     H129405   2.084   5.072   3.043
 5862TP3     H229406   2.040   5.010   2.912
 5863TP3      O29407   3.498   4.380   2.961
 5863TP3     H129408   3.551   4.423   3.029
 5863TP3     H229409   3.532   4.291   2.958
 5864TP3      O29410   3.519   4.086   2.913
 5864TP3     H129411   3.537   4.045   2.998
 5864TP3     H229412   3.424   4.091   2.908
 5865TP3      O29413   2.309   4.006   2.930
 5865TP3     H129414   2.349   3.933   2.881
 5865TP3     H229415   2.380   4.069   2.941
 5866TP3      O29416   2.285   5.454   2.993
 5866TP3     H129417   2.276   5.376   3.046
 5866TP3     H229418   2.357   5.434   2.933
 5867TP3      O29419   5.332   3.873   3.043
 5867TP3     H129420   5.250   3.825   3.047
 5867TP3     H229421   5.399   3.807   3.061
 5868TP3      O29422   5.150   5.554   3.034
 5868TP3     H129423   5.160   5.459   3.026
 5868TP3     H229424   5.102   5.566   3.116
 5869TP3      O29425   4.755   4.129   3.006
 5869TP3     H129426   4.814   4.071   3.055
 5869TP3     H229427   4.709   4.071   2.946
 5870TP3      O29428   4.423   4.136   2.902
 5870TP3     H129429   4.387   4.143   2.990
 5870TP3     H229430   4.385   4.210   2.854
 5871TP3      O29431   3.963   4.222   3.138
 5871TP3     H129432   4.020   4.272   3.196
 5871TP3     H229433   3.875   4.233   3.175
 5872TP3      O29434   3.939   4.628   3.043
 5872TP3     H129435   3.984   4.629   3.128
 5872TP3     H229436   3.846   4.621   3.066
 5873TP3      O29437   5.276   5.063   3.075
 5873TP3     H129438   5.330   5.060   3.154
 5873TP3     H229439   5.188   5.041   3.106
 5874TP3      O29440   4.291   4.159   3.142
 5874TP3     H129441   4.222   4.223   3.163
 5874TP3     H229442   4.343   4.152   3.223
 5875TP3      O29443   4.257   5.130   3.011
 5875TP3     H129444   4.163   5.143   3.001
 5875TP3     H229445   4.276   5.051   2.959
 5876TP3      O29446   4.025   4.384   2.925
 5876TP3     H129447   3.991   4.466   2.961
 5876TP3     H229448   4.000   4.318   2.989
 5877TP3      O29449   5.197   5.299   2.908
 5877TP3     H129450   5.244   5.230   2.954
 5877TP3     H229451   5.258   5.326   2.839
 5878TP3      O29452   4.302   4.917   2.844
 5878TP3     H129453   4.265   4.831   2.824
 5878TP3     H229454   4.393   4.911   2.814
 5879TP3      O29455   4.856   5.013   2.855
 5879TP3     H129456   4.763   4.995   2.848
 5879TP3     H229457   4.899   4.931   2.831
 5880TP3      O29458   5.532   4.737   2.875
 5880TP3     H129459   5.470   4.746   2.803
 5880TP3     H229460   5.490   4.781   2.949
 5881TP3      O29461   3.981   5.101   2.944
 5881TP3     H129462   3.932   5.105   3.026
 5881TP3     H229463   3.945   5.026   2.897
 5882TP3      O29464   5.326   4.099   2.880
 5882TP3     H129465   5.342   4.030   2.945
 5882TP3     H229466   5.232   4.093   2.862
 5883TP3      O29467   4.187   3.928   2.952
 5883TP3     H129468   4.239   3.927   2.872
 5883TP3     H229469   4.204   4.014   2.991
   5.52806   5.52806  10.31600
